<event>
 4    1  0.6239288E+000  0.1000000E+03  0.7546771E-02  0.1280296E+00
         21   -1    0    0  501  502  0.00000000000E+00  0.00000000000E+00  0.40640123465E+03  0.40640123465E+03  0.00000000000E+00 0. -1.
         21   -1    0    0  502  503 -0.00000000000E+00 -0.00000000000E+00 -0.45160618509E+03  0.45160618509E+03  0.00000000000E+00 0. -1.
          6    1    1    2  501    0  0.43170568071E+02  0.23905252571E+03  0.28538747683E+03  0.41277696148E+03  0.17300000000E+03 0. -1.
         -6    1    1    2    0  503 -0.43170568071E+02 -0.23905252571E+03 -0.33059242727E+03  0.44523045826E+03  0.17300000000E+03 0. -1.
</event>
<event>
 4    1  0.6239288E+000  0.1000000E+03  0.7546771E-02  0.1280296E+00
         21   -1    0    0  501  502  0.00000000000E+00  0.00000000000E+00  0.18070784549E+03  0.18070784549E+03  0.00000000000E+00 0. -1.
         21   -1    0    0  502  503 -0.00000000000E+00 -0.00000000000E+00 -0.17289265591E+04  0.17289265591E+04  0.00000000000E+00 0.  1.
          6    1    1    2  501    0  0.55544383185E+02  0.20665971355E+03  0.56984532216E+02  0.28101539570E+03  0.17300000000E+03 0. -1.
         -6    1    1    2    0  503 -0.55544383185E+02 -0.20665971355E+03 -0.16052032458E+04  0.16286190089E+04  0.17300000000E+03 0.  1.
</event>
<event>
 4    1  0.6239288E+000  0.1000000E+03  0.7546771E-02  0.1280296E+00
         21   -1    0    0  501  502  0.00000000000E+00  0.00000000000E+00  0.44164532068E+03  0.44164532068E+03  0.00000000000E+00 0. -1.
         21   -1    0    0  502  503 -0.00000000000E+00 -0.00000000000E+00 -0.93731025004E+02  0.93731025004E+02  0.00000000000E+00 0.  1.
          6    1    1    2  501    0 -0.37487567021E+02  0.20967753568E+02  0.30301403874E+03  0.35155578795E+03  0.17300000000E+03 0. -1.
         -6    1    1    2    0  503  0.37487567021E+02 -0.20967753568E+02  0.44900256935E+02  0.18382055773E+03  0.17300000000E+03 0.  1.
</event>
<event>
 4    1  0.6239288E+000  0.1000000E+03  0.7546771E-02  0.1280296E+00
         21   -1    0    0  503  502  0.00000000000E+00  0.00000000000E+00  0.12445997866E+04  0.12445997866E+04  0.00000000000E+00 0. -1.
         21   -1    0    0  501  503 -0.00000000000E+00 -0.00000000000E+00 -0.33521037018E+02  0.33521037018E+02  0.00000000000E+00 0. -1.
          6    1    1    2  501    0  0.92983172034E+02 -0.25841372152E+02  0.44980429684E+03  0.49149420368E+03  0.17300000000E+03 0. -1.
         -6    1    1    2    0  502 -0.92983172034E+02  0.25841372152E+02  0.76127445272E+03  0.78662661992E+03  0.17300000000E+03 0. -1.
</event>
<event>
 4    1  0.6239288E+000  0.1000000E+03  0.7546771E-02  0.1280296E+00
         21   -1    0    0  503  502  0.00000000000E+00  0.00000000000E+00  0.20186108795E+04  0.20186108795E+04  0.00000000000E+00 0. -1.
         21   -1    0    0  501  503 -0.00000000000E+00 -0.00000000000E+00 -0.90137166759E+02  0.90137166759E+02  0.00000000000E+00 0. -1.
          6    1    1    2  501    0 -0.12664814244E+03 -0.26207193491E+03  0.32298514519E+03  0.46794214927E+03  0.17300000000E+03 0. -1.
         -6    1    1    2    0  502  0.12664814244E+03  0.26207193491E+03  0.16054885676E+04  0.16408058970E+04  0.17300000000E+03 0. -1.
</event>
<event>
 4    1  0.6239288E+000  0.1000000E+03  0.7546771E-02  0.1280296E+00
         21   -1    0    0  503  502  0.00000000000E+00  0.00000000000E+00  0.10747424366E+03  0.10747424366E+03  0.00000000000E+00 0. -1.
         21   -1    0    0  501  503 -0.00000000000E+00 -0.00000000000E+00 -0.63917500050E+03  0.63917500050E+03  0.00000000000E+00 0. -1.
          6    1    1    2  501    0  0.17974122121E+03  0.65911686373E+02 -0.33134986770E+03  0.41996784619E+03  0.17300000000E+03 0. -1.
         -6    1    1    2    0  502 -0.17974122121E+03 -0.65911686373E+02 -0.20035088914E+03  0.32668139797E+03  0.17300000000E+03 0. -1.
</event>
<event>
 4    1  0.6239288E+000  0.1000000E+03  0.7546771E-02  0.1280296E+00
         21   -1    0    0  501  502  0.00000000000E+00  0.00000000000E+00  0.54128226392E+02  0.54128226392E+02  0.00000000000E+00 0.  1.
         21   -1    0    0  502  503 -0.00000000000E+00 -0.00000000000E+00 -0.10612906774E+04  0.10612906774E+04  0.00000000000E+00 0. -1.
          6    1    1    2  501    0  0.11268164787E+03 -0.34256349075E+02 -0.23175979282E+03  0.31226951946E+03  0.17300000000E+03 0. -1.
         -6    1    1    2    0  503 -0.11268164787E+03  0.34256349075E+02 -0.77540265816E+03  0.80314938430E+03  0.17300000000E+03 0.  1.
</event>
<event>
 4    1  0.6239288E+000  0.1000000E+03  0.7546771E-02  0.1280296E+00
         21   -1    0    0  501  502  0.00000000000E+00  0.00000000000E+00  0.14078195684E+04  0.14078195684E+04  0.00000000000E+00 0.  1.
         21   -1    0    0  502  503 -0.00000000000E+00 -0.00000000000E+00 -0.32289748170E+03  0.32289748170E+03  0.00000000000E+00 0. -1.
          6    1    1    2  501    0  0.14625076817E+02  0.48146391615E+02  0.13763504031E+04  0.13880927202E+04  0.17300000000E+03 0. -1.
         -6    1    1    2    0  503 -0.14625076817E+02 -0.48146391615E+02 -0.29142831633E+03  0.34262432993E+03  0.17300000000E+03 0.  1.
</event>
<event>
 4    1  0.6239288E+000  0.1000000E+03  0.7546771E-02  0.1280296E+00
         21   -1    0    0  501  502  0.00000000000E+00  0.00000000000E+00  0.61819518595E+03  0.61819518595E+03  0.00000000000E+00 0.  1.
         21   -1    0    0  502  503 -0.00000000000E+00 -0.00000000000E+00 -0.90268555389E+03  0.90268555389E+03  0.00000000000E+00 0. -1.
          6    1    1    2  501    0  0.13231651083E+03  0.28989845022E+03  0.52260409510E+03  0.63607610448E+03  0.17300000000E+03 0. -1.
         -6    1    1    2    0  503 -0.13231651083E+03 -0.28989845022E+03 -0.80709446304E+03  0.88480463536E+03  0.17300000000E+03 0.  1.
</event>
<event>
 4    1  0.6239288E+000  0.1000000E+03  0.7546771E-02  0.1280296E+00
         21   -1    0    0  501  502  0.00000000000E+00  0.00000000000E+00  0.25020217164E+03  0.25020217164E+03  0.00000000000E+00 0.  1.
         21   -1    0    0  502  503 -0.00000000000E+00 -0.00000000000E+00 -0.15715241720E+03  0.15715241720E+03  0.00000000000E+00 0.  1.
          6    1    1    2  501    0 -0.25090510464E+02  0.72086250168E+02  0.10785320594E+03  0.21768618516E+03  0.17300000000E+03 0.  1.
         -6    1    1    2    0  503  0.25090510464E+02 -0.72086250168E+02 -0.14803451503E+02  0.18966840368E+03  0.17300000000E+03 0.  1.
</event>
<event>
 4    1  0.6239288E+000  0.1000000E+03  0.7546771E-02  0.1280296E+00
         21   -1    0    0  501  502  0.00000000000E+00  0.00000000000E+00  0.29136331785E+03  0.29136331785E+03  0.00000000000E+00 0. -1.
         21   -1    0    0  502  503 -0.00000000000E+00 -0.00000000000E+00 -0.41557860361E+03  0.41557860361E+03  0.00000000000E+00 0.  1.
          6    1    1    2  501    0  0.14341489328E+03 -0.10936507392E+03 -0.30806388260E+03  0.39668741695E+03  0.17300000000E+03 0. -1.
         -6    1    1    2    0  503 -0.14341489328E+03  0.10936507392E+03  0.18384859684E+03  0.31025450451E+03  0.17300000000E+03 0.  1.
</event>
<event>
 4    1  0.6239288E+000  0.1000000E+03  0.7546771E-02  0.1280296E+00
         21   -1    0    0  501  502  0.00000000000E+00  0.00000000000E+00  0.23823053157E+03  0.23823053157E+03  0.00000000000E+00 0.  1.
         21   -1    0    0  502  503 -0.00000000000E+00 -0.00000000000E+00 -0.37109681909E+03  0.37109681909E+03  0.00000000000E+00 0. -1.
          6    1    1    2  501    0  0.81724803807E+02 -0.20688999095E+03  0.30748288163E+02  0.28347287196E+03  0.17300000000E+03 0. -1.
         -6    1    1    2    0  503 -0.81724803807E+02  0.20688999095E+03 -0.16361457568E+03  0.32585447870E+03  0.17300000000E+03 0.  1.
</event>
<event>
 4    1  0.6239288E+000  0.1000000E+03  0.7546771E-02  0.1280296E+00
         21   -1    0    0  501  502  0.00000000000E+00  0.00000000000E+00  0.48923076356E+03  0.48923076356E+03  0.00000000000E+00 0.  1.
         21   -1    0    0  502  503 -0.00000000000E+00 -0.00000000000E+00 -0.76215020954E+02  0.76215020954E+02  0.00000000000E+00 0. -1.
          6    1    1    2  501    0 -0.34305334829E+02 -0.63149691591E+02  0.27507286913E+03  0.33280448146E+03  0.17300000000E+03 0. -1.
         -6    1    1    2    0  503  0.34305334829E+02  0.63149691591E+02  0.13794287347E+03  0.23264130306E+03  0.17300000000E+03 0.  1.
</event>
<event>
 4    1  0.6239288E+000  0.1000000E+03  0.7546771E-02  0.1280296E+00
         21   -1    0    0  501  502  0.00000000000E+00  0.00000000000E+00  0.29081046926E+03  0.29081046926E+03  0.00000000000E+00 0. -1.
         21   -1    0    0  502  503 -0.00000000000E+00 -0.00000000000E+00 -0.23396400694E+03  0.23396400694E+03  0.00000000000E+00 0.  1.
          6    1    1    2  501    0 -0.44144536426E+02  0.85740336875E+02  0.19916315119E+03  0.28088272687E+03  0.17300000000E+03 0. -1.
         -6    1    1    2    0  503  0.44144536426E+02 -0.85740336875E+02 -0.14231668887E+03  0.24389174934E+03  0.17300000000E+03 0.  1.
</event>
<event>
 4    1  0.6239288E+000  0.1000000E+03  0.7546771E-02  0.1280296E+00
         21   -1    0    0  501  502  0.00000000000E+00  0.00000000000E+00  0.13411799902E+03  0.13411799902E+03  0.00000000000E+00 0. -1.
         21   -1    0    0  502  503 -0.00000000000E+00 -0.00000000000E+00 -0.14570875942E+04  0.14570875942E+04  0.00000000000E+00 0.  1.
          6    1    1    2  501    0  0.10851348922E+03  0.18395523428E+03 -0.38353417060E+02  0.27751520708E+03  0.17300000000E+03 0. -1.
         -6    1    1    2    0  503 -0.10851348922E+03 -0.18395523428E+03 -0.12846161781E+04  0.13136903862E+04  0.17300000000E+03 0.  1.
</event>
<event>
 4    1  0.6239288E+000  0.1000000E+03  0.7546771E-02  0.1280296E+00
         21   -1    0    0  501  502  0.00000000000E+00  0.00000000000E+00  0.23256076239E+04  0.23256076239E+04  0.00000000000E+00 0. -1.
         21   -1    0    0  502  503 -0.00000000000E+00 -0.00000000000E+00 -0.19668519903E+02  0.19668519903E+02  0.00000000000E+00 0.  1.
          6    1    1    2  501    0 -0.64003753153E+01  0.26601215680E+02  0.18259079824E+04  0.18342893855E+04  0.17300000000E+03 0. -1.
         -6    1    1    2    0  503  0.64003753153E+01 -0.26601215680E+02  0.48003112154E+03  0.51098675827E+03  0.17300000000E+03 0.  1.
</event>
<event>
 4    1  0.6239288E+000  0.1000000E+03  0.7546771E-02  0.1280296E+00
         21   -1    0    0  503  502  0.00000000000E+00  0.00000000000E+00  0.13151291667E+04  0.13151291667E+04  0.00000000000E+00 0.  1.
         21   -1    0    0  501  503 -0.00000000000E+00 -0.00000000000E+00 -0.59459083170E+02  0.59459083170E+02  0.00000000000E+00 0.  1.
          6    1    1    2  501    0  0.10670100645E+03 -0.14571107350E+03  0.32035695973E+03  0.40641653924E+03  0.17300000000E+03 0.  1.
         -6    1    1    2    0  502 -0.10670100645E+03  0.14571107350E+03  0.93531312380E+03  0.96817171064E+03  0.17300000000E+03 0.  1.
</event>
<event>
 4    1  0.6239288E+000  0.1000000E+03  0.7546771E-02  0.1280296E+00
         21   -1    0    0  503  502  0.00000000000E+00  0.00000000000E+00  0.10698447044E+04  0.10698447044E+04  0.00000000000E+00 0.  1.
         21   -1    0    0  501  503 -0.00000000000E+00 -0.00000000000E+00 -0.32838335746E+02  0.32838335746E+02  0.00000000000E+00 0.  1.
          6    1    1    2  501    0  0.32237159945E+02  0.30156391118E+02  0.35070122387E+03  0.39353397672E+03  0.17300000000E+03 0.  1.
         -6    1    1    2    0  502 -0.32237159945E+02 -0.30156391118E+02  0.68630514478E+03  0.70914906343E+03  0.17300000000E+03 0.  1.
</event>
<event>
 4    1  0.6239288E+000  0.1000000E+03  0.7546771E-02  0.1280296E+00
         21   -1    0    0  503  502  0.00000000000E+00  0.00000000000E+00  0.84494578816E+02  0.84494578816E+02  0.00000000000E+00 0. -1.
         21   -1    0    0  501  503 -0.00000000000E+00 -0.00000000000E+00 -0.38346266128E+03  0.38346266128E+03  0.00000000000E+00 0.  1.
          6    1    1    2  501    0 -0.79010479059E+01 -0.58005568059E+01 -0.21283781976E+03  0.27445402263E+03  0.17300000000E+03 0. -1.
         -6    1    1    2    0  502  0.79010479059E+01  0.58005568059E+01 -0.86130262709E+02  0.19350321747E+03  0.17300000000E+03 0.  1.
</event>
<event>
 4    1  0.6239288E+000  0.1000000E+03  0.7546771E-02  0.1280296E+00
         21   -1    0    0  503  502  0.00000000000E+00  0.00000000000E+00  0.87726491378E+03  0.87726491378E+03  0.00000000000E+00 0. -1.
         21   -1    0    0  501  503 -0.00000000000E+00 -0.00000000000E+00 -0.41475680410E+02  0.41475680410E+02  0.00000000000E+00 0.  1.
          6    1    1    2  501    0  0.38190279095E+02 -0.22141197099E+02  0.25621129381E+03  0.31228505744E+03  0.17300000000E+03 0. -1.
         -6    1    1    2    0  502 -0.38190279095E+02  0.22141197099E+02  0.57957793956E+03  0.60645553675E+03  0.17300000000E+03 0.  1.
</event>
<event>
 4    1  0.6239288E+000  0.1000000E+03  0.7546771E-02  0.1280296E+00
         21   -1    0    0  501  502  0.00000000000E+00  0.00000000000E+00  0.13258919646E+03  0.13258919646E+03  0.00000000000E+00 0.  1.
         21   -1    0    0  502  503 -0.00000000000E+00 -0.00000000000E+00 -0.52060763178E+03  0.52060763178E+03  0.00000000000E+00 0.  1.
          6    1    1    2  501    0 -0.37403963933E+02  0.27848623682E+02  0.44857288593E+02  0.18470457141E+03  0.17300000000E+03 0.  1.
         -6    1    1    2    0  503  0.37403963933E+02 -0.27848623682E+02 -0.43287572391E+03  0.46849225683E+03  0.17300000000E+03 0.  1.
</event>
<event>
 4    1  0.6239288E+000  0.1000000E+03  0.7546771E-02  0.1280296E+00
         21   -1    0    0  501  502  0.00000000000E+00  0.00000000000E+00  0.53163101402E+02  0.53163101402E+02  0.00000000000E+00 0.  1.
         21   -1    0    0  502  503 -0.00000000000E+00 -0.00000000000E+00 -0.10085517107E+04  0.10085517107E+04  0.00000000000E+00 0.  1.
          6    1    1    2  501    0  0.57722831151E+02 -0.14217970453E+03 -0.50498878510E+03  0.55541846089E+03  0.17300000000E+03 0.  1.
         -6    1    1    2    0  503 -0.57722831151E+02  0.14217970453E+03 -0.45039982421E+03  0.50629635123E+03  0.17300000000E+03 0.  1.
</event>
<event>
 4    1  0.6239288E+000  0.1000000E+03  0.7546771E-02  0.1280296E+00
         21   -1    0    0  501  502  0.00000000000E+00  0.00000000000E+00  0.49824913881E+03  0.49824913881E+03  0.00000000000E+00 0.  1.
         21   -1    0    0  502  503 -0.00000000000E+00 -0.00000000000E+00 -0.42650681006E+03  0.42650681006E+03  0.00000000000E+00 0.  1.
          6    1    1    2  501    0 -0.39488136081E+01  0.45822199675E+01  0.46441096176E+03  0.49562398173E+03  0.17300000000E+03 0.  1.
         -6    1    1    2    0  503  0.39488136081E+01 -0.45822199675E+01 -0.39266863301E+03  0.42913196714E+03  0.17300000000E+03 0.  1.
</event>
<event>
 4    1  0.6239288E+000  0.1000000E+03  0.7546771E-02  0.1280296E+00
         21   -1    0    0  501  502  0.00000000000E+00  0.00000000000E+00  0.31373638797E+03  0.31373638797E+03  0.00000000000E+00 0.  1.
         21   -1    0    0  502  503 -0.00000000000E+00 -0.00000000000E+00 -0.29871481941E+03  0.29871481941E+03  0.00000000000E+00 0.  1.
          6    1    1    2  501    0 -0.19839344858E+03  0.28502896887E+02  0.16123309359E+03  0.30999594520E+03  0.17300000000E+03 0.  1.
         -6    1    1    2    0  503  0.19839344858E+03 -0.28502896887E+02 -0.14621152503E+03  0.30245526218E+03  0.17300000000E+03 0.  1.
</event>
<event>
 4    1  0.6239288E+000  0.1000000E+03  0.7546771E-02  0.1280296E+00
         21   -1    0    0  501  502  0.00000000000E+00  0.00000000000E+00  0.78067617004E+03  0.78067617004E+03  0.00000000000E+00 0. -1.
         21   -1    0    0  502  503 -0.00000000000E+00 -0.00000000000E+00 -0.11384015608E+03  0.11384015608E+03  0.00000000000E+00 0.  1.
          6    1    1    2  501    0  0.86756375454E+02  0.15052419112E+03  0.58784471006E+03  0.63692590145E+03  0.17300000000E+03 0. -1.
         -6    1    1    2    0  503 -0.86756375454E+02 -0.15052419112E+03  0.78991303895E+02  0.25759042467E+03  0.17300000000E+03 0.  1.
</event>
<event>
 4    1  0.6239288E+000  0.1000000E+03  0.7546771E-02  0.1280296E+00
         21   -1    0    0  501  502  0.00000000000E+00  0.00000000000E+00  0.41436958947E+02  0.41436958947E+02  0.00000000000E+00 0. -1.
         21   -1    0    0  502  503 -0.00000000000E+00 -0.00000000000E+00 -0.12178015466E+04  0.12178015466E+04  0.00000000000E+00 0. -1.
          6    1    1    2  501    0  0.17467774474E+02 -0.21379345947E+02 -0.19408101220E+03  0.26145485055E+03  0.17300000000E+03 0. -1.
         -6    1    1    2    0  503 -0.17467774474E+02  0.21379345947E+02 -0.98228357546E+03  0.99778365500E+03  0.17300000000E+03 0. -1.
</event>
<event>
 4    1  0.6239288E+000  0.1000000E+03  0.7546771E-02  0.1280296E+00
         21   -1    0    0  503  502  0.00000000000E+00  0.00000000000E+00  0.49236940972E+03  0.49236940972E+03  0.00000000000E+00 0. -1.
         21   -1    0    0  501  503 -0.00000000000E+00 -0.00000000000E+00 -0.12777542801E+03  0.12777542801E+03  0.00000000000E+00 0. -1.
          6    1    1    2  501    0  0.27170248215E+02 -0.19257646553E+02 -0.38410222907E+02  0.18031479297E+03  0.17300000000E+03 0. -1.
         -6    1    1    2    0  502 -0.27170248215E+02  0.19257646553E+02  0.40300420461E+03  0.43983004476E+03  0.17300000000E+03 0. -1.
</event>
<event>
 4    1  0.6239288E+000  0.1000000E+03  0.7546771E-02  0.1280296E+00
         21   -1    0    0  503  502  0.00000000000E+00  0.00000000000E+00  0.35539247912E+03  0.35539247912E+03  0.00000000000E+00 0. -1.
         21   -1    0    0  501  503 -0.00000000000E+00 -0.00000000000E+00 -0.14331458288E+03  0.14331458288E+03  0.00000000000E+00 0.  1.
          6    1    1    2  501    0  0.51672609656E+02 -0.92439726492E+02 -0.32761445158E+01  0.20286669206E+03  0.17300000000E+03 0.  1.
         -6    1    1    2    0  502 -0.51672609656E+02  0.92439726492E+02  0.21535404075E+03  0.29584036995E+03  0.17300000000E+03 0. -1.
</event>
<event>
 4    1  0.6239288E+000  0.1000000E+03  0.7546771E-02  0.1280296E+00
         21   -1    0    0  503  502  0.00000000000E+00  0.00000000000E+00  0.18421324578E+03  0.18421324578E+03  0.00000000000E+00 0. -1.
         21   -1    0    0  501  503 -0.00000000000E+00 -0.00000000000E+00 -0.29959364765E+03  0.29959364765E+03  0.00000000000E+00 0.  1.
          6    1    1    2  501    0 -0.27849419290E+02 -0.68703756293E+01 -0.21865917281E+03  0.28029203712E+03  0.17300000000E+03 0.  1.
         -6    1    1    2    0  502  0.27849419290E+02  0.68703756293E+01  0.10327877094E+03  0.20351485632E+03  0.17300000000E+03 0. -1.
</event>
<event>
 4    1  0.6239288E+000  0.1000000E+03  0.7546771E-02  0.1280296E+00
         21   -1    0    0  501  502  0.00000000000E+00  0.00000000000E+00  0.14975456066E+03  0.14975456066E+03  0.00000000000E+00 0. -1.
         21   -1    0    0  502  503 -0.00000000000E+00 -0.00000000000E+00 -0.72130724714E+03  0.72130724714E+03  0.00000000000E+00 0. -1.
          6    1    1    2  501    0 -0.81052177494E+01 -0.27815945975E+03 -0.31960484492E+03  0.45772768815E+03  0.17300000000E+03 0. -1.
         -6    1    1    2    0  503  0.81052177494E+01  0.27815945975E+03 -0.25194784156E+03  0.41333411965E+03  0.17300000000E+03 0. -1.
</event>
<event>
 4    1  0.6239288E+000  0.1000000E+03  0.7546771E-02  0.1280296E+00
         21   -1    0    0  501  502  0.00000000000E+00  0.00000000000E+00  0.16188871808E+04  0.16188871808E+04  0.00000000000E+00 0. -1.
         21   -1    0    0  502  503 -0.00000000000E+00 -0.00000000000E+00 -0.37518169818E+02  0.37518169818E+02  0.00000000000E+00 0. -1.
          6    1    1    2  501    0 -0.11439649093E+03  0.19430237723E+01  0.12380053884E+04  0.12552596043E+04  0.17300000000E+03 0. -1.
         -6    1    1    2    0  503  0.11439649093E+03 -0.19430237723E+01  0.34336362259E+03  0.40114574633E+03  0.17300000000E+03 0. -1.
</event>
<event>
 4    1  0.6239288E+000  0.1000000E+03  0.7546771E-02  0.1280296E+00
         21   -1    0    0  503  502  0.00000000000E+00  0.00000000000E+00  0.92986858621E+03  0.92986858621E+03  0.00000000000E+00 0. -1.
         21   -1    0    0  501  503 -0.00000000000E+00 -0.00000000000E+00 -0.59738742147E+02  0.59738742147E+02  0.00000000000E+00 0. -1.
          6    1    1    2  501    0 -0.12913943924E+03  0.83182113249E+02  0.34061733716E+03  0.41175894539E+03  0.17300000000E+03 0. -1.
         -6    1    1    2    0  502  0.12913943924E+03 -0.83182113249E+02  0.52951250690E+03  0.57784838296E+03  0.17300000000E+03 0. -1.
</event>
<event>
 4    1  0.6239288E+000  0.1000000E+03  0.7546771E-02  0.1280296E+00
         21   -1    0    0  503  502  0.00000000000E+00  0.00000000000E+00  0.95060936799E+03  0.95060936799E+03  0.00000000000E+00 0. -1.
         21   -1    0    0  501  503 -0.00000000000E+00 -0.00000000000E+00 -0.20624341935E+03  0.20624341935E+03  0.00000000000E+00 0.  1.
          6    1    1    2  501    0 -0.27732459325E+03  0.20071517571E+03  0.83211262538E+02  0.39249028777E+03  0.17300000000E+03 0. -1.
         -6    1    1    2    0  502  0.27732459325E+03 -0.20071517571E+03  0.66115468610E+03  0.76436249956E+03  0.17300000000E+03 0.  1.
</event>
<event>
 4    1  0.6239288E+000  0.1000000E+03  0.7546771E-02  0.1280296E+00
         21   -1    0    0  503  502  0.00000000000E+00  0.00000000000E+00  0.13549700952E+03  0.13549700952E+03  0.00000000000E+00 0.  1.
         21   -1    0    0  501  503 -0.00000000000E+00 -0.00000000000E+00 -0.31597229535E+03  0.31597229535E+03  0.00000000000E+00 0.  1.
          6    1    1    2  501    0  0.37086649749E+01  0.95817117324E+02 -0.15650506915E+03  0.25222511936E+03  0.17300000000E+03 0.  1.
         -6    1    1    2    0  502 -0.37086649749E+01 -0.95817117324E+02 -0.23970216681E+02  0.19924418550E+03  0.17300000000E+03 0.  1.
</event>
<event>
 4    1  0.6239288E+000  0.1000000E+03  0.7546771E-02  0.1280296E+00
         21   -1    0    0  503  502  0.00000000000E+00  0.00000000000E+00  0.34776324528E+03  0.34776324528E+03  0.00000000000E+00 0.  1.
         21   -1    0    0  501  503 -0.00000000000E+00 -0.00000000000E+00 -0.17134371254E+03  0.17134371254E+03  0.00000000000E+00 0.  1.
          6    1    1    2  501    0 -0.16389727367E+02 -0.89740981877E+02  0.24352255265E+03  0.31233683843E+03  0.17300000000E+03 0.  1.
         -6    1    1    2    0  502  0.16389727367E+02  0.89740981877E+02 -0.67103019909E+02  0.20677011939E+03  0.17300000000E+03 0.  1.
</event>
<event>
 4    1  0.6239288E+000  0.1000000E+03  0.7546771E-02  0.1280296E+00
         21   -1    0    0  503  502  0.00000000000E+00  0.00000000000E+00  0.78120859173E+02  0.78120859173E+02  0.00000000000E+00 0.  1.
         21   -1    0    0  501  503 -0.00000000000E+00 -0.00000000000E+00 -0.60738790898E+03  0.60738790898E+03  0.00000000000E+00 0.  1.
          6    1    1    2  501    0 -0.84710093524E+02  0.82952765359E+02 -0.35723903579E+03  0.41425317129E+03  0.17300000000E+03 0.  1.
         -6    1    1    2    0  502  0.84710093524E+02 -0.82952765359E+02 -0.17202801401E+03  0.27125559686E+03  0.17300000000E+03 0.  1.
</event>
<event>
 4    1  0.6239288E+000  0.1000000E+03  0.7546771E-02  0.1280296E+00
         21   -1    0    0  503  502  0.00000000000E+00  0.00000000000E+00  0.10038018638E+03  0.10038018638E+03  0.00000000000E+00 0. -1.
         21   -1    0    0  501  503 -0.00000000000E+00 -0.00000000000E+00 -0.83901384898E+03  0.83901384898E+03  0.00000000000E+00 0. -1.
          6    1    1    2  501    0 -0.18951651009E+03 -0.63445565333E+02 -0.56319455568E+03  0.62214062310E+03  0.17300000000E+03 0. -1.
         -6    1    1    2    0  502  0.18951651009E+03  0.63445565333E+02 -0.17543910691E+03  0.31725341226E+03  0.17300000000E+03 0. -1.
</event>
<event>
 4    1  0.6239288E+000  0.1000000E+03  0.7546771E-02  0.1280296E+00
         21   -1    0    0  501  502  0.00000000000E+00  0.00000000000E+00  0.12515472622E+04  0.12515472622E+04  0.00000000000E+00 0. -1.
         21   -1    0    0  502  503 -0.00000000000E+00 -0.00000000000E+00 -0.33615989899E+02  0.33615989899E+02  0.00000000000E+00 0.  1.
          6    1    1    2  501    0  0.49438845992E+02 -0.54517208833E+02  0.86590576192E+03  0.88608019619E+03  0.17300000000E+03 0. -1.
         -6    1    1    2    0  503 -0.49438845992E+02  0.54517208833E+02  0.35202551034E+03  0.39908305587E+03  0.17300000000E+03 0.  1.
</event>
<event>
 4    1  0.6239288E+000  0.1000000E+03  0.7546771E-02  0.1280296E+00
         21   -1    0    0  501  502  0.00000000000E+00  0.00000000000E+00  0.30504338925E+03  0.30504338925E+03  0.00000000000E+00 0. -1.
         21   -1    0    0  502  503 -0.00000000000E+00 -0.00000000000E+00 -0.22336388270E+03  0.22336388270E+03  0.00000000000E+00 0. -1.
          6    1    1    2  501    0 -0.57578477424E+02 -0.40330263327E+02  0.22544514714E+03  0.29273934750E+03  0.17300000000E+03 0. -1.
         -6    1    1    2    0  503  0.57578477424E+02  0.40330263327E+02 -0.14376564059E+03  0.23566792445E+03  0.17300000000E+03 0. -1.
</event>
<event>
 4    1  0.6239288E+000  0.1000000E+03  0.7546771E-02  0.1280296E+00
         21   -1    0    0  501  502  0.00000000000E+00  0.00000000000E+00  0.22380681196E+03  0.22380681196E+03  0.00000000000E+00 0. -1.
         21   -1    0    0  502  503 -0.00000000000E+00 -0.00000000000E+00 -0.62211977609E+03  0.62211977609E+03  0.00000000000E+00 0. -1.
          6    1    1    2  501    0  0.87620233122E+01  0.79792263747E+02  0.16438723702E+03  0.25178511096E+03  0.17300000000E+03 0. -1.
         -6    1    1    2    0  503 -0.87620233122E+01 -0.79792263747E+02 -0.56270020116E+03  0.59414147708E+03  0.17300000000E+03 0. -1.
</event>
<event>
 4    1  0.6239288E+000  0.1000000E+03  0.7546771E-02  0.1280296E+00
         21   -1    0    0  501  502  0.00000000000E+00  0.00000000000E+00  0.17961707017E+03  0.17961707017E+03  0.00000000000E+00 0. -1.
         21   -1    0    0  502  503 -0.00000000000E+00 -0.00000000000E+00 -0.21313561046E+03  0.21313561046E+03  0.00000000000E+00 0. -1.
          6    1    1    2  501    0 -0.14437777892E+02  0.37164414602E+02 -0.99304881564E+02  0.20342099854E+03  0.17300000000E+03 0. -1.
         -6    1    1    2    0  503  0.14437777892E+02 -0.37164414602E+02  0.65786341276E+02  0.18933168209E+03  0.17300000000E+03 0. -1.
</event>
<event>
 4    1  0.6239288E+000  0.1000000E+03  0.7546771E-02  0.1280296E+00
         21   -1    0    0  501  502  0.00000000000E+00  0.00000000000E+00  0.64570112316E+03  0.64570112316E+03  0.00000000000E+00 0. -1.
         21   -1    0    0  502  503 -0.00000000000E+00 -0.00000000000E+00 -0.61430936225E+02  0.61430936225E+02  0.00000000000E+00 0.  1.
          6    1    1    2  501    0  0.90421468114E+02  0.37321585565E+02  0.26911952893E+03  0.33454934389E+03  0.17300000000E+03 0. -1.
         -6    1    1    2    0  503 -0.90421468114E+02 -0.37321585565E+02  0.31515065801E+03  0.37258271550E+03  0.17300000000E+03 0. -1.
</event>
<event>
 4    1  0.6239288E+000  0.1000000E+03  0.7546771E-02  0.1280296E+00
         21   -1    0    0  501  502  0.00000000000E+00  0.00000000000E+00  0.24815883502E+03  0.24815883502E+03  0.00000000000E+00 0. -1.
         21   -1    0    0  502  503 -0.00000000000E+00 -0.00000000000E+00 -0.37745541722E+03  0.37745541722E+03  0.00000000000E+00 0.  1.
          6    1    1    2  501    0 -0.78569731722E+02 -0.19269045989E+03  0.81464542827E+02  0.28260978011E+03  0.17300000000E+03 0. -1.
         -6    1    1    2    0  503  0.78569731722E+02  0.19269045989E+03 -0.21076112503E+03  0.34300447213E+03  0.17300000000E+03 0. -1.
</event>
<event>
 4    1  0.6239288E+000  0.1000000E+03  0.7546771E-02  0.1280296E+00
         21   -1    0    0  501  502  0.00000000000E+00  0.00000000000E+00  0.16629437256E+03  0.16629437256E+03  0.00000000000E+00 0. -1.
         21   -1    0    0  502  503 -0.00000000000E+00 -0.00000000000E+00 -0.44577727089E+03  0.44577727089E+03  0.00000000000E+00 0. -1.
          6    1    1    2  501    0  0.78356580256E+02  0.14722504544E+03  0.41433001070E+01  0.24033546266E+03  0.17300000000E+03 0. -1.
         -6    1    1    2    0  503 -0.78356580256E+02 -0.14722504544E+03 -0.28362619844E+03  0.37173618080E+03  0.17300000000E+03 0. -1.
</event>
<event>
 4    1  0.6239288E+000  0.1000000E+03  0.7546771E-02  0.1280296E+00
         21   -1    0    0  503  502  0.00000000000E+00  0.00000000000E+00  0.13257448717E+02  0.13257448717E+02  0.00000000000E+00 0. -1.
         21   -1    0    0  501  503 -0.00000000000E+00 -0.00000000000E+00 -0.26719926646E+04  0.26719926646E+04  0.00000000000E+00 0. -1.
          6    1    1    2  501    0  0.46572580490E+02 -0.26096357998E+02 -0.96250625610E+03  0.97938619460E+03  0.17300000000E+03 0. -1.
         -6    1    1    2    0  502 -0.46572580490E+02  0.26096357998E+02 -0.16962289597E+04  0.17058639187E+04  0.17300000000E+03 0. -1.
</event>
<event>
 4    1  0.6239288E+000  0.1000000E+03  0.7546771E-02  0.1280296E+00
         21   -1    0    0  503  502  0.00000000000E+00  0.00000000000E+00  0.62915446476E+03  0.62915446476E+03  0.00000000000E+00 0. -1.
         21   -1    0    0  501  503 -0.00000000000E+00 -0.00000000000E+00 -0.89659511632E+02  0.89659511632E+02  0.00000000000E+00 0. -1.
          6    1    1    2  501    0  0.90740761010E+02 -0.11189323925E+03  0.15523260695E+03  0.27345958560E+03  0.17300000000E+03 0. -1.
         -6    1    1    2    0  502 -0.90740761010E+02  0.11189323925E+03  0.38426234618E+03  0.44535439078E+03  0.17300000000E+03 0. -1.
</event>
<event>
 4    1  0.6239288E+000  0.1000000E+03  0.7546771E-02  0.1280296E+00
         21   -1    0    0  503  502  0.00000000000E+00  0.00000000000E+00  0.27390289133E+03  0.27390289133E+03  0.00000000000E+00 0.  1.
         21   -1    0    0  501  503 -0.00000000000E+00 -0.00000000000E+00 -0.21008672987E+03  0.21008672987E+03  0.00000000000E+00 0. -1.
          6    1    1    2  501    0  0.14651890747E+03  0.69820107686E+02  0.67883432428E+02  0.24673831904E+03  0.17300000000E+03 0. -1.
         -6    1    1    2    0  502 -0.14651890747E+03 -0.69820107686E+02 -0.40672709688E+01  0.23725130216E+03  0.17300000000E+03 0.  1.
</event>
<event>
 4    1  0.6239288E+000  0.1000000E+03  0.7546771E-02  0.1280296E+00
         21   -1    0    0  503  502  0.00000000000E+00  0.00000000000E+00  0.12385618644E+03  0.12385618644E+03  0.00000000000E+00 0.  1.
         21   -1    0    0  501  503 -0.00000000000E+00 -0.00000000000E+00 -0.34211861412E+03  0.34211861412E+03  0.00000000000E+00 0. -1.
          6    1    1    2  501    0 -0.44242000236E+01  0.30302553568E+02 -0.23054287767E+03  0.28985657961E+03  0.17300000000E+03 0. -1.
         -6    1    1    2    0  502  0.44242000236E+01 -0.30302553568E+02  0.12280449988E+02  0.17611822095E+03  0.17300000000E+03 0.  1.
</event>
<event>
 4    1  0.6239288E+000  0.1000000E+03  0.7546771E-02  0.1280296E+00
         21   -1    0    0  503  502  0.00000000000E+00  0.00000000000E+00  0.71616345366E+02  0.71616345366E+02  0.00000000000E+00 0. -1.
         21   -1    0    0  501  503 -0.00000000000E+00 -0.00000000000E+00 -0.60957034210E+03  0.60957034210E+03  0.00000000000E+00 0.  1.
          6    1    1    2  501    0 -0.48210452719E+02  0.10665705367E+03 -0.27732491992E+03  0.34718595314E+03  0.17300000000E+03 0.  1.
         -6    1    1    2    0  502  0.48210452719E+02 -0.10665705367E+03 -0.26062907681E+03  0.33400073433E+03  0.17300000000E+03 0. -1.
</event>
<event>
 4    1  0.6239288E+000  0.1000000E+03  0.7546771E-02  0.1280296E+00
         21   -1    0    0  501  502  0.00000000000E+00  0.00000000000E+00  0.98226975878E+02  0.98226975878E+02  0.00000000000E+00 0. -1.
         21   -1    0    0  502  503 -0.00000000000E+00 -0.00000000000E+00 -0.40948644069E+03  0.40948644069E+03  0.00000000000E+00 0. -1.
          6    1    1    2  501    0 -0.34217850147E+02  0.73788529846E+01 -0.35093787209E+02  0.17996078084E+03  0.17300000000E+03 0. -1.
         -6    1    1    2    0  503  0.34217850147E+02 -0.73788529846E+01 -0.27616567760E+03  0.32775263573E+03  0.17300000000E+03 0. -1.
</event>
<event>
 4    1  0.6239288E+000  0.1000000E+03  0.7546771E-02  0.1280296E+00
         21   -1    0    0  503  502  0.00000000000E+00  0.00000000000E+00  0.98593970151E+02  0.98593970151E+02  0.00000000000E+00 0.  1.
         21   -1    0    0  501  503 -0.00000000000E+00 -0.00000000000E+00 -0.36853467193E+03  0.36853467193E+03  0.00000000000E+00 0.  1.
          6    1    1    2  501    0  0.30161082360E+02  0.39735110223E+02 -0.21166396580E+03  0.27788343652E+03  0.17300000000E+03 0.  1.
         -6    1    1    2    0  502 -0.30161082360E+02 -0.39735110223E+02 -0.58276735989E+02  0.18924520557E+03  0.17300000000E+03 0.  1.
</event>
<event>
 4    1  0.6239288E+000  0.1000000E+03  0.7546771E-02  0.1280296E+00
         21   -1    0    0  501  502  0.00000000000E+00  0.00000000000E+00  0.18721566240E+03  0.18721566240E+03  0.00000000000E+00 0. -1.
         21   -1    0    0  502  503 -0.00000000000E+00 -0.00000000000E+00 -0.22941565243E+03  0.22941565243E+03  0.00000000000E+00 0. -1.
          6    1    1    2  501    0 -0.61552779351E+02 -0.91341168625E+02 -0.51074439383E+02  0.21135172602E+03  0.17300000000E+03 0. -1.
         -6    1    1    2    0  503  0.61552779351E+02  0.91341168625E+02  0.88744493538E+01  0.20527958881E+03  0.17300000000E+03 0. -1.
</event>
<event>
 4    1  0.6239288E+000  0.1000000E+03  0.7546771E-02  0.1280296E+00
         21   -1    0    0  501  502  0.00000000000E+00  0.00000000000E+00  0.81877629505E+03  0.81877629505E+03  0.00000000000E+00 0. -1.
         21   -1    0    0  502  503 -0.00000000000E+00 -0.00000000000E+00 -0.10527300991E+03  0.10527300991E+03  0.00000000000E+00 0. -1.
          6    1    1    2  501    0  0.16028880441E+02 -0.59717584653E+02  0.71713727865E+03  0.74029588095E+03  0.17300000000E+03 0. -1.
         -6    1    1    2    0  503 -0.16028880441E+02  0.59717584653E+02 -0.36339935179E+01  0.18375342401E+03  0.17300000000E+03 0. -1.
</event>
<event>
 4    1  0.6239288E+000  0.1000000E+03  0.7546771E-02  0.1280296E+00
         21   -1    0    0  501  502  0.00000000000E+00  0.00000000000E+00  0.21260249412E+03  0.21260249412E+03  0.00000000000E+00 0. -1.
         21   -1    0    0  502  503 -0.00000000000E+00 -0.00000000000E+00 -0.43989114724E+03  0.43989114724E+03  0.00000000000E+00 0.  1.
          6    1    1    2  501    0 -0.19591053036E+03  0.75421892720E+01  0.55556633006E+02  0.26730761305E+03  0.17300000000E+03 0.  1.
         -6    1    1    2    0  503  0.19591053036E+03 -0.75421892720E+01 -0.28284528612E+03  0.38518602831E+03  0.17300000000E+03 0. -1.
</event>
<event>
 4    1  0.6239288E+000  0.1000000E+03  0.7546771E-02  0.1280296E+00
         21   -1    0    0  503  502  0.00000000000E+00  0.00000000000E+00  0.37211168786E+02  0.37211168786E+02  0.00000000000E+00 0.  1.
         21   -1    0    0  501  503 -0.00000000000E+00 -0.00000000000E+00 -0.12713972328E+04  0.12713972328E+04  0.00000000000E+00 0.  1.
          6    1    1    2  501    0 -0.26004325231E+02  0.12901363158E+03 -0.59370753845E+03  0.63224867203E+03  0.17300000000E+03 0.  1.
         -6    1    1    2    0  502  0.26004325231E+02 -0.12901363158E+03 -0.64047852561E+03  0.67635972960E+03  0.17300000000E+03 0.  1.
</event>
<event>
 4    1  0.6239288E+000  0.1000000E+03  0.7546771E-02  0.1280296E+00
         21   -1    0    0  503  502  0.00000000000E+00  0.00000000000E+00  0.55199328936E+03  0.55199328936E+03  0.00000000000E+00 0. -1.
         21   -1    0    0  501  503 -0.00000000000E+00 -0.00000000000E+00 -0.80921542509E+02  0.80921542509E+02  0.00000000000E+00 0. -1.
          6    1    1    2  501    0 -0.89516757799E+02  0.79532175907E+02  0.20556946878E+03  0.29415374114E+03  0.17300000000E+03 0. -1.
         -6    1    1    2    0  502  0.89516757799E+02 -0.79532175907E+02  0.26550227806E+03  0.33876109072E+03  0.17300000000E+03 0. -1.
</event>
<event>
 4    1  0.6239288E+000  0.1000000E+03  0.7546771E-02  0.1280296E+00
         21   -1    0    0  503  502  0.00000000000E+00  0.00000000000E+00  0.21514421373E+03  0.21514421373E+03  0.00000000000E+00 0. -1.
         21   -1    0    0  501  503 -0.00000000000E+00 -0.00000000000E+00 -0.61012113939E+03  0.61012113939E+03  0.00000000000E+00 0. -1.
          6    1    1    2  501    0 -0.93104897318E+02  0.11372931425E+03 -0.51908213438E+03  0.56654932800E+03  0.17300000000E+03 0. -1.
         -6    1    1    2    0  502  0.93104897318E+02 -0.11372931425E+03  0.12410520871E+03  0.25871602512E+03  0.17300000000E+03 0. -1.
</event>
<event>
 4    1  0.6239288E+000  0.1000000E+03  0.7546771E-02  0.1280296E+00
         21   -1    0    0  503  502  0.00000000000E+00  0.00000000000E+00  0.57909466174E+03  0.57909466174E+03  0.00000000000E+00 0. -1.
         21   -1    0    0  501  503 -0.00000000000E+00 -0.00000000000E+00 -0.15552826783E+03  0.15552826783E+03  0.00000000000E+00 0.  1.
          6    1    1    2  501    0 -0.20937942485E+03  0.11136149605E+03  0.13539353394E+03  0.32326697231E+03  0.17300000000E+03 0.  1.
         -6    1    1    2    0  502  0.20937942485E+03 -0.11136149605E+03  0.28817285997E+03  0.41135595726E+03  0.17300000000E+03 0. -1.
</event>
<event>
 4    1  0.6239288E+000  0.1000000E+03  0.7546771E-02  0.1280296E+00
         21   -1    0    0  503  502  0.00000000000E+00  0.00000000000E+00  0.72389429573E+03  0.72389429573E+03  0.00000000000E+00 0. -1.
         21   -1    0    0  501  503 -0.00000000000E+00 -0.00000000000E+00 -0.23212688831E+03  0.23212688831E+03  0.00000000000E+00 0.  1.
          6    1    1    2  501    0 -0.79210239339E+02 -0.20529056176E+03 -0.10334025675E+03  0.29837339933E+03  0.17300000000E+03 0.  1.
         -6    1    1    2    0  502  0.79210239339E+02  0.20529056176E+03  0.59510766417E+03  0.65764778470E+03  0.17300000000E+03 0. -1.
</event>
<event>
 4    1  0.6239288E+000  0.1000000E+03  0.7546771E-02  0.1280296E+00
         21   -1    0    0  501  502  0.00000000000E+00  0.00000000000E+00  0.86112972764E+03  0.86112972764E+03  0.00000000000E+00 0. -1.
         21   -1    0    0  502  503 -0.00000000000E+00 -0.00000000000E+00 -0.53854580172E+02  0.53854580172E+02  0.00000000000E+00 0. -1.
          6    1    1    2  501    0  0.48480083901E+02  0.77245490660E+02  0.59518331826E+03  0.62648971795E+03  0.17300000000E+03 0. -1.
         -6    1    1    2    0  503 -0.48480083901E+02 -0.77245490660E+02  0.21209182921E+03  0.28849458986E+03  0.17300000000E+03 0. -1.
</event>
<event>
 4    1  0.6239288E+000  0.1000000E+03  0.7546771E-02  0.1280296E+00
         21   -1    0    0  501  502  0.00000000000E+00  0.00000000000E+00  0.19581175283E+03  0.19581175283E+03  0.00000000000E+00 0. -1.
         21   -1    0    0  502  503 -0.00000000000E+00 -0.00000000000E+00 -0.31945915428E+03  0.31945915428E+03  0.00000000000E+00 0. -1.
          6    1    1    2  501    0 -0.10308632390E+03  0.13927589621E+03 -0.11435154767E+03  0.27024034098E+03  0.17300000000E+03 0. -1.
         -6    1    1    2    0  503  0.10308632390E+03 -0.13927589621E+03 -0.92958537744E+01  0.24503056613E+03  0.17300000000E+03 0. -1.
</event>
<event>
 4    1  0.6239288E+000  0.1000000E+03  0.7546771E-02  0.1280296E+00
         21   -1    0    0  501  502  0.00000000000E+00  0.00000000000E+00  0.55676116094E+02  0.55676116094E+02  0.00000000000E+00 0. -1.
         21   -1    0    0  502  503 -0.00000000000E+00 -0.00000000000E+00 -0.96887366832E+03  0.96887366832E+03  0.00000000000E+00 0. -1.
          6    1    1    2  501    0 -0.41426547611E+02 -0.63250443132E+02 -0.15824669481E+03  0.24634892697E+03  0.17300000000E+03 0.  1.
         -6    1    1    2    0  503  0.41426547611E+02  0.63250443132E+02 -0.75495085742E+03  0.77820085744E+03  0.17300000000E+03 0.  1.
</event>
<event>
 4    1  0.6239288E+000  0.1000000E+03  0.7546771E-02  0.1280296E+00
         21   -1    0    0  501  502  0.00000000000E+00  0.00000000000E+00  0.14262784711E+04  0.14262784711E+04  0.00000000000E+00 0. -1.
         21   -1    0    0  502  503 -0.00000000000E+00 -0.00000000000E+00 -0.17037494567E+03  0.17037494567E+03  0.00000000000E+00 0. -1.
          6    1    1    2  501    0  0.13756617337E+03  0.31567925030E+03  0.11257813212E+04  0.11899119398E+04  0.17300000000E+03 0.  1.
         -6    1    1    2    0  503 -0.13756617337E+03 -0.31567925030E+03  0.13012220423E+03  0.40674147706E+03  0.17300000000E+03 0.  1.
</event>
<event>
 4    1  0.6239288E+000  0.1000000E+03  0.7546771E-02  0.1280296E+00
         21   -1    0    0  503  502  0.00000000000E+00  0.00000000000E+00  0.31826341670E+03  0.31826341670E+03  0.00000000000E+00 0. -1.
         21   -1    0    0  501  503 -0.00000000000E+00 -0.00000000000E+00 -0.10874972916E+03  0.10874972916E+03  0.00000000000E+00 0. -1.
          6    1    1    2  501    0  0.50783575049E+02 -0.93894069706E+01  0.53241861654E+02  0.18823078465E+03  0.17300000000E+03 0. -1.
         -6    1    1    2    0  502 -0.50783575049E+02  0.93894069706E+01  0.15627182589E+03  0.23878236121E+03  0.17300000000E+03 0. -1.
</event>
<event>
 4    1  0.6239288E+000  0.1000000E+03  0.7546771E-02  0.1280296E+00
         21   -1    0    0  503  502  0.00000000000E+00  0.00000000000E+00  0.22800828290E+03  0.22800828290E+03  0.00000000000E+00 0.  1.
         21   -1    0    0  501  503 -0.00000000000E+00 -0.00000000000E+00 -0.24571880281E+03  0.24571880281E+03  0.00000000000E+00 0.  1.
          6    1    1    2  501    0  0.15462999735E+02 -0.10976577468E+03 -0.12645041534E+03  0.24125989553E+03  0.17300000000E+03 0.  1.
         -6    1    1    2    0  502 -0.15462999735E+02  0.10976577468E+03  0.10873989543E+03  0.23246719018E+03  0.17300000000E+03 0.  1.
</event>
<event>
 4    1  0.6239288E+000  0.1000000E+03  0.7546771E-02  0.1280296E+00
         21   -1    0    0  501  502  0.00000000000E+00  0.00000000000E+00  0.66770596628E+02  0.66770596628E+02  0.00000000000E+00 0. -1.
         21   -1    0    0  502  503 -0.00000000000E+00 -0.00000000000E+00 -0.95594446784E+03  0.95594446784E+03  0.00000000000E+00 0.  1.
          6    1    1    2  501    0  0.10334964662E+03 -0.11439545789E+02 -0.13704200718E+03  0.24397033507E+03  0.17300000000E+03 0. -1.
         -6    1    1    2    0  503 -0.10334964662E+03  0.11439545789E+02 -0.75213186403E+03  0.77874472939E+03  0.17300000000E+03 0.  1.
</event>
<event>
 4    1  0.6239288E+000  0.1000000E+03  0.7546771E-02  0.1280296E+00
         21   -1    0    0  501  502  0.00000000000E+00  0.00000000000E+00  0.82985132731E+02  0.82985132731E+02  0.00000000000E+00 0. -1.
         21   -1    0    0  502  503 -0.00000000000E+00 -0.00000000000E+00 -0.47817946465E+03  0.47817946465E+03  0.00000000000E+00 0.  1.
          6    1    1    2  501    0 -0.71892524129E+02 -0.66488599194E+02 -0.17958579487E+03  0.26789797791E+03  0.17300000000E+03 0. -1.
         -6    1    1    2    0  503  0.71892524129E+02  0.66488599194E+02 -0.21560853705E+03  0.29326661948E+03  0.17300000000E+03 0.  1.
</event>
<event>
 4    1  0.6239288E+000  0.1000000E+03  0.7546771E-02  0.1280296E+00
         21   -1    0    0  501  502  0.00000000000E+00  0.00000000000E+00  0.16230659976E+03  0.16230659976E+03  0.00000000000E+00 0. -1.
         21   -1    0    0  502  503 -0.00000000000E+00 -0.00000000000E+00 -0.22105428454E+03  0.22105428454E+03  0.00000000000E+00 0. -1.
          6    1    1    2  501    0  0.48874543231E+00  0.37436345537E+02  0.38869978052E+02  0.18122249869E+03  0.17300000000E+03 0. -1.
         -6    1    1    2    0  503 -0.48874543231E+00 -0.37436345537E+02 -0.97617662833E+02  0.20213838561E+03  0.17300000000E+03 0. -1.
</event>
<event>
 4    1  0.6239288E+000  0.1000000E+03  0.7546771E-02  0.1280296E+00
         21   -1    0    0  501  502  0.00000000000E+00  0.00000000000E+00  0.72290133873E+03  0.72290133873E+03  0.00000000000E+00 0. -1.
         21   -1    0    0  502  503 -0.00000000000E+00 -0.00000000000E+00 -0.52042218130E+02  0.52042218130E+02  0.00000000000E+00 0. -1.
          6    1    1    2  501    0  0.41843804212E+02  0.62926812135E+02  0.42435822751E+03  0.46445623356E+03  0.17300000000E+03 0. -1.
         -6    1    1    2    0  503 -0.41843804212E+02 -0.62926812135E+02  0.24650089309E+03  0.31048732330E+03  0.17300000000E+03 0. -1.
</event>
<event>
 4    1  0.6239288E+000  0.1000000E+03  0.7546771E-02  0.1280296E+00
         21   -1    0    0  501  502  0.00000000000E+00  0.00000000000E+00  0.13280981689E+03  0.13280981689E+03  0.00000000000E+00 0. -1.
         21   -1    0    0  502  503 -0.00000000000E+00 -0.00000000000E+00 -0.24666173456E+03  0.24666173456E+03  0.00000000000E+00 0. -1.
          6    1    1    2  501    0 -0.28696029520E+02  0.30561226359E+02 -0.22592932168E+02  0.17943492205E+03  0.17300000000E+03 0. -1.
         -6    1    1    2    0  503  0.28696029520E+02 -0.30561226359E+02 -0.91258985506E+02  0.20003662940E+03  0.17300000000E+03 0. -1.
</event>
<event>
 4    1  0.6239288E+000  0.1000000E+03  0.7546771E-02  0.1280296E+00
         21   -1    0    0  501  502  0.00000000000E+00  0.00000000000E+00  0.11279470540E+03  0.11279470540E+03  0.00000000000E+00 0. -1.
         21   -1    0    0  502  503 -0.00000000000E+00 -0.00000000000E+00 -0.34244203888E+03  0.34244203888E+03  0.00000000000E+00 0.  1.
          6    1    1    2  501    0  0.47774634787E+02  0.28942080057E+02 -0.20131124650E+03  0.27124763169E+03  0.17300000000E+03 0. -1.
         -6    1    1    2    0  503 -0.47774634787E+02 -0.28942080057E+02 -0.28336086973E+02  0.18398911259E+03  0.17300000000E+03 0.  1.
</event>
<event>
 4    1  0.6239288E+000  0.1000000E+03  0.7546771E-02  0.1280296E+00
         21   -1    0    0  501  502  0.00000000000E+00  0.00000000000E+00  0.39272034020E+03  0.39272034020E+03  0.00000000000E+00 0. -1.
         21   -1    0    0  502  503 -0.00000000000E+00 -0.00000000000E+00 -0.81805647812E+02  0.81805647812E+02  0.00000000000E+00 0.  1.
          6    1    1    2  501    0  0.40185843702E+02 -0.22721468407E+02  0.14465666358E+03  0.23018626692E+03  0.17300000000E+03 0. -1.
         -6    1    1    2    0  503 -0.40185843702E+02  0.22721468407E+02  0.16625802881E+03  0.24433972109E+03  0.17300000000E+03 0.  1.
</event>
<event>
 4    1  0.6239288E+000  0.1000000E+03  0.7546771E-02  0.1280296E+00
         21   -1    0    0  503  502  0.00000000000E+00  0.00000000000E+00  0.22165347599E+03  0.22165347599E+03  0.00000000000E+00 0.  1.
         21   -1    0    0  501  503 -0.00000000000E+00 -0.00000000000E+00 -0.55837204954E+03  0.55837204954E+03  0.00000000000E+00 0. -1.
          6    1    1    2  501    0  0.38036019015E+02  0.28751785619E+03 -0.27767346340E+03  0.43720110778E+03  0.17300000000E+03 0. -1.
         -6    1    1    2    0  502 -0.38036019015E+02 -0.28751785619E+03 -0.59045110149E+02  0.34282441775E+03  0.17300000000E+03 0.  1.
</event>
<event>
 4    1  0.6239288E+000  0.1000000E+03  0.7546771E-02  0.1280296E+00
         21   -1    0    0  503  502  0.00000000000E+00  0.00000000000E+00  0.23423819743E+03  0.23423819743E+03  0.00000000000E+00 0.  1.
         21   -1    0    0  501  503 -0.00000000000E+00 -0.00000000000E+00 -0.27256385065E+03  0.27256385065E+03  0.00000000000E+00 0. -1.
          6    1    1    2  501    0 -0.16313054982E+03  0.57936842140E+02  0.43847620262E+02  0.24863601462E+03  0.17300000000E+03 0. -1.
         -6    1    1    2    0  502  0.16313054982E+03 -0.57936842140E+02 -0.82173273480E+02  0.25816603347E+03  0.17300000000E+03 0.  1.
</event>
<event>
 4    1  0.6239288E+000  0.1000000E+03  0.7546771E-02  0.1280296E+00
         21   -1    0    0  503  502  0.00000000000E+00  0.00000000000E+00  0.46703286198E+03  0.46703286198E+03  0.00000000000E+00 0.  1.
         21   -1    0    0  501  503 -0.00000000000E+00 -0.00000000000E+00 -0.24276752079E+03  0.24276752079E+03  0.00000000000E+00 0. -1.
          6    1    1    2  501    0 -0.10264203114E+03 -0.26920029394E+03  0.13442217249E+03  0.36194268230E+03  0.17300000000E+03 0. -1.
         -6    1    1    2    0  502  0.10264203114E+03  0.26920029394E+03  0.89843168697E+02  0.34785770047E+03  0.17300000000E+03 0.  1.
</event>
<event>
 4    1  0.6239288E+000  0.1000000E+03  0.7546771E-02  0.1280296E+00
         21   -1    0    0  503  502  0.00000000000E+00  0.00000000000E+00  0.11933245102E+04  0.11933245102E+04  0.00000000000E+00 0. -1.
         21   -1    0    0  501  503 -0.00000000000E+00 -0.00000000000E+00 -0.42171946155E+02  0.42171946155E+02  0.00000000000E+00 0. -1.
          6    1    1    2  501    0  0.12068953380E+03  0.73328945069E+02  0.51698474629E+03  0.56315657294E+03  0.17300000000E+03 0. -1.
         -6    1    1    2    0  502 -0.12068953380E+03 -0.73328945069E+02  0.63416781778E+03  0.67233988344E+03  0.17300000000E+03 0. -1.
</event>
<event>
 4    1  0.6239288E+000  0.1000000E+03  0.7546771E-02  0.1280296E+00
         21   -1    0    0  503  502  0.00000000000E+00  0.00000000000E+00  0.16197308158E+03  0.16197308158E+03  0.00000000000E+00 0. -1.
         21   -1    0    0  501  503 -0.00000000000E+00 -0.00000000000E+00 -0.23212794175E+03  0.23212794175E+03  0.00000000000E+00 0. -1.
          6    1    1    2  501    0 -0.33120569050E+02 -0.21329442976E+02 -0.11456177181E+03  0.21119970831E+03  0.17300000000E+03 0. -1.
         -6    1    1    2    0  502  0.33120569050E+02  0.21329442976E+02  0.44406911636E+02  0.18290131501E+03  0.17300000000E+03 0. -1.
</event>
<event>
 4    1  0.6239288E+000  0.1000000E+03  0.7546771E-02  0.1280296E+00
         21   -1    0    0  503  502  0.00000000000E+00  0.00000000000E+00  0.31262409031E+03  0.31262409031E+03  0.00000000000E+00 0. -1.
         21   -1    0    0  501  503 -0.00000000000E+00 -0.00000000000E+00 -0.11263063863E+03  0.11263063863E+03  0.00000000000E+00 0. -1.
          6    1    1    2  501    0  0.20656804869E+02 -0.33673508903E+02  0.30871701287E+02  0.18011849080E+03  0.17300000000E+03 0.  1.
         -6    1    1    2    0  502 -0.20656804869E+02  0.33673508903E+02  0.16912175040E+03  0.24513623814E+03  0.17300000000E+03 0.  1.
</event>
<event>
 4    1  0.6239288E+000  0.1000000E+03  0.7546771E-02  0.1280296E+00
         21   -1    0    0  503  502  0.00000000000E+00  0.00000000000E+00  0.11165652626E+03  0.11165652626E+03  0.00000000000E+00 0. -1.
         21   -1    0    0  501  503 -0.00000000000E+00 -0.00000000000E+00 -0.65604146814E+03  0.65604146814E+03  0.00000000000E+00 0. -1.
          6    1    1    2  501    0  0.13720300677E+03 -0.10258854686E+03 -0.43984156524E+03  0.50273121797E+03  0.17300000000E+03 0. -1.
         -6    1    1    2    0  502 -0.13720300677E+03  0.10258854686E+03 -0.10454337664E+03  0.26496677643E+03  0.17300000000E+03 0. -1.
</event>
<event>
 4    1  0.6239288E+000  0.1000000E+03  0.7546771E-02  0.1280296E+00
         21   -1    0    0  501  502  0.00000000000E+00  0.00000000000E+00  0.96184013858E+02  0.96184013858E+02  0.00000000000E+00 0. -1.
         21   -1    0    0  502  503 -0.00000000000E+00 -0.00000000000E+00 -0.51061863727E+03  0.51061863727E+03  0.00000000000E+00 0. -1.
          6    1    1    2  501    0  0.72176839831E+02 -0.62774082895E+02 -0.70078446638E+02  0.20973809948E+03  0.17300000000E+03 0. -1.
         -6    1    1    2    0  503 -0.72176839831E+02  0.62774082895E+02 -0.34435617677E+03  0.39706455164E+03  0.17300000000E+03 0. -1.
</event>
<event>
 4    1  0.6239288E+000  0.1000000E+03  0.7546771E-02  0.1280296E+00
         21   -1    0    0  501  502  0.00000000000E+00  0.00000000000E+00  0.13539303683E+03  0.13539303683E+03  0.00000000000E+00 0. -1.
         21   -1    0    0  502  503 -0.00000000000E+00 -0.00000000000E+00 -0.25632458137E+03  0.25632458137E+03  0.00000000000E+00 0. -1.
          6    1    1    2  501    0  0.14668501546E+02  0.85018809965E+01  0.99681510794E+01  0.17411436171E+03  0.17300000000E+03 0. -1.
         -6    1    1    2    0  503 -0.14668501546E+02 -0.85018809965E+01 -0.13089969562E+03  0.21760325648E+03  0.17300000000E+03 0. -1.
</event>
<event>
 4    1  0.6239288E+000  0.1000000E+03  0.7546771E-02  0.1280296E+00
         21   -1    0    0  501  502  0.00000000000E+00  0.00000000000E+00  0.45218775846E+02  0.45218775846E+02  0.00000000000E+00 0. -1.
         21   -1    0    0  502  503 -0.00000000000E+00 -0.00000000000E+00 -0.18743354902E+04  0.18743354902E+04  0.00000000000E+00 0. -1.
          6    1    1    2  501    0  0.11002101411E+02  0.14719729878E+02 -0.14500361331E+03  0.22647905986E+03  0.17300000000E+03 0. -1.
         -6    1    1    2    0  503 -0.11002101411E+02 -0.14719729878E+02 -0.16841131010E+04  0.16930752062E+04  0.17300000000E+03 0. -1.
</event>
<event>
 4    1  0.6239288E+000  0.1000000E+03  0.7546771E-02  0.1280296E+00
         21   -1    0    0  501  502  0.00000000000E+00  0.00000000000E+00  0.72784600752E+03  0.72784600752E+03  0.00000000000E+00 0. -1.
         21   -1    0    0  502  503 -0.00000000000E+00 -0.00000000000E+00 -0.10092691893E+03  0.10092691893E+03  0.00000000000E+00 0. -1.
          6    1    1    2  501    0 -0.71052773676E+01  0.16483675008E+03  0.50870945845E+03  0.56208180210E+03  0.17300000000E+03 0. -1.
         -6    1    1    2    0  503  0.71052773676E+01 -0.16483675008E+03  0.11820963015E+03  0.26669112435E+03  0.17300000000E+03 0. -1.
</event>
<event>
 4    1  0.6239288E+000  0.1000000E+03  0.7546771E-02  0.1280296E+00
         21   -1    0    0  503  502  0.00000000000E+00  0.00000000000E+00  0.58774497360E+03  0.58774497360E+03  0.00000000000E+00 0.  1.
         21   -1    0    0  501  503 -0.00000000000E+00 -0.00000000000E+00 -0.58967649370E+03  0.58967649370E+03  0.00000000000E+00 0.  1.
          6    1    1    2  501    0  0.19658889080E+03  0.61627739691E+01 -0.52819054275E+03  0.58957562808E+03  0.17300000000E+03 0.  1.
         -6    1    1    2    0  502 -0.19658889080E+03 -0.61627739691E+01  0.52625902265E+03  0.58784583922E+03  0.17300000000E+03 0.  1.
</event>
<event>
 4    1  0.6239288E+000  0.1000000E+03  0.7546771E-02  0.1280296E+00
         21   -1    0    0  503  502  0.00000000000E+00  0.00000000000E+00  0.70811209763E+03  0.70811209763E+03  0.00000000000E+00 0.  1.
         21   -1    0    0  501  503 -0.00000000000E+00 -0.00000000000E+00 -0.10761988072E+03  0.10761988072E+03  0.00000000000E+00 0.  1.
          6    1    1    2  501    0 -0.19855319507E+03  0.82149016312E+02  0.28502686994E+03  0.39666251240E+03  0.17300000000E+03 0.  1.
         -6    1    1    2    0  502  0.19855319507E+03 -0.82149016312E+02  0.31546534697E+03  0.41906946595E+03  0.17300000000E+03 0.  1.
</event>
<event>
 4    1  0.6239288E+000  0.1000000E+03  0.7546771E-02  0.1280296E+00
         21   -1    0    0  501  502  0.00000000000E+00  0.00000000000E+00  0.15163591784E+03  0.15163591784E+03  0.00000000000E+00 0. -1.
         21   -1    0    0  502  503 -0.00000000000E+00 -0.00000000000E+00 -0.28252027631E+03  0.28252027631E+03  0.00000000000E+00 0.  1.
          6    1    1    2  501    0  0.71621631699E+02 -0.41554855706E+02  0.16166907968E+02  0.19247553890E+03  0.17300000000E+03 0.  1.
         -6    1    1    2    0  503 -0.71621631699E+02  0.41554855706E+02 -0.14705126644E+03  0.24168065525E+03  0.17300000000E+03 0.  1.
</event>
<event>
 4    1  0.6239288E+000  0.1000000E+03  0.7546771E-02  0.1280296E+00
         21   -1    0    0  501  502  0.00000000000E+00  0.00000000000E+00  0.43749293237E+03  0.43749293237E+03  0.00000000000E+00 0. -1.
         21   -1    0    0  502  503 -0.00000000000E+00 -0.00000000000E+00 -0.14704239385E+03  0.14704239385E+03  0.00000000000E+00 0.  1.
          6    1    1    2  501    0 -0.25251790937E+02  0.14446683839E+03  0.14383714514E+02  0.22725362831E+03  0.17300000000E+03 0.  1.
         -6    1    1    2    0  503  0.25251790937E+02 -0.14446683839E+03  0.27606682401E+03  0.35728169791E+03  0.17300000000E+03 0.  1.
</event>
<event>
 4    1  0.6239288E+000  0.1000000E+03  0.7546771E-02  0.1280296E+00
         21   -1    0    0  501  502  0.00000000000E+00  0.00000000000E+00  0.19611076433E+04  0.19611076433E+04  0.00000000000E+00 0. -1.
         21   -1    0    0  502  503 -0.00000000000E+00 -0.00000000000E+00 -0.35532945945E+02  0.35532945945E+02  0.00000000000E+00 0.  1.
          6    1    1    2  501    0 -0.19869094589E+03 -0.79059258901E+01  0.10181543980E+04  0.10517166795E+04  0.17300000000E+03 0.  1.
         -6    1    1    2    0  503  0.19869094589E+03  0.79059258901E+01  0.90742029931E+03  0.94492390976E+03  0.17300000000E+03 0.  1.
</event>
<event>
 4    1  0.6239288E+000  0.1000000E+03  0.7546771E-02  0.1280296E+00
         21   -1    0    0  501  502  0.00000000000E+00  0.00000000000E+00  0.27692160972E+03  0.27692160972E+03  0.00000000000E+00 0. -1.
         21   -1    0    0  502  503 -0.00000000000E+00 -0.00000000000E+00 -0.26995469797E+03  0.26995469797E+03  0.00000000000E+00 0.  1.
          6    1    1    2  501    0  0.14979707928E+03  0.60939101602E+02  0.14014940522E+03  0.27517920497E+03  0.17300000000E+03 0.  1.
         -6    1    1    2    0  503 -0.14979707928E+03 -0.60939101602E+02 -0.13318249346E+03  0.27169710273E+03  0.17300000000E+03 0.  1.
</event>
<event>
 4    1  0.6239288E+000  0.1000000E+03  0.7546771E-02  0.1280296E+00
         21   -1    0    0  503  502  0.00000000000E+00  0.00000000000E+00  0.11688104179E+03  0.11688104179E+03  0.00000000000E+00 0.  1.
         21   -1    0    0  501  503 -0.00000000000E+00 -0.00000000000E+00 -0.34018244557E+03  0.34018244557E+03  0.00000000000E+00 0.  1.
          6    1    1    2  501    0  0.31817195147E+02  0.80904837551E+02 -0.16630309612E+03  0.25523253402E+03  0.17300000000E+03 0.  1.
         -6    1    1    2    0  502 -0.31817195147E+02 -0.80904837551E+02 -0.56998307662E+02  0.20183095333E+03  0.17300000000E+03 0.  1.
</event>
<event>
 4    1  0.6239288E+000  0.1000000E+03  0.7546771E-02  0.1280296E+00
         21   -1    0    0  503  502  0.00000000000E+00  0.00000000000E+00  0.52971013045E+03  0.52971013045E+03  0.00000000000E+00 0.  1.
         21   -1    0    0  501  503 -0.00000000000E+00 -0.00000000000E+00 -0.17796506320E+03  0.17796506320E+03  0.00000000000E+00 0.  1.
          6    1    1    2  501    0 -0.19948221430E+02  0.85487142797E+02 -0.98385641822E+02  0.21751946496E+03  0.17300000000E+03 0.  1.
         -6    1    1    2    0  502  0.19948221430E+02 -0.85487142797E+02  0.45013070907E+03  0.49015572869E+03  0.17300000000E+03 0.  1.
</event>
<event>
 4    1  0.6239288E+000  0.1000000E+03  0.7546771E-02  0.1280296E+00
         21   -1    0    0  503  502  0.00000000000E+00  0.00000000000E+00  0.48667699417E+03  0.48667699417E+03  0.00000000000E+00 0.  1.
         21   -1    0    0  501  503 -0.00000000000E+00 -0.00000000000E+00 -0.84233078676E+02  0.84233078676E+02  0.00000000000E+00 0.  1.
          6    1    1    2  501    0  0.16082186462E+02  0.36608338639E+02  0.64048352056E+02  0.18875910198E+03  0.17300000000E+03 0.  1.
         -6    1    1    2    0  502 -0.16082186462E+02 -0.36608338639E+02  0.33839556344E+03  0.38215097086E+03  0.17300000000E+03 0.  1.
</event>
<event>
 4    1  0.6239288E+000  0.1000000E+03  0.7546771E-02  0.1280296E+00
         21   -1    0    0  503  502  0.00000000000E+00  0.00000000000E+00  0.19511842220E+03  0.19511842220E+03  0.00000000000E+00 0.  1.
         21   -1    0    0  501  503 -0.00000000000E+00 -0.00000000000E+00 -0.18220816790E+03  0.18220816790E+03  0.00000000000E+00 0.  1.
          6    1    1    2  501    0  0.55149750269E+02 -0.26161581447E+02 -0.37127789085E+02  0.18717210268E+03  0.17300000000E+03 0.  1.
         -6    1    1    2    0  502 -0.55149750269E+02  0.26161581447E+02  0.50038043385E+02  0.19015448742E+03  0.17300000000E+03 0.  1.
</event>
<event>
 4    1  0.6239288E+000  0.1000000E+03  0.7546771E-02  0.1280296E+00
         21   -1    0    0  503  502  0.00000000000E+00  0.00000000000E+00  0.79989763298E+02  0.79989763298E+02  0.00000000000E+00 0.  1.
         21   -1    0    0  501  503 -0.00000000000E+00 -0.00000000000E+00 -0.82764085310E+03  0.82764085310E+03  0.00000000000E+00 0.  1.
          6    1    1    2  501    0  0.28632656266E+02  0.17104927711E+03 -0.51266106646E+03  0.56817959596E+03  0.17300000000E+03 0.  1.
         -6    1    1    2    0  502 -0.28632656266E+02 -0.17104927711E+03 -0.23499002335E+03  0.33945102044E+03  0.17300000000E+03 0.  1.
</event>
<event>
 4    1  0.6239288E+000  0.1000000E+03  0.7546771E-02  0.1280296E+00
         21   -1    0    0  501  502  0.00000000000E+00  0.00000000000E+00  0.87591027644E+03  0.87591027644E+03  0.00000000000E+00 0. -1.
         21   -1    0    0  502  503 -0.00000000000E+00 -0.00000000000E+00 -0.12729334933E+03  0.12729334933E+03  0.00000000000E+00 0. -1.
          6    1    1    2  501    0  0.83210044036E+02 -0.26588119327E+03  0.46874187755E+03  0.57207050975E+03  0.17300000000E+03 0. -1.
         -6    1    1    2    0  503 -0.83210044036E+02  0.26588119327E+03  0.27987504956E+03  0.43113311602E+03  0.17300000000E+03 0. -1.
</event>
<event>
 4    1  0.6239288E+000  0.1000000E+03  0.7546771E-02  0.1280296E+00
         21   -1    0    0  503  502  0.00000000000E+00  0.00000000000E+00  0.14594532024E+03  0.14594532024E+03  0.00000000000E+00 0. -1.
         21   -1    0    0  501  503 -0.00000000000E+00 -0.00000000000E+00 -0.58088351093E+03  0.58088351093E+03  0.00000000000E+00 0.  1.
          6    1    1    2  501    0 -0.39384416342E+02  0.18793108514E+03 -0.38482666712E+03  0.46356206569E+03  0.17300000000E+03 0. -1.
         -6    1    1    2    0  502  0.39384416342E+02 -0.18793108514E+03 -0.50111523563E+02  0.26326676548E+03  0.17300000000E+03 0.  1.
</event>
<event>
 4    1  0.6239288E+000  0.1000000E+03  0.7546771E-02  0.1280296E+00
         21   -1    0    0  503  502  0.00000000000E+00  0.00000000000E+00  0.43723916449E+03  0.43723916449E+03  0.00000000000E+00 0.  1.
         21   -1    0    0  501  503 -0.00000000000E+00 -0.00000000000E+00 -0.17967380474E+03  0.17967380474E+03  0.00000000000E+00 0.  1.
          6    1    1    2  501    0  0.22278279451E+02 -0.53517312144E+02 -0.10537156631E+03  0.21069549455E+03  0.17300000000E+03 0.  1.
         -6    1    1    2    0  502 -0.22278279451E+02  0.53517312144E+02  0.36293692607E+03  0.40621747469E+03  0.17300000000E+03 0.  1.
</event>
<event>
 4    1  0.6239288E+000  0.1000000E+03  0.7546771E-02  0.1280296E+00
         21   -1    0    0  503  502  0.00000000000E+00  0.00000000000E+00  0.10102469839E+04  0.10102469839E+04  0.00000000000E+00 0.  1.
         21   -1    0    0  501  503 -0.00000000000E+00 -0.00000000000E+00 -0.35999363920E+02  0.35999363920E+02  0.00000000000E+00 0.  1.
          6    1    1    2  501    0 -0.43101433026E+02 -0.30988999649E+02  0.32205354364E+03  0.36941242074E+03  0.17300000000E+03 0.  1.
         -6    1    1    2    0  502  0.43101433026E+02  0.30988999649E+02  0.65219407631E+03  0.67683392705E+03  0.17300000000E+03 0.  1.
</event>
<event>
 4    1  0.6239288E+000  0.1000000E+03  0.7546771E-02  0.1280296E+00
         21   -1    0    0  503  502  0.00000000000E+00  0.00000000000E+00  0.75157576123E+02  0.75157576123E+02  0.00000000000E+00 0. -1.
         21   -1    0    0  501  503 -0.00000000000E+00 -0.00000000000E+00 -0.48172123308E+03  0.48172123308E+03  0.00000000000E+00 0. -1.
          6    1    1    2  501    0 -0.95034238691E+01 -0.56778429398E+02 -0.28292182974E+03  0.33658263006E+03  0.17300000000E+03 0. -1.
         -6    1    1    2    0  502  0.95034238691E+01  0.56778429398E+02 -0.12364182721E+03  0.22029617915E+03  0.17300000000E+03 0. -1.
</event>
<event>
 4    1  0.6239288E+000  0.1000000E+03  0.7546771E-02  0.1280296E+00
         21   -1    0    0  501  502  0.00000000000E+00  0.00000000000E+00  0.22690618437E+03  0.22690618437E+03  0.00000000000E+00 0. -1.
         21   -1    0    0  502  503 -0.00000000000E+00 -0.00000000000E+00 -0.35306121272E+03  0.35306121272E+03  0.00000000000E+00 0.  1.
          6    1    1    2  501    0  0.14582687239E+03 -0.18287908289E+02  0.11013456162E+03  0.25230645248E+03  0.17300000000E+03 0. -1.
         -6    1    1    2    0  503 -0.14582687239E+03  0.18287908289E+02 -0.23628958996E+03  0.32766094461E+03  0.17300000000E+03 0.  1.
</event>
<event>
 4    1  0.6239288E+000  0.1000000E+03  0.7546771E-02  0.1280296E+00
         21   -1    0    0  501  502  0.00000000000E+00  0.00000000000E+00  0.14986933900E+03  0.14986933900E+03  0.00000000000E+00 0. -1.
         21   -1    0    0  502  503 -0.00000000000E+00 -0.00000000000E+00 -0.43326425715E+03  0.43326425715E+03  0.00000000000E+00 0.  1.
          6    1    1    2  501    0  0.11802098801E+03  0.40943554928E+02  0.17667027675E+02  0.21411784645E+03  0.17300000000E+03 0. -1.
         -6    1    1    2    0  503 -0.11802098801E+03 -0.40943554928E+02 -0.30106194583E+03  0.36901574970E+03  0.17300000000E+03 0.  1.
</event>
<event>
 4    1  0.6239288E+000  0.1000000E+03  0.7546771E-02  0.1280296E+00
         21   -1    0    0  501  502  0.00000000000E+00  0.00000000000E+00  0.60054214559E+03  0.60054214559E+03  0.00000000000E+00 0. -1.
         21   -1    0    0  502  503 -0.00000000000E+00 -0.00000000000E+00 -0.68235823648E+02  0.68235823648E+02  0.00000000000E+00 0.  1.
          6    1    1    2  501    0 -0.40700355272E+02 -0.15736310906E+02  0.42412288791E+03  0.46012321660E+03  0.17300000000E+03 0. -1.
         -6    1    1    2    0  503  0.40700355272E+02  0.15736310906E+02  0.10818343402E+03  0.20865475264E+03  0.17300000000E+03 0.  1.
</event>
<event>
 4    1  0.6239288E+000  0.1000000E+03  0.7546771E-02  0.1280296E+00
         21   -1    0    0  501  502  0.00000000000E+00  0.00000000000E+00  0.13346231628E+03  0.13346231628E+03  0.00000000000E+00 0.  1.
         21   -1    0    0  502  503 -0.00000000000E+00 -0.00000000000E+00 -0.95274889307E+03  0.95274889307E+03  0.00000000000E+00 0. -1.
          6    1    1    2  501    0 -0.17015208305E+03 -0.21742956870E+02 -0.13055935850E+02  0.24397529588E+03  0.17300000000E+03 0.  1.
         -6    1    1    2    0  503  0.17015208305E+03  0.21742956870E+02 -0.80623064094E+03  0.84223591346E+03  0.17300000000E+03 0. -1.
</event>
<event>
 4    1  0.6239288E+000  0.1000000E+03  0.7546771E-02  0.1280296E+00
         21   -1    0    0  501  502  0.00000000000E+00  0.00000000000E+00  0.13032712355E+03  0.13032712355E+03  0.00000000000E+00 0.  1.
         21   -1    0    0  502  503 -0.00000000000E+00 -0.00000000000E+00 -0.57714839740E+03  0.57714839740E+03  0.00000000000E+00 0. -1.
          6    1    1    2  501    0  0.79199449692E+02 -0.10445259513E+03 -0.71779812073E+01  0.21717140897E+03  0.17300000000E+03 0.  1.
         -6    1    1    2    0  503 -0.79199449692E+02  0.10445259513E+03 -0.43964329265E+03  0.49030411198E+03  0.17300000000E+03 0. -1.
</event>
<event>
 4    1  0.6239288E+000  0.1000000E+03  0.7546771E-02  0.1280296E+00
         21   -1    0    0  501  502  0.00000000000E+00  0.00000000000E+00  0.11155851377E+03  0.11155851377E+03  0.00000000000E+00 0.  1.
         21   -1    0    0  502  503 -0.00000000000E+00 -0.00000000000E+00 -0.12381115760E+04  0.12381115760E+04  0.00000000000E+00 0. -1.
          6    1    1    2  501    0  0.21421883771E+03 -0.72347122127E+02 -0.12949927570E+03  0.31276649264E+03  0.17300000000E+03 0.  1.
         -6    1    1    2    0  503 -0.21421883771E+03  0.72347122127E+02 -0.99705378649E+03  0.10369035971E+04  0.17300000000E+03 0. -1.
</event>
<event>
 4    1  0.6239288E+000  0.1000000E+03  0.7546771E-02  0.1280296E+00
         21   -1    0    0  501  502  0.00000000000E+00  0.00000000000E+00  0.11952049705E+03  0.11952049705E+03  0.00000000000E+00 0.  1.
         21   -1    0    0  502  503 -0.00000000000E+00 -0.00000000000E+00 -0.67947925548E+03  0.67947925548E+03  0.00000000000E+00 0. -1.
          6    1    1    2  501    0 -0.21099496920E+02 -0.17370802411E+03 -0.78465772470E+02  0.25827416414E+03  0.17300000000E+03 0.  1.
         -6    1    1    2    0  503  0.21099496920E+02  0.17370802411E+03 -0.48149298596E+03  0.54072558839E+03  0.17300000000E+03 0. -1.
</event>
<event>
 4    1  0.6239288E+000  0.1000000E+03  0.7546771E-02  0.1280296E+00
         21   -1    0    0  503  502  0.00000000000E+00  0.00000000000E+00  0.54951272478E+03  0.54951272478E+03  0.00000000000E+00 0.  1.
         21   -1    0    0  501  503 -0.00000000000E+00 -0.00000000000E+00 -0.80979481477E+02  0.80979481477E+02  0.00000000000E+00 0.  1.
          6    1    1    2  501    0  0.40136014363E+02  0.11311886379E+03  0.21515912871E+03  0.30104688615E+03  0.17300000000E+03 0.  1.
         -6    1    1    2    0  502 -0.40136014363E+02 -0.11311886379E+03  0.25337411459E+03  0.32944532011E+03  0.17300000000E+03 0.  1.
</event>
<event>
 4    1  0.6239288E+000  0.1000000E+03  0.7546771E-02  0.1280296E+00
         21   -1    0    0  503  502  0.00000000000E+00  0.00000000000E+00  0.15191464689E+04  0.15191464689E+04  0.00000000000E+00 0.  1.
         21   -1    0    0  501  503 -0.00000000000E+00 -0.00000000000E+00 -0.28082726836E+02  0.28082726836E+02  0.00000000000E+00 0. -1.
          6    1    1    2  501    0 -0.76000311226E+02 -0.83371513876E+02  0.73641978942E+03  0.76483329091E+03  0.17300000000E+03 0. -1.
         -6    1    1    2    0  502  0.76000311226E+02  0.83371513876E+02  0.75464395269E+03  0.78239590487E+03  0.17300000000E+03 0.  1.
</event>
<event>
 4    1  0.6239288E+000  0.1000000E+03  0.7546771E-02  0.1280296E+00
         21   -1    0    0  503  502  0.00000000000E+00  0.00000000000E+00  0.10011273066E+03  0.10011273066E+03  0.00000000000E+00 0.  1.
         21   -1    0    0  501  503 -0.00000000000E+00 -0.00000000000E+00 -0.56397069884E+03  0.56397069884E+03  0.00000000000E+00 0. -1.
          6    1    1    2  501    0 -0.38784704445E+02 -0.62580913129E+01 -0.45282478915E+03  0.48633600183E+03  0.17300000000E+03 0. -1.
         -6    1    1    2    0  502  0.38784704445E+02  0.62580913129E+01 -0.11033179026E+02  0.17774742768E+03  0.17300000000E+03 0.  1.
</event>
<event>
 4    1  0.6239288E+000  0.1000000E+03  0.7546771E-02  0.1280296E+00
         21   -1    0    0  503  502  0.00000000000E+00  0.00000000000E+00  0.64779498695E+03  0.64779498695E+03  0.00000000000E+00 0.  1.
         21   -1    0    0  501  503 -0.00000000000E+00 -0.00000000000E+00 -0.33194941813E+03  0.33194941813E+03  0.00000000000E+00 0. -1.
          6    1    1    2  501    0 -0.37504807916E+03 -0.14624434832E+03 -0.24889082118E+01  0.43815940680E+03  0.17300000000E+03 0. -1.
         -6    1    1    2    0  502  0.37504807916E+03  0.14624434832E+03  0.31833447704E+03  0.54158499829E+03  0.17300000000E+03 0.  1.
</event>
<event>
 4    1  0.6239288E+000  0.1000000E+03  0.7546771E-02  0.1280296E+00
         21   -1    0    0  501  502  0.00000000000E+00  0.00000000000E+00  0.16733757271E+03  0.16733757271E+03  0.00000000000E+00 0. -1.
         21   -1    0    0  502  503 -0.00000000000E+00 -0.00000000000E+00 -0.27776441642E+03  0.27776441642E+03  0.00000000000E+00 0.  1.
          6    1    1    2  501    0 -0.35358317820E+02 -0.10833252176E+03  0.64235310453E+01  0.20725927642E+03  0.17300000000E+03 0.  1.
         -6    1    1    2    0  503  0.35358317820E+02  0.10833252176E+03 -0.11685037475E+03  0.23784271271E+03  0.17300000000E+03 0. -1.
</event>
<event>
 4    1  0.6239288E+000  0.1000000E+03  0.7546771E-02  0.1280296E+00
         21   -1    0    0  501  502  0.00000000000E+00  0.00000000000E+00  0.60315925849E+02  0.60315925849E+02  0.00000000000E+00 0. -1.
         21   -1    0    0  502  503 -0.00000000000E+00 -0.00000000000E+00 -0.18721270851E+04  0.18721270851E+04  0.00000000000E+00 0.  1.
          6    1    1    2  501    0 -0.24949921921E+03  0.44983668446E+02 -0.51252987567E+03  0.59740209597E+03  0.17300000000E+03 0.  1.
         -6    1    1    2    0  503  0.24949921921E+03 -0.44983668446E+02 -0.12992812836E+04  0.13350409150E+04  0.17300000000E+03 0. -1.
</event>
<event>
 4    1  0.6239288E+000  0.1000000E+03  0.7546771E-02  0.1280296E+00
         21   -1    0    0  503  502  0.00000000000E+00  0.00000000000E+00  0.44855879714E+03  0.44855879714E+03  0.00000000000E+00 0. -1.
         21   -1    0    0  501  503 -0.00000000000E+00 -0.00000000000E+00 -0.75869056235E+02  0.75869056235E+02  0.00000000000E+00 0. -1.
          6    1    1    2  501    0  0.39927880469E+02  0.17772143198E+02  0.11978719097E+03  0.21491406616E+03  0.17300000000E+03 0. -1.
         -6    1    1    2    0  502 -0.39927880469E+02 -0.17772143198E+02  0.25290254993E+03  0.30951378721E+03  0.17300000000E+03 0. -1.
</event>
<event>
 4    1  0.6239288E+000  0.1000000E+03  0.7546771E-02  0.1280296E+00
         21   -1    0    0  503  502  0.00000000000E+00  0.00000000000E+00  0.71673058868E+03  0.71673058868E+03  0.00000000000E+00 0. -1.
         21   -1    0    0  501  503 -0.00000000000E+00 -0.00000000000E+00 -0.92008661107E+02  0.92008661107E+02  0.00000000000E+00 0. -1.
          6    1    1    2  501    0  0.10370560270E+03  0.11011343688E+03  0.13188153759E+03  0.26495577173E+03  0.17300000000E+03 0. -1.
         -6    1    1    2    0  502 -0.10370560270E+03 -0.11011343688E+03  0.49284038998E+03  0.54378347806E+03  0.17300000000E+03 0. -1.
</event>
<event>
 4    1  0.6239288E+000  0.1000000E+03  0.7546771E-02  0.1280296E+00
         21   -1    0    0  501  502  0.00000000000E+00  0.00000000000E+00  0.15333148447E+03  0.15333148447E+03  0.00000000000E+00 0. -1.
         21   -1    0    0  502  503 -0.00000000000E+00 -0.00000000000E+00 -0.24205638406E+03  0.24205638406E+03  0.00000000000E+00 0.  1.
          6    1    1    2  501    0 -0.62998671893E+02  0.10733369987E+02  0.12789121567E+02  0.18486914162E+03  0.17300000000E+03 0. -1.
         -6    1    1    2    0  503  0.62998671893E+02 -0.10733369987E+02 -0.10151402116E+03  0.21051872692E+03  0.17300000000E+03 0.  1.
</event>
<event>
 4    1  0.6239288E+000  0.1000000E+03  0.7546771E-02  0.1280296E+00
         21   -1    0    0  501  502  0.00000000000E+00  0.00000000000E+00  0.76921466793E+03  0.76921466793E+03  0.00000000000E+00 0. -1.
         21   -1    0    0  502  503 -0.00000000000E+00 -0.00000000000E+00 -0.92299395422E+02  0.92299395422E+02  0.00000000000E+00 0.  1.
          6    1    1    2  501    0  0.17551993594E+03  0.30666523758E+01  0.17476774266E+03  0.30214138436E+03  0.17300000000E+03 0. -1.
         -6    1    1    2    0  503 -0.17551993594E+03 -0.30666523758E+01  0.50214752985E+03  0.55937267900E+03  0.17300000000E+03 0.  1.
</event>
<event>
 4    1  0.6239288E+000  0.1000000E+03  0.7546771E-02  0.1280296E+00
         21   -1    0    0  501  502  0.00000000000E+00  0.00000000000E+00  0.29544337933E+03  0.29544337933E+03  0.00000000000E+00 0. -1.
         21   -1    0    0  502  503 -0.00000000000E+00 -0.00000000000E+00 -0.73220544392E+03  0.73220544392E+03  0.00000000000E+00 0.  1.
          6    1    1    2  501    0 -0.26445435661E+02 -0.88929676916E+02  0.24743329176E+03  0.31584819515E+03  0.17300000000E+03 0. -1.
         -6    1    1    2    0  503  0.26445435661E+02  0.88929676916E+02 -0.68419535635E+03  0.71180062810E+03  0.17300000000E+03 0.  1.
</event>
<event>
 4    1  0.6239288E+000  0.1000000E+03  0.7546771E-02  0.1280296E+00
         21   -1    0    0  501  502  0.00000000000E+00  0.00000000000E+00  0.23561433837E+02  0.23561433837E+02  0.00000000000E+00 0.  1.
         21   -1    0    0  502  503 -0.00000000000E+00 -0.00000000000E+00 -0.17945868134E+04  0.17945868134E+04  0.00000000000E+00 0.  1.
          6    1    1    2  501    0  0.95273087574E+02  0.48022707793E+02 -0.10232662189E+04  0.10432573491E+04  0.17300000000E+03 0.  1.
         -6    1    1    2    0  503 -0.95273087574E+02 -0.48022707793E+02 -0.74775916059E+03  0.77489089808E+03  0.17300000000E+03 0.  1.
</event>
<event>
 4    1  0.6239288E+000  0.1000000E+03  0.7546771E-02  0.1280296E+00
         21   -1    0    0  501  502  0.00000000000E+00  0.00000000000E+00  0.16992265793E+03  0.16992265793E+03  0.00000000000E+00 0. -1.
         21   -1    0    0  502  503 -0.00000000000E+00 -0.00000000000E+00 -0.32189828473E+03  0.32189828473E+03  0.00000000000E+00 0. -1.
          6    1    1    2  501    0  0.53957212924E+02 -0.10635698231E+01  0.79458478769E+02  0.19787663292E+03  0.17300000000E+03 0. -1.
         -6    1    1    2    0  503 -0.53957212924E+02  0.10635698231E+01 -0.23143410557E+03  0.29394430974E+03  0.17300000000E+03 0. -1.
</event>
<event>
 4    1  0.6239288E+000  0.1000000E+03  0.7546771E-02  0.1280296E+00
         21   -1    0    0  501  502  0.00000000000E+00  0.00000000000E+00  0.12336320531E+03  0.12336320531E+03  0.00000000000E+00 0. -1.
         21   -1    0    0  502  503 -0.00000000000E+00 -0.00000000000E+00 -0.34835495712E+03  0.34835495712E+03  0.00000000000E+00 0. -1.
          6    1    1    2  501    0 -0.94016200326E+02 -0.57427130946E+02 -0.78206897456E+02  0.21950453322E+03  0.17300000000E+03 0. -1.
         -6    1    1    2    0  503  0.94016200326E+02  0.57427130946E+02 -0.14678485436E+03  0.25221362921E+03  0.17300000000E+03 0. -1.
</event>
<event>
 4    1  0.6239288E+000  0.1000000E+03  0.7546771E-02  0.1280296E+00
         21   -1    0    0  501  502  0.00000000000E+00  0.00000000000E+00  0.25454929543E+03  0.25454929543E+03  0.00000000000E+00 0. -1.
         21   -1    0    0  502  503 -0.00000000000E+00 -0.00000000000E+00 -0.63066015826E+03  0.63066015826E+03  0.00000000000E+00 0. -1.
          6    1    1    2  501    0  0.84452259399E+02  0.27986984447E+03  0.46659654881E+02  0.34287816693E+03  0.17300000000E+03 0. -1.
         -6    1    1    2    0  503 -0.84452259399E+02 -0.27986984447E+03 -0.42277051771E+03  0.54233128677E+03  0.17300000000E+03 0. -1.
</event>
<event>
 4    1  0.6239288E+000  0.1000000E+03  0.7546771E-02  0.1280296E+00
         21   -1    0    0  501  502  0.00000000000E+00  0.00000000000E+00  0.11442181794E+03  0.11442181794E+03  0.00000000000E+00 0. -1.
         21   -1    0    0  502  503 -0.00000000000E+00 -0.00000000000E+00 -0.42323309996E+03  0.42323309996E+03  0.00000000000E+00 0. -1.
          6    1    1    2  501    0 -0.35446634319E+02  0.16479738029E+02  0.47313046019E+01  0.17742443714E+03  0.17300000000E+03 0. -1.
         -6    1    1    2    0  503  0.35446634319E+02 -0.16479738029E+02 -0.31354258662E+03  0.36023048077E+03  0.17300000000E+03 0. -1.
</event>
<event>
 4    1  0.6239288E+000  0.1000000E+03  0.7546771E-02  0.1280296E+00
         21   -1    0    0  501  502  0.00000000000E+00  0.00000000000E+00  0.13818746507E+03  0.13818746507E+03  0.00000000000E+00 0.  1.
         21   -1    0    0  502  503 -0.00000000000E+00 -0.00000000000E+00 -0.51439831023E+03  0.51439831023E+03  0.00000000000E+00 0. -1.
          6    1    1    2  501    0  0.37714013492E+02  0.17489055440E+03 -0.71068315342E+02  0.25882186592E+03  0.17300000000E+03 0.  1.
         -6    1    1    2    0  503 -0.37714013492E+02 -0.17489055440E+03 -0.30514252981E+03  0.39376390938E+03  0.17300000000E+03 0. -1.
</event>
<event>
 4    1  0.6239288E+000  0.1000000E+03  0.7546771E-02  0.1280296E+00
         21   -1    0    0  503  502  0.00000000000E+00  0.00000000000E+00  0.14905182950E+03  0.14905182950E+03  0.00000000000E+00 0.  1.
         21   -1    0    0  501  503 -0.00000000000E+00 -0.00000000000E+00 -0.38285495366E+03  0.38285495366E+03  0.00000000000E+00 0. -1.
          6    1    1    2  501    0  0.14790558434E+03  0.35502550949E+02 -0.18731175417E+03  0.29690265450E+03  0.17300000000E+03 0. -1.
         -6    1    1    2    0  502 -0.14790558434E+03 -0.35502550949E+02 -0.46491369999E+02  0.23500412866E+03  0.17300000000E+03 0.  1.
</event>
<event>
 4    1  0.6239288E+000  0.1000000E+03  0.7546771E-02  0.1280296E+00
         21   -1    0    0  503  502  0.00000000000E+00  0.00000000000E+00  0.21991903098E+03  0.21991903098E+03  0.00000000000E+00 0. -1.
         21   -1    0    0  501  503 -0.00000000000E+00 -0.00000000000E+00 -0.16174570246E+03  0.16174570246E+03  0.00000000000E+00 0. -1.
          6    1    1    2  501    0  0.66598777107E+02 -0.15618643798E+02  0.60479566709E+02  0.19561727208E+03  0.17300000000E+03 0. -1.
         -6    1    1    2    0  502 -0.66598777107E+02  0.15618643798E+02 -0.23062381907E+01  0.18604746137E+03  0.17300000000E+03 0. -1.
</event>
<event>
 4    1  0.6239288E+000  0.1000000E+03  0.7546771E-02  0.1280296E+00
         21   -1    0    0  501  502  0.00000000000E+00  0.00000000000E+00  0.66803047283E+03  0.66803047283E+03  0.00000000000E+00 0.  1.
         21   -1    0    0  502  503 -0.00000000000E+00 -0.00000000000E+00 -0.12476507253E+03  0.12476507253E+03  0.00000000000E+00 0.  1.
          6    1    1    2  501    0 -0.37315584803E+02  0.13291245819E+03  0.52614642870E+03  0.57080402841E+03  0.17300000000E+03 0.  1.
         -6    1    1    2    0  503  0.37315584803E+02 -0.13291245819E+03  0.17118971604E+02  0.22199151696E+03  0.17300000000E+03 0.  1.
</event>
<event>
 4    1  0.6239288E+000  0.1000000E+03  0.7546771E-02  0.1280296E+00
         21   -1    0    0  501  502  0.00000000000E+00  0.00000000000E+00  0.49520142463E+03  0.49520142463E+03  0.00000000000E+00 0.  1.
         21   -1    0    0  502  503 -0.00000000000E+00 -0.00000000000E+00 -0.18504298981E+03  0.18504298981E+03  0.00000000000E+00 0.  1.
          6    1    1    2  501    0 -0.74752817396E+02  0.26417021609E+02  0.41958546324E+03  0.46072421653E+03  0.17300000000E+03 0.  1.
         -6    1    1    2    0  503  0.74752817396E+02 -0.26417021609E+02 -0.10942702842E+03  0.21952019790E+03  0.17300000000E+03 0.  1.
</event>
<event>
 4    1  0.6239288E+000  0.1000000E+03  0.7546771E-02  0.1280296E+00
         21   -1    0    0  501  502  0.00000000000E+00  0.00000000000E+00  0.22588183718E+03  0.22588183718E+03  0.00000000000E+00 0.  1.
         21   -1    0    0  502  503 -0.00000000000E+00 -0.00000000000E+00 -0.18167877328E+03  0.18167877328E+03  0.00000000000E+00 0.  1.
          6    1    1    2  501    0 -0.84500929247E+01 -0.82920435010E+02  0.86995829823E+02  0.21081858794E+03  0.17300000000E+03 0.  1.
         -6    1    1    2    0  503  0.84500929247E+01  0.82920435010E+02 -0.42792765929E+02  0.19674202253E+03  0.17300000000E+03 0.  1.
</event>
<event>
 4    1  0.6239288E+000  0.1000000E+03  0.7546771E-02  0.1280296E+00
         21   -1    0    0  503  502  0.00000000000E+00  0.00000000000E+00  0.22967935225E+03  0.22967935225E+03  0.00000000000E+00 0.  1.
         21   -1    0    0  501  503 -0.00000000000E+00 -0.00000000000E+00 -0.26370223007E+03  0.26370223007E+03  0.00000000000E+00 0.  1.
          6    1    1    2  501    0 -0.11662536862E+03 -0.11590123505E+03 -0.77182872953E+02  0.25084012592E+03  0.17300000000E+03 0.  1.
         -6    1    1    2    0  502  0.11662536862E+03  0.11590123505E+03  0.43159995137E+02  0.24254145640E+03  0.17300000000E+03 0.  1.
</event>
<event>
 4    1  0.6239288E+000  0.1000000E+03  0.7546771E-02  0.1280296E+00
         21   -1    0    0  503  502  0.00000000000E+00  0.00000000000E+00  0.14776923738E+04  0.14776923738E+04  0.00000000000E+00 0.  1.
         21   -1    0    0  501  503 -0.00000000000E+00 -0.00000000000E+00 -0.54107900293E+02  0.54107900293E+02  0.00000000000E+00 0.  1.
          6    1    1    2  501    0 -0.15579185292E+02 -0.21730866835E+02  0.13132722650E+04  0.13248879136E+04  0.17300000000E+03 0.  1.
         -6    1    1    2    0  502  0.15579185292E+02  0.21730866835E+02  0.11031220855E+03  0.20691236054E+03  0.17300000000E+03 0.  1.
</event>
<event>
 4    1  0.6239288E+000  0.1000000E+03  0.7546771E-02  0.1280296E+00
         21   -1    0    0  503  502  0.00000000000E+00  0.00000000000E+00  0.31670684698E+03  0.31670684698E+03  0.00000000000E+00 0.  1.
         21   -1    0    0  501  503 -0.00000000000E+00 -0.00000000000E+00 -0.11163671386E+03  0.11163671386E+03  0.00000000000E+00 0.  1.
          6    1    1    2  501    0 -0.66604292361E+02  0.28489770916E+02  0.11778737924E+03  0.22147384838E+03  0.17300000000E+03 0.  1.
         -6    1    1    2    0  502  0.66604292361E+02 -0.28489770916E+02  0.87282753884E+02  0.20686971246E+03  0.17300000000E+03 0.  1.
</event>
<event>
 4    1  0.6239288E+000  0.1000000E+03  0.7546771E-02  0.1280296E+00
         21   -1    0    0  503  502  0.00000000000E+00  0.00000000000E+00  0.95746470413E+02  0.95746470413E+02  0.00000000000E+00 0.  1.
         21   -1    0    0  501  503 -0.00000000000E+00 -0.00000000000E+00 -0.43964141524E+03  0.43964141524E+03  0.00000000000E+00 0.  1.
          6    1    1    2  501    0  0.56749898679E+02  0.26693671526E+02 -0.29032814994E+03  0.34373323632E+03  0.17300000000E+03 0.  1.
         -6    1    1    2    0  502 -0.56749898679E+02 -0.26693671526E+02 -0.53566794890E+02  0.19165464934E+03  0.17300000000E+03 0.  1.
</event>
<event>
 4    1  0.6239288E+000  0.1000000E+03  0.7546771E-02  0.1280296E+00
         21   -1    0    0  503  502  0.00000000000E+00  0.00000000000E+00  0.33884979281E+02  0.33884979281E+02  0.00000000000E+00 0.  1.
         21   -1    0    0  501  503 -0.00000000000E+00 -0.00000000000E+00 -0.12907001989E+04  0.12907001989E+04  0.00000000000E+00 0. -1.
          6    1    1    2  501    0 -0.65202638832E+02  0.53664424390E+02 -0.88714686185E+03  0.90779392433E+03  0.17300000000E+03 0. -1.
         -6    1    1    2    0  502  0.65202638832E+02 -0.53664424390E+02 -0.36966835780E+03  0.41679125388E+03  0.17300000000E+03 0.  1.
</event>
<event>
 4    1  0.6239288E+000  0.1000000E+03  0.7546771E-02  0.1280296E+00
         21   -1    0    0  503  502  0.00000000000E+00  0.00000000000E+00  0.13943382733E+03  0.13943382733E+03  0.00000000000E+00 0. -1.
         21   -1    0    0  501  503 -0.00000000000E+00 -0.00000000000E+00 -0.46939205011E+03  0.46939205011E+03  0.00000000000E+00 0.  1.
          6    1    1    2  501    0 -0.18595322039E+03 -0.30683895709E+02 -0.16477845783E+03  0.30430419286E+03  0.17300000000E+03 0.  1.
         -6    1    1    2    0  502  0.18595322039E+03  0.30683895709E+02 -0.16517976494E+03  0.30452168457E+03  0.17300000000E+03 0. -1.
</event>
<event>
 4    1  0.6239288E+000  0.1000000E+03  0.7546771E-02  0.1280296E+00
         21   -1    0    0  501  502  0.00000000000E+00  0.00000000000E+00  0.12299806620E+03  0.12299806620E+03  0.00000000000E+00 0. -1.
         21   -1    0    0  502  503 -0.00000000000E+00 -0.00000000000E+00 -0.35556589444E+03  0.35556589444E+03  0.00000000000E+00 0. -1.
          6    1    1    2  501    0 -0.51607358524E+02  0.90329274408E+02 -0.53799650741E+02  0.20891648975E+03  0.17300000000E+03 0. -1.
         -6    1    1    2    0  503  0.51607358524E+02 -0.90329274408E+02 -0.17876817751E+03  0.26964747089E+03  0.17300000000E+03 0. -1.
</event>
<event>
 4    1  0.6239288E+000  0.1000000E+03  0.7546771E-02  0.1280296E+00
         21   -1    0    0  501  502  0.00000000000E+00  0.00000000000E+00  0.12007944399E+03  0.12007944399E+03  0.00000000000E+00 0. -1.
         21   -1    0    0  502  503 -0.00000000000E+00 -0.00000000000E+00 -0.77455334211E+03  0.77455334211E+03  0.00000000000E+00 0. -1.
          6    1    1    2  501    0  0.39726334799E+02  0.11568381683E+03 -0.54943010513E+01  0.21194365878E+03  0.17300000000E+03 0. -1.
         -6    1    1    2    0  503 -0.39726334799E+02 -0.11568381683E+03 -0.64897959707E+03  0.68268912732E+03  0.17300000000E+03 0. -1.
</event>
<event>
 4    1  0.6239288E+000  0.1000000E+03  0.7546771E-02  0.1280296E+00
         21   -1    0    0  501  502  0.00000000000E+00  0.00000000000E+00  0.15142970395E+03  0.15142970395E+03  0.00000000000E+00 0. -1.
         21   -1    0    0  502  503 -0.00000000000E+00 -0.00000000000E+00 -0.14526690031E+04  0.14526690031E+04  0.00000000000E+00 0. -1.
          6    1    1    2  501    0 -0.54267954978E+02 -0.27038418980E+03 -0.73246881336E+02  0.33368656949E+03  0.17300000000E+03 0. -1.
         -6    1    1    2    0  503  0.54267954978E+02  0.27038418980E+03 -0.12279924178E+04  0.12704121375E+04  0.17300000000E+03 0. -1.
</event>
<event>
 4    1  0.6239288E+000  0.1000000E+03  0.7546771E-02  0.1280296E+00
         21   -1    0    0  501  502  0.00000000000E+00  0.00000000000E+00  0.78018271296E+02  0.78018271296E+02  0.00000000000E+00 0. -1.
         21   -1    0    0  502  503 -0.00000000000E+00 -0.00000000000E+00 -0.54623456259E+03  0.54623456259E+03  0.00000000000E+00 0. -1.
          6    1    1    2  501    0  0.71703228990E+02 -0.44193910297E+02 -0.12103531664E+03  0.22731696511E+03  0.17300000000E+03 0. -1.
         -6    1    1    2    0  503 -0.71703228990E+02  0.44193910297E+02 -0.34718097466E+03  0.39693586878E+03  0.17300000000E+03 0. -1.
</event>
<event>
 4    1  0.6239288E+000  0.1000000E+03  0.7546771E-02  0.1280296E+00
         21   -1    0    0  501  502  0.00000000000E+00  0.00000000000E+00  0.59122834705E+03  0.59122834705E+03  0.00000000000E+00 0.  1.
         21   -1    0    0  502  503 -0.00000000000E+00 -0.00000000000E+00 -0.17490998904E+03  0.17490998904E+03  0.00000000000E+00 0.  1.
          6    1    1    2  501    0  0.55774328263E+02 -0.10573277692E+03  0.49797746589E+03  0.54055596597E+03  0.17300000000E+03 0.  1.
         -6    1    1    2    0  503 -0.55774328263E+02  0.10573277692E+03 -0.81659107881E+02  0.22558237012E+03  0.17300000000E+03 0.  1.
</event>
<event>
 4    1  0.6239288E+000  0.1000000E+03  0.7546771E-02  0.1280296E+00
         21   -1    0    0  501  502  0.00000000000E+00  0.00000000000E+00  0.51068032458E+03  0.51068032458E+03  0.00000000000E+00 0.  1.
         21   -1    0    0  502  503 -0.00000000000E+00 -0.00000000000E+00 -0.10164042437E+03  0.10164042437E+03  0.00000000000E+00 0.  1.
          6    1    1    2  501    0 -0.10778784325E+03 -0.98628831985E+02  0.17076626527E+03  0.28361238162E+03  0.17300000000E+03 0.  1.
         -6    1    1    2    0  503  0.10778784325E+03  0.98628831985E+02  0.23827363493E+03  0.32870836734E+03  0.17300000000E+03 0.  1.
</event>
<event>
 4    1  0.6239288E+000  0.1000000E+03  0.7546771E-02  0.1280296E+00
         21   -1    0    0  501  502  0.00000000000E+00  0.00000000000E+00  0.29738985126E+03  0.29738985126E+03  0.00000000000E+00 0.  1.
         21   -1    0    0  502  503 -0.00000000000E+00 -0.00000000000E+00 -0.14999427159E+03  0.14999427159E+03  0.00000000000E+00 0.  1.
          6    1    1    2  501    0 -0.11434928610E+03 -0.33878943266E+02  0.96270778805E+02  0.23112897888E+03  0.17300000000E+03 0.  1.
         -6    1    1    2    0  503  0.11434928610E+03  0.33878943266E+02  0.51124800870E+02  0.21625514397E+03  0.17300000000E+03 0.  1.
</event>
<event>
 4    1  0.6239288E+000  0.1000000E+03  0.7546771E-02  0.1280296E+00
         21   -1    0    0  501  502  0.00000000000E+00  0.00000000000E+00  0.22588485467E+03  0.22588485467E+03  0.00000000000E+00 0. -1.
         21   -1    0    0  502  503 -0.00000000000E+00 -0.00000000000E+00 -0.15693996348E+03  0.15693996348E+03  0.00000000000E+00 0. -1.
          6    1    1    2  501    0  0.18941010937E+02  0.69054525401E+02  0.54653658081E+02  0.19504694746E+03  0.17300000000E+03 0. -1.
         -6    1    1    2    0  503 -0.18941010937E+02 -0.69054525401E+02  0.14291233106E+02  0.18777787068E+03  0.17300000000E+03 0. -1.
</event>
<event>
 4    1  0.6239288E+000  0.1000000E+03  0.7546771E-02  0.1280296E+00
         21   -1    0    0  501  502  0.00000000000E+00  0.00000000000E+00  0.25805377399E+03  0.25805377399E+03  0.00000000000E+00 0. -1.
         21   -1    0    0  502  503 -0.00000000000E+00 -0.00000000000E+00 -0.22440790230E+03  0.22440790230E+03  0.00000000000E+00 0. -1.
          6    1    1    2  501    0 -0.31764541885E+01 -0.61093104364E+02  0.17288799510E+03  0.25211449008E+03  0.17300000000E+03 0. -1.
         -6    1    1    2    0  503  0.31764541885E+01  0.61093104364E+02 -0.13924212341E+03  0.23034718621E+03  0.17300000000E+03 0. -1.
</event>
<event>
 4    1  0.6239288E+000  0.1000000E+03  0.7546771E-02  0.1280296E+00
         21   -1    0    0  501  502  0.00000000000E+00  0.00000000000E+00  0.59032947291E+03  0.59032947291E+03  0.00000000000E+00 0.  1.
         21   -1    0    0  502  503 -0.00000000000E+00 -0.00000000000E+00 -0.58755504888E+02  0.58755504888E+02  0.00000000000E+00 0.  1.
          6    1    1    2  501    0  0.45761811079E+02  0.51590329898E+02  0.26468384317E+03  0.32363906181E+03  0.17300000000E+03 0.  1.
         -6    1    1    2    0  503 -0.45761811079E+02 -0.51590329898E+02  0.26689012485E+03  0.32544591599E+03  0.17300000000E+03 0.  1.
</event>
<event>
 4    1  0.6239288E+000  0.1000000E+03  0.7546771E-02  0.1280296E+00
         21   -1    0    0  503  502  0.00000000000E+00  0.00000000000E+00  0.31502388231E+03  0.31502388231E+03  0.00000000000E+00 0.  1.
         21   -1    0    0  501  503 -0.00000000000E+00 -0.00000000000E+00 -0.24836035906E+03  0.24836035906E+03  0.00000000000E+00 0. -1.
          6    1    1    2  501    0  0.15059481058E+03  0.39705488345E+01 -0.12785021583E+03  0.26261995339E+03  0.17300000000E+03 0. -1.
         -6    1    1    2    0  502 -0.15059481058E+03 -0.39705488345E+01  0.19451373908E+03  0.30076428798E+03  0.17300000000E+03 0.  1.
</event>
<event>
 4    1  0.6239288E+000  0.1000000E+03  0.7546771E-02  0.1280296E+00
         21   -1    0    0  503  502  0.00000000000E+00  0.00000000000E+00  0.49482622413E+03  0.49482622413E+03  0.00000000000E+00 0.  1.
         21   -1    0    0  501  503 -0.00000000000E+00 -0.00000000000E+00 -0.83830579494E+02  0.83830579494E+02  0.00000000000E+00 0. -1.
          6    1    1    2  501    0  0.79813601579E+02 -0.10242086671E+02  0.10427308916E+03  0.21743272169E+03  0.17300000000E+03 0. -1.
         -6    1    1    2    0  502 -0.79813601579E+02  0.10242086671E+02  0.30672255547E+03  0.36122408194E+03  0.17300000000E+03 0.  1.
</event>
<event>
 4    1  0.6239288E+000  0.1000000E+03  0.7546771E-02  0.1280296E+00
         21   -1    0    0  503  502  0.00000000000E+00  0.00000000000E+00  0.28475186352E+03  0.28475186352E+03  0.00000000000E+00 0.  1.
         21   -1    0    0  501  503 -0.00000000000E+00 -0.00000000000E+00 -0.14425351087E+03  0.14425351087E+03  0.00000000000E+00 0. -1.
          6    1    1    2  501    0  0.55880302119E+02 -0.39820404260E+02 -0.14678970396E+02  0.18668889879E+03  0.17300000000E+03 0. -1.
         -6    1    1    2    0  502 -0.55880302119E+02  0.39820404260E+02  0.15517732304E+03  0.24231647560E+03  0.17300000000E+03 0.  1.
</event>
<event>
 4    1  0.6239288E+000  0.1000000E+03  0.7546771E-02  0.1280296E+00
         21   -1    0    0  501  502  0.00000000000E+00  0.00000000000E+00  0.16447447167E+03  0.16447447167E+03  0.00000000000E+00 0. -1.
         21   -1    0    0  502  503 -0.00000000000E+00 -0.00000000000E+00 -0.19773430346E+03  0.19773430346E+03  0.00000000000E+00 0. -1.
          6    1    1    2  501    0 -0.30442091319E+02 -0.34862457443E+02 -0.37959928996E+02  0.18306301667E+03  0.17300000000E+03 0. -1.
         -6    1    1    2    0  503  0.30442091319E+02  0.34862457443E+02  0.47000972036E+01  0.17914575847E+03  0.17300000000E+03 0. -1.
</event>
<event>
 4    1  0.6239288E+000  0.1000000E+03  0.7546771E-02  0.1280296E+00
         21   -1    0    0  501  502  0.00000000000E+00  0.00000000000E+00  0.37411454005E+03  0.37411454005E+03  0.00000000000E+00 0. -1.
         21   -1    0    0  502  503 -0.00000000000E+00 -0.00000000000E+00 -0.33970845499E+03  0.33970845499E+03  0.00000000000E+00 0. -1.
          6    1    1    2  501    0  0.11854231735E+03 -0.54443052167E+02  0.30063058540E+03  0.37057263230E+03  0.17300000000E+03 0. -1.
         -6    1    1    2    0  503 -0.11854231735E+03  0.54443052167E+02 -0.26622450034E+03  0.34325036273E+03  0.17300000000E+03 0. -1.
</event>
<event>
 4    1  0.6239288E+000  0.1000000E+03  0.7546771E-02  0.1280296E+00
         21   -1    0    0  501  502  0.00000000000E+00  0.00000000000E+00  0.55295434898E+02  0.55295434898E+02  0.00000000000E+00 0.  1.
         21   -1    0    0  502  503 -0.00000000000E+00 -0.00000000000E+00 -0.62442681462E+03  0.62442681462E+03  0.00000000000E+00 0.  1.
          6    1    1    2  501    0 -0.42801690704E+02  0.52598541584E+02 -0.28346680273E+03  0.33894102666E+03  0.17300000000E+03 0.  1.
         -6    1    1    2    0  503  0.42801690704E+02 -0.52598541584E+02 -0.28566457699E+03  0.34078122286E+03  0.17300000000E+03 0.  1.
</event>
<event>
 4    1  0.6239288E+000  0.1000000E+03  0.7546771E-02  0.1280296E+00
         21   -1    0    0  501  502  0.00000000000E+00  0.00000000000E+00  0.41841531160E+03  0.41841531160E+03  0.00000000000E+00 0.  1.
         21   -1    0    0  502  503 -0.00000000000E+00 -0.00000000000E+00 -0.47170986291E+03  0.47170986291E+03  0.00000000000E+00 0.  1.
          6    1    1    2  501    0 -0.87955263917E+02 -0.17512037876E+03  0.33321741153E+03  0.42351637377E+03  0.17300000000E+03 0.  1.
         -6    1    1    2    0  503  0.87955263917E+02  0.17512037876E+03 -0.38651196284E+03  0.46660880074E+03  0.17300000000E+03 0.  1.
</event>
<event>
 4    1  0.6239288E+000  0.1000000E+03  0.7546771E-02  0.1280296E+00
         21   -1    0    0  501  502  0.00000000000E+00  0.00000000000E+00  0.11263005868E+03  0.11263005868E+03  0.00000000000E+00 0.  1.
         21   -1    0    0  502  503 -0.00000000000E+00 -0.00000000000E+00 -0.47497705328E+03  0.47497705328E+03  0.00000000000E+00 0.  1.
          6    1    1    2  501    0 -0.92810412793E+02  0.93277487247E+02 -0.80724451540E+02  0.23186181106E+03  0.17300000000E+03 0.  1.
         -6    1    1    2    0  503  0.92810412793E+02 -0.93277487247E+02 -0.28162254307E+03  0.35574530090E+03  0.17300000000E+03 0.  1.
</event>
<event>
 4    1  0.6239288E+000  0.1000000E+03  0.7546771E-02  0.1280296E+00
         21   -1    0    0  501  502  0.00000000000E+00  0.00000000000E+00  0.24570627682E+03  0.24570627682E+03  0.00000000000E+00 0.  1.
         21   -1    0    0  502  503 -0.00000000000E+00 -0.00000000000E+00 -0.23251849952E+03  0.23251849952E+03  0.00000000000E+00 0.  1.
          6    1    1    2  501    0 -0.16421510120E+03 -0.12308556297E+02  0.15770970553E+02  0.23936546019E+03  0.17300000000E+03 0.  1.
         -6    1    1    2    0  503  0.16421510120E+03  0.12308556297E+02 -0.25831932593E+01  0.23885931614E+03  0.17300000000E+03 0.  1.
</event>
<event>
 4    1  0.6239288E+000  0.1000000E+03  0.7546771E-02  0.1280296E+00
         21   -1    0    0  501  502  0.00000000000E+00  0.00000000000E+00  0.18374427066E+04  0.18374427066E+04  0.00000000000E+00 0.  1.
         21   -1    0    0  502  503 -0.00000000000E+00 -0.00000000000E+00 -0.48613423856E+02  0.48613423856E+02  0.00000000000E+00 0.  1.
          6    1    1    2  501    0 -0.11005185397E+03 -0.13188111212E+03  0.14399367079E+04  0.14604282800E+04  0.17300000000E+03 0.  1.
         -6    1    1    2    0  503  0.11005185397E+03  0.13188111212E+03  0.34889257486E+03  0.42562785046E+03  0.17300000000E+03 0.  1.
</event>
<event>
 4    1  0.6239288E+000  0.1000000E+03  0.7546771E-02  0.1280296E+00
         21   -1    0    0  503  502  0.00000000000E+00  0.00000000000E+00  0.50924238851E+03  0.50924238851E+03  0.00000000000E+00 0.  1.
         21   -1    0    0  501  503 -0.00000000000E+00 -0.00000000000E+00 -0.71839124513E+02  0.71839124513E+02  0.00000000000E+00 0.  1.
          6    1    1    2  501    0  0.24507267468E+02  0.69198397512E+02  0.16466405591E+03  0.24986451466E+03  0.17300000000E+03 0.  1.
         -6    1    1    2    0  502 -0.24507267468E+02 -0.69198397512E+02  0.27273920809E+03  0.33121699836E+03  0.17300000000E+03 0.  1.
</event>
<event>
 4    1  0.6239288E+000  0.1000000E+03  0.7546771E-02  0.1280296E+00
         21   -1    0    0  501  502  0.00000000000E+00  0.00000000000E+00  0.81689764994E+03  0.81689764994E+03  0.00000000000E+00 0. -1.
         21   -1    0    0  502  503 -0.00000000000E+00 -0.00000000000E+00 -0.66461672711E+02  0.66461672711E+02  0.00000000000E+00 0.  1.
          6    1    1    2  501    0 -0.13622672554E+03 -0.34501605460E+01  0.23093398308E+03  0.31910676725E+03  0.17300000000E+03 0. -1.
         -6    1    1    2    0  503  0.13622672554E+03  0.34501605460E+01  0.51950199414E+03  0.56425255540E+03  0.17300000000E+03 0.  1.
</event>
<event>
 4    1  0.6239288E+000  0.1000000E+03  0.7546771E-02  0.1280296E+00
         21   -1    0    0  501  502  0.00000000000E+00  0.00000000000E+00  0.13071418875E+03  0.13071418875E+03  0.00000000000E+00 0. -1.
         21   -1    0    0  502  503 -0.00000000000E+00 -0.00000000000E+00 -0.35015209744E+03  0.35015209744E+03  0.00000000000E+00 0.  1.
          6    1    1    2  501    0  0.38229360650E+02  0.10294881986E+03 -0.40615076773E+02  0.20889836760E+03  0.17300000000E+03 0. -1.
         -6    1    1    2    0  503 -0.38229360650E+02 -0.10294881986E+03 -0.17882283192E+03  0.27196791859E+03  0.17300000000E+03 0.  1.
</event>
<event>
 4    1  0.6239288E+000  0.1000000E+03  0.7546771E-02  0.1280296E+00
         21   -1    0    0  501  502  0.00000000000E+00  0.00000000000E+00  0.43542915644E+02  0.43542915644E+02  0.00000000000E+00 0. -1.
         21   -1    0    0  502  503 -0.00000000000E+00 -0.00000000000E+00 -0.30788446765E+04  0.30788446765E+04  0.00000000000E+00 0.  1.
          6    1    1    2  501    0 -0.36591436081E+01  0.16522783646E+03 -0.33586391392E+03  0.41236779208E+03  0.17300000000E+03 0. -1.
         -6    1    1    2    0  503  0.36591436081E+01 -0.16522783646E+03 -0.26994378470E+04  0.27100198001E+04  0.17300000000E+03 0.  1.
</event>
<event>
 4    1  0.6239288E+000  0.1000000E+03  0.7546771E-02  0.1280296E+00
         21   -1    0    0  503  502  0.00000000000E+00  0.00000000000E+00  0.27908800406E+03  0.27908800406E+03  0.00000000000E+00 0.  1.
         21   -1    0    0  501  503 -0.00000000000E+00 -0.00000000000E+00 -0.37370050004E+03  0.37370050004E+03  0.00000000000E+00 0.  1.
          6    1    1    2  501    0 -0.93300280570E+02 -0.16040983641E+03 -0.24926380397E+03  0.35566515424E+03  0.17300000000E+03 0.  1.
         -6    1    1    2    0  502  0.93300280570E+02  0.16040983641E+03  0.15465130799E+03  0.29712334986E+03  0.17300000000E+03 0.  1.
</event>
<event>
 4    1  0.6239288E+000  0.1000000E+03  0.7546771E-02  0.1280296E+00
         21   -1    0    0  503  502  0.00000000000E+00  0.00000000000E+00  0.26850031902E+03  0.26850031902E+03  0.00000000000E+00 0.  1.
         21   -1    0    0  501  503 -0.00000000000E+00 -0.00000000000E+00 -0.31004002704E+03  0.31004002704E+03  0.00000000000E+00 0.  1.
          6    1    1    2  501    0  0.13370945101E+03 -0.12593919658E+03 -0.16105314661E+03  0.29934263739E+03  0.17300000000E+03 0.  1.
         -6    1    1    2    0  502 -0.13370945101E+03  0.12593919658E+03  0.11951343860E+03  0.27919770868E+03  0.17300000000E+03 0.  1.
</event>
<event>
 4    1  0.6239288E+000  0.1000000E+03  0.7546771E-02  0.1280296E+00
         21   -1    0    0  501  502  0.00000000000E+00  0.00000000000E+00  0.36172840921E+03  0.36172840921E+03  0.00000000000E+00 0. -1.
         21   -1    0    0  502  503 -0.00000000000E+00 -0.00000000000E+00 -0.25899518670E+03  0.25899518670E+03  0.00000000000E+00 0. -1.
          6    1    1    2  501    0 -0.62106120292E+02  0.11532327366E+03  0.27025635336E+03  0.34658927300E+03  0.17300000000E+03 0. -1.
         -6    1    1    2    0  503  0.62106120292E+02 -0.11532327366E+03 -0.16752313086E+03  0.27413432291E+03  0.17300000000E+03 0. -1.
</event>
<event>
 4    1  0.6239288E+000  0.1000000E+03  0.7546771E-02  0.1280296E+00
         21   -1    0    0  501  502  0.00000000000E+00  0.00000000000E+00  0.30723825980E+03  0.30723825980E+03  0.00000000000E+00 0.  1.
         21   -1    0    0  502  503 -0.00000000000E+00 -0.00000000000E+00 -0.99798670305E+03  0.99798670305E+03  0.00000000000E+00 0. -1.
          6    1    1    2  501    0 -0.10508520443E+03 -0.21097856475E+03  0.20884925768E+03  0.35930748309E+03  0.17300000000E+03 0.  1.
         -6    1    1    2    0  503  0.10508520443E+03  0.21097856475E+03 -0.89959770093E+03  0.94591747975E+03  0.17300000000E+03 0.  1.
</event>
<event>
 4    1  0.6239288E+000  0.1000000E+03  0.7546771E-02  0.1280296E+00
         21   -1    0    0  501  502  0.00000000000E+00  0.00000000000E+00  0.61192815104E+03  0.61192815104E+03  0.00000000000E+00 0.  1.
         21   -1    0    0  502  503 -0.00000000000E+00 -0.00000000000E+00 -0.29000450801E+03  0.29000450801E+03  0.00000000000E+00 0. -1.
          6    1    1    2  501    0 -0.87781796563E+02  0.21461680820E+03  0.48876738140E+03  0.56796881190E+03  0.17300000000E+03 0.  1.
         -6    1    1    2    0  503  0.87781796563E+02 -0.21461680820E+03 -0.16684373837E+03  0.33396384715E+03  0.17300000000E+03 0.  1.
</event>
<event>
 4    1  0.6239288E+000  0.1000000E+03  0.7546771E-02  0.1280296E+00
         21   -1    0    0  501  502  0.00000000000E+00  0.00000000000E+00  0.32007083179E+03  0.32007083179E+03  0.00000000000E+00 0.  1.
         21   -1    0    0  502  503 -0.00000000000E+00 -0.00000000000E+00 -0.16847470048E+03  0.16847470048E+03  0.00000000000E+00 0. -1.
          6    1    1    2  501    0  0.30293824811E+02 -0.41888317606E+02  0.22940245280E+03  0.29193634978E+03  0.17300000000E+03 0.  1.
         -6    1    1    2    0  503 -0.30293824811E+02  0.41888317606E+02 -0.77806321493E+02  0.19660918249E+03  0.17300000000E+03 0.  1.
</event>
<event>
 4    1  0.6239288E+000  0.1000000E+03  0.7546771E-02  0.1280296E+00
         21   -1    0    0  503  502  0.00000000000E+00  0.00000000000E+00  0.19191102450E+03  0.19191102450E+03  0.00000000000E+00 0.  1.
         21   -1    0    0  501  503 -0.00000000000E+00 -0.00000000000E+00 -0.64737863772E+03  0.64737863772E+03  0.00000000000E+00 0.  1.
          6    1    1    2  501    0  0.21278966519E+02 -0.14490533049E+02 -0.59206841602E+03  0.61736276144E+03  0.17300000000E+03 0.  1.
         -6    1    1    2    0  502 -0.21278966519E+02  0.14490533049E+02  0.13660080280E+03  0.22192690078E+03  0.17300000000E+03 0.  1.
</event>
<event>
 4    1  0.6239288E+000  0.1000000E+03  0.7546771E-02  0.1280296E+00
         21   -1    0    0  503  502  0.00000000000E+00  0.00000000000E+00  0.63109742177E+03  0.63109742177E+03  0.00000000000E+00 0.  1.
         21   -1    0    0  501  503 -0.00000000000E+00 -0.00000000000E+00 -0.14561270446E+03  0.14561270446E+03  0.00000000000E+00 0.  1.
          6    1    1    2  501    0 -0.24068570863E+03 -0.40254466752E+02  0.30572179780E+03  0.42772052801E+03  0.17300000000E+03 0.  1.
         -6    1    1    2    0  502  0.24068570863E+03  0.40254466752E+02  0.17976291952E+03  0.34898959822E+03  0.17300000000E+03 0.  1.
</event>
<event>
 4    1  0.6239288E+000  0.1000000E+03  0.7546771E-02  0.1280296E+00
         21   -1    0    0  503  502  0.00000000000E+00  0.00000000000E+00  0.66139583941E+02  0.66139583941E+02  0.00000000000E+00 0.  1.
         21   -1    0    0  501  503 -0.00000000000E+00 -0.00000000000E+00 -0.68776490060E+03  0.68776490060E+03  0.00000000000E+00 0.  1.
          6    1    1    2  501    0 -0.16108421499E+02 -0.32322591934E+02 -0.52183238935E+03  0.55094670683E+03  0.17300000000E+03 0.  1.
         -6    1    1    2    0  502  0.16108421499E+02  0.32322591934E+02 -0.99792927311E+02  0.20295777771E+03  0.17300000000E+03 0.  1.
</event>
<event>
 4    1  0.6239288E+000  0.1000000E+03  0.7546771E-02  0.1280296E+00
         21   -1    0    0  503  502  0.00000000000E+00  0.00000000000E+00  0.31456756585E+03  0.31456756585E+03  0.00000000000E+00 0.  1.
         21   -1    0    0  501  503 -0.00000000000E+00 -0.00000000000E+00 -0.15052358191E+03  0.15052358191E+03  0.00000000000E+00 0.  1.
          6    1    1    2  501    0 -0.99271842974E+02 -0.55672312238E+02  0.10599657617E+02  0.20735394353E+03  0.17300000000E+03 0.  1.
         -6    1    1    2    0  502  0.99271842974E+02  0.55672312238E+02  0.15344432632E+03  0.25773720422E+03  0.17300000000E+03 0.  1.
</event>
<event>
 4    1  0.6239288E+000  0.1000000E+03  0.7546771E-02  0.1280296E+00
         21   -1    0    0  503  502  0.00000000000E+00  0.00000000000E+00  0.23511311001E+04  0.23511311001E+04  0.00000000000E+00 0.  1.
         21   -1    0    0  501  503 -0.00000000000E+00 -0.00000000000E+00 -0.61403377036E+02  0.61403377036E+02  0.00000000000E+00 0.  1.
          6    1    1    2  501    0 -0.13853159238E+03 -0.12878563408E+03  0.25445289342E+03  0.36118141785E+03  0.17300000000E+03 0.  1.
         -6    1    1    2    0  502  0.13853159238E+03  0.12878563408E+03  0.20352748297E+04  0.20513530593E+04  0.17300000000E+03 0.  1.
</event>
<event>
 4    1  0.6239288E+000  0.1000000E+03  0.7546771E-02  0.1280296E+00
         21   -1    0    0  503  502  0.00000000000E+00  0.00000000000E+00  0.67686228014E+03  0.67686228014E+03  0.00000000000E+00 0. -1.
         21   -1    0    0  501  503 -0.00000000000E+00 -0.00000000000E+00 -0.12189833643E+03  0.12189833643E+03  0.00000000000E+00 0.  1.
          6    1    1    2  501    0 -0.16473282896E+03 -0.15744815266E+03  0.24196402080E+03  0.37470309990E+03  0.17300000000E+03 0.  1.
         -6    1    1    2    0  502  0.16473282896E+03  0.15744815266E+03  0.31299992291E+03  0.42405751668E+03  0.17300000000E+03 0. -1.
</event>
<event>
 4    1  0.6239288E+000  0.1000000E+03  0.7546771E-02  0.1280296E+00
         21   -1    0    0  503  502  0.00000000000E+00  0.00000000000E+00  0.12500615619E+04  0.12500615619E+04  0.00000000000E+00 0. -1.
         21   -1    0    0  501  503 -0.00000000000E+00 -0.00000000000E+00 -0.35197946997E+02  0.35197946997E+02  0.00000000000E+00 0.  1.
          6    1    1    2  501    0 -0.11470195294E+03 -0.24632641669E+02  0.55372682215E+03  0.59186628441E+03  0.17300000000E+03 0.  1.
         -6    1    1    2    0  502  0.11470195294E+03  0.24632641669E+02  0.66113679280E+03  0.69339322454E+03  0.17300000000E+03 0. -1.
</event>
<event>
 4    1  0.6239288E+000  0.1000000E+03  0.7546771E-02  0.1280296E+00
         21   -1    0    0  503  502  0.00000000000E+00  0.00000000000E+00  0.16232269102E+03  0.16232269102E+03  0.00000000000E+00 0. -1.
         21   -1    0    0  501  503 -0.00000000000E+00 -0.00000000000E+00 -0.27924730319E+03  0.27924730319E+03  0.00000000000E+00 0.  1.
          6    1    1    2  501    0 -0.60733549022E+02 -0.88521383696E+02  0.60878725248E+01  0.20369256624E+03  0.17300000000E+03 0.  1.
         -6    1    1    2    0  502  0.60733549022E+02  0.88521383696E+02 -0.12301248470E+03  0.23787742798E+03  0.17300000000E+03 0. -1.
</event>
<event>
 4    1  0.6239288E+000  0.1000000E+03  0.7546771E-02  0.1280296E+00
         21   -1    0    0  503  502  0.00000000000E+00  0.00000000000E+00  0.63587545052E+03  0.63587545052E+03  0.00000000000E+00 0. -1.
         21   -1    0    0  501  503 -0.00000000000E+00 -0.00000000000E+00 -0.93353374932E+02  0.93353374932E+02  0.00000000000E+00 0.  1.
          6    1    1    2  501    0 -0.36151118577E+02 -0.16359574548E+03  0.21603864488E+03  0.32353078276E+03  0.17300000000E+03 0.  1.
         -6    1    1    2    0  502  0.36151118577E+02  0.16359574548E+03  0.32648343071E+03  0.40569804269E+03  0.17300000000E+03 0. -1.
</event>
<event>
 4    1  0.6239288E+000  0.1000000E+03  0.7546771E-02  0.1280296E+00
         21   -1    0    0  501  502  0.00000000000E+00  0.00000000000E+00  0.13335484325E+03  0.13335484325E+03  0.00000000000E+00 0.  1.
         21   -1    0    0  502  503 -0.00000000000E+00 -0.00000000000E+00 -0.23878824210E+03  0.23878824210E+03  0.00000000000E+00 0. -1.
          6    1    1    2  501    0  0.12556125322E+02 -0.16446301330E+02 -0.12515265852E+02  0.17468190802E+03  0.17300000000E+03 0.  1.
         -6    1    1    2    0  503 -0.12556125322E+02  0.16446301330E+02 -0.92918133000E+02  0.19746117733E+03  0.17300000000E+03 0.  1.
</event>
<event>
 4    1  0.6239288E+000  0.1000000E+03  0.7546771E-02  0.1280296E+00
         21   -1    0    0  501  502  0.00000000000E+00  0.00000000000E+00  0.28355023181E+03  0.28355023181E+03  0.00000000000E+00 0.  1.
         21   -1    0    0  502  503 -0.00000000000E+00 -0.00000000000E+00 -0.10345816358E+04  0.10345816358E+04  0.00000000000E+00 0. -1.
          6    1    1    2  501    0 -0.41146142535E+03 -0.29244081141E+03 -0.48839130941E+03  0.72337901811E+03  0.17300000000E+03 0.  1.
         -6    1    1    2    0  503  0.41146142535E+03  0.29244081141E+03 -0.26264009462E+03  0.59475284954E+03  0.17300000000E+03 0.  1.
</event>
<event>
 4    1  0.6239288E+000  0.1000000E+03  0.7546771E-02  0.1280296E+00
         21   -1    0    0  501  502  0.00000000000E+00  0.00000000000E+00  0.25220706315E+03  0.25220706315E+03  0.00000000000E+00 0.  1.
         21   -1    0    0  502  503 -0.00000000000E+00 -0.00000000000E+00 -0.36144616684E+03  0.36144616684E+03  0.00000000000E+00 0.  1.
          6    1    1    2  501    0 -0.16792601759E+02 -0.12050121261E+03  0.16434881449E+03  0.26784709545E+03  0.17300000000E+03 0.  1.
         -6    1    1    2    0  503  0.16792601759E+02  0.12050121261E+03 -0.27358791818E+03  0.34580613454E+03  0.17300000000E+03 0.  1.
</event>
<event>
 4    1  0.6239288E+000  0.1000000E+03  0.7546771E-02  0.1280296E+00
         21   -1    0    0  501  502  0.00000000000E+00  0.00000000000E+00  0.47557118936E+03  0.47557118936E+03  0.00000000000E+00 0.  1.
         21   -1    0    0  502  503 -0.00000000000E+00 -0.00000000000E+00 -0.37950691951E+03  0.37950691951E+03  0.00000000000E+00 0.  1.
          6    1    1    2  501    0 -0.38155603880E+03 -0.45323251039E+02  0.10236079232E+03  0.43364264047E+03  0.17300000000E+03 0.  1.
         -6    1    1    2    0  503  0.38155603880E+03  0.45323251039E+02 -0.62965224600E+01  0.42143546840E+03  0.17300000000E+03 0.  1.
</event>
<event>
 4    1  0.6239288E+000  0.1000000E+03  0.7546771E-02  0.1280296E+00
         21   -1    0    0  501  502  0.00000000000E+00  0.00000000000E+00  0.18461401803E+03  0.18461401803E+03  0.00000000000E+00 0. -1.
         21   -1    0    0  502  503 -0.00000000000E+00 -0.00000000000E+00 -0.44573725732E+03  0.44573725732E+03  0.00000000000E+00 0.  1.
          6    1    1    2  501    0  0.58259198685E+02  0.20557882362E+02  0.11151160708E+03  0.21489671769E+03  0.17300000000E+03 0.  1.
         -6    1    1    2    0  503 -0.58259198685E+02 -0.20557882362E+02 -0.37263484637E+03  0.41545455767E+03  0.17300000000E+03 0.  1.
</event>
<event>
 4    1  0.6239288E+000  0.1000000E+03  0.7546771E-02  0.1280296E+00
         21   -1    0    0  501  502  0.00000000000E+00  0.00000000000E+00  0.79224577634E+03  0.79224577634E+03  0.00000000000E+00 0. -1.
         21   -1    0    0  502  503 -0.00000000000E+00 -0.00000000000E+00 -0.35444763036E+03  0.35444763036E+03  0.00000000000E+00 0.  1.
          6    1    1    2  501    0  0.20761421452E+03  0.15397749016E+03  0.68309396126E+03  0.75057250780E+03  0.17300000000E+03 0.  1.
         -6    1    1    2    0  503 -0.20761421452E+03 -0.15397749016E+03 -0.24529581529E+03  0.39612089890E+03  0.17300000000E+03 0.  1.
</event>
<event>
 4    1  0.6239288E+000  0.1000000E+03  0.7546771E-02  0.1280296E+00
         21   -1    0    0  503  502  0.00000000000E+00  0.00000000000E+00  0.29710792094E+03  0.29710792094E+03  0.00000000000E+00 0. -1.
         21   -1    0    0  501  503 -0.00000000000E+00 -0.00000000000E+00 -0.14550168465E+03  0.14550168465E+03  0.00000000000E+00 0.  1.
          6    1    1    2  501    0 -0.78123713750E+02  0.56126421145E+02  0.80892294041E+01  0.19811089176E+03  0.17300000000E+03 0.  1.
         -6    1    1    2    0  502  0.78123713750E+02 -0.56126421145E+02  0.14351700688E+03  0.24449871383E+03  0.17300000000E+03 0. -1.
</event>
<event>
 4    1  0.6239288E+000  0.1000000E+03  0.7546771E-02  0.1280296E+00
         21   -1    0    0  503  502  0.00000000000E+00  0.00000000000E+00  0.14055018090E+03  0.14055018090E+03  0.00000000000E+00 0. -1.
         21   -1    0    0  501  503 -0.00000000000E+00 -0.00000000000E+00 -0.60358132378E+03  0.60358132378E+03  0.00000000000E+00 0. -1.
          6    1    1    2  501    0 -0.57558740144E+02 -0.20463661267E+03 -0.35742680564E+03  0.45041322494E+03  0.17300000000E+03 0. -1.
         -6    1    1    2    0  502  0.57558740144E+02  0.20463661267E+03 -0.10560433724E+03  0.29371827974E+03  0.17300000000E+03 0. -1.
</event>
<event>
 4    1  0.6239288E+000  0.1000000E+03  0.7546771E-02  0.1280296E+00
         21   -1    0    0  501  502  0.00000000000E+00  0.00000000000E+00  0.10314177651E+04  0.10314177651E+04  0.00000000000E+00 0. -1.
         21   -1    0    0  502  503 -0.00000000000E+00 -0.00000000000E+00 -0.31208031890E+03  0.31208031890E+03  0.00000000000E+00 0. -1.
          6    1    1    2  501    0  0.14505126340E+03  0.20279204722E+03  0.92724434284E+03  0.97564109936E+03  0.17300000000E+03 0. -1.
         -6    1    1    2    0  503 -0.14505126340E+03 -0.20279204722E+03 -0.20790689668E+03  0.36785698460E+03  0.17300000000E+03 0. -1.
</event>
<event>
 4    1  0.6239288E+000  0.1000000E+03  0.7546771E-02  0.1280296E+00
         21   -1    0    0  501  502  0.00000000000E+00  0.00000000000E+00  0.95674656305E+02  0.95674656305E+02  0.00000000000E+00 0. -1.
         21   -1    0    0  502  503 -0.00000000000E+00 -0.00000000000E+00 -0.10677713585E+04  0.10677713585E+04  0.00000000000E+00 0. -1.
          6    1    1    2  501    0  0.23194985742E+03 -0.37679577974E+02 -0.24868141580E+03  0.38339527059E+03  0.17300000000E+03 0. -1.
         -6    1    1    2    0  503 -0.23194985742E+03  0.37679577974E+02 -0.72341528644E+03  0.78005074425E+03  0.17300000000E+03 0. -1.
</event>
<event>
 4    1  0.6239288E+000  0.1000000E+03  0.7546771E-02  0.1280296E+00
         21   -1    0    0  501  502  0.00000000000E+00  0.00000000000E+00  0.75000806852E+02  0.75000806852E+02  0.00000000000E+00 0.  1.
         21   -1    0    0  502  503 -0.00000000000E+00 -0.00000000000E+00 -0.46364847552E+03  0.46364847552E+03  0.00000000000E+00 0.  1.
          6    1    1    2  501    0 -0.18074847351E+02 -0.45949267153E+02 -0.12346655893E+03  0.21819951062E+03  0.17300000000E+03 0.  1.
         -6    1    1    2    0  503  0.18074847351E+02  0.45949267153E+02 -0.26518110974E+03  0.32044977176E+03  0.17300000000E+03 0.  1.
</event>
<event>
 4    1  0.6239288E+000  0.1000000E+03  0.7546771E-02  0.1280296E+00
         21   -1    0    0  501  502  0.00000000000E+00  0.00000000000E+00  0.19128848082E+03  0.19128848082E+03  0.00000000000E+00 0.  1.
         21   -1    0    0  502  503 -0.00000000000E+00 -0.00000000000E+00 -0.42348361946E+03  0.42348361946E+03  0.00000000000E+00 0.  1.
          6    1    1    2  501    0 -0.96964176170E+02 -0.75943874797E+02  0.88557817884E+02  0.23008913640E+03  0.17300000000E+03 0.  1.
         -6    1    1    2    0  503  0.96964176170E+02  0.75943874797E+02 -0.32075295652E+03  0.38468296388E+03  0.17300000000E+03 0.  1.
</event>
<event>
 4    1  0.6239288E+000  0.1000000E+03  0.7546771E-02  0.1280296E+00
         21   -1    0    0  503  502  0.00000000000E+00  0.00000000000E+00  0.30955120753E+03  0.30955120753E+03  0.00000000000E+00 0.  1.
         21   -1    0    0  501  503 -0.00000000000E+00 -0.00000000000E+00 -0.50872585727E+03  0.50872585727E+03  0.00000000000E+00 0. -1.
          6    1    1    2  501    0 -0.98752561779E+02 -0.11068125447E+03 -0.43453862231E+03  0.49066813921E+03  0.17300000000E+03 0.  1.
         -6    1    1    2    0  502  0.98752561779E+02  0.11068125447E+03  0.23536397257E+03  0.32760892560E+03  0.17300000000E+03 0. -1.
</event>
<event>
 4    1  0.6239288E+000  0.1000000E+03  0.7546771E-02  0.1280296E+00
         21   -1    0    0  501  502  0.00000000000E+00  0.00000000000E+00  0.56687388701E+03  0.56687388701E+03  0.00000000000E+00 0. -1.
         21   -1    0    0  502  503 -0.00000000000E+00 -0.00000000000E+00 -0.19851034205E+03  0.19851034205E+03  0.00000000000E+00 0. -1.
          6    1    1    2  501    0 -0.24218565781E+03 -0.58954316694E+02  0.34740914810E+03  0.46125006286E+03  0.17300000000E+03 0. -1.
         -6    1    1    2    0  503  0.24218565781E+03  0.58954316694E+02  0.20954396861E+02  0.30413416621E+03  0.17300000000E+03 0. -1.
</event>
<event>
 4    1  0.6239288E+000  0.1000000E+03  0.7546771E-02  0.1280296E+00
         21   -1    0    0  501  502  0.00000000000E+00  0.00000000000E+00  0.23482187789E+03  0.23482187789E+03  0.00000000000E+00 0. -1.
         21   -1    0    0  502  503 -0.00000000000E+00 -0.00000000000E+00 -0.26879827846E+03  0.26879827846E+03  0.00000000000E+00 0. -1.
          6    1    1    2  501    0  0.16194310929E+02 -0.51905263770E+02  0.15728900167E+03  0.24005258207E+03  0.17300000000E+03 0. -1.
         -6    1    1    2    0  503 -0.16194310929E+02  0.51905263770E+02 -0.19126540224E+03  0.26356757427E+03  0.17300000000E+03 0. -1.
</event>
<event>
 4    1  0.6239288E+000  0.1000000E+03  0.7546771E-02  0.1280296E+00
         21   -1    0    0  501  502  0.00000000000E+00  0.00000000000E+00  0.15982157464E+04  0.15982157464E+04  0.00000000000E+00 0.  1.
         21   -1    0    0  502  503 -0.00000000000E+00 -0.00000000000E+00 -0.32591912053E+02  0.32591912053E+02  0.00000000000E+00 0.  1.
          6    1    1    2  501    0 -0.21570565312E+02  0.96713375117E+02  0.11797088825E+04  0.11964367153E+04  0.17300000000E+03 0.  1.
         -6    1    1    2    0  503  0.21570565312E+02 -0.96713375117E+02  0.38591495183E+03  0.43437094316E+03  0.17300000000E+03 0.  1.
</event>
<event>
 4    1  0.6239288E+000  0.1000000E+03  0.7546771E-02  0.1280296E+00
         21   -1    0    0  501  502  0.00000000000E+00  0.00000000000E+00  0.20612793324E+04  0.20612793324E+04  0.00000000000E+00 0. -1.
         21   -1    0    0  502  503 -0.00000000000E+00 -0.00000000000E+00 -0.11026640885E+03  0.11026640885E+03  0.00000000000E+00 0.  1.
          6    1    1    2  501    0  0.37294181429E+03  0.17281205370E+03  0.13593853658E+04  0.14306666892E+04  0.17300000000E+03 0. -1.
         -6    1    1    2    0  503 -0.37294181429E+03 -0.17281205370E+03  0.59162755781E+03  0.74087905214E+03  0.17300000000E+03 0.  1.
</event>
<event>
 4    1  0.6239288E+000  0.1000000E+03  0.7546771E-02  0.1280296E+00
         21   -1    0    0  501  502  0.00000000000E+00  0.00000000000E+00  0.95526164993E+02  0.95526164993E+02  0.00000000000E+00 0.  1.
         21   -1    0    0  502  503 -0.00000000000E+00 -0.00000000000E+00 -0.48056152351E+03  0.48056152351E+03  0.00000000000E+00 0. -1.
          6    1    1    2  501    0 -0.10824362881E+03  0.62892547345E+02 -0.16903736229E+03  0.27235048291E+03  0.17300000000E+03 0.  1.
         -6    1    1    2    0  503  0.10824362881E+03 -0.62892547345E+02 -0.21599799623E+03  0.30373720560E+03  0.17300000000E+03 0. -1.
</event>
<event>
 4    1  0.6239288E+000  0.1000000E+03  0.7546771E-02  0.1280296E+00
         21   -1    0    0  501  502  0.00000000000E+00  0.00000000000E+00  0.24719222819E+03  0.24719222819E+03  0.00000000000E+00 0.  1.
         21   -1    0    0  502  503 -0.00000000000E+00 -0.00000000000E+00 -0.17392893760E+03  0.17392893760E+03  0.00000000000E+00 0. -1.
          6    1    1    2  501    0  0.15358802136E+02 -0.35796873964E+02  0.14575534894E+03  0.22954505164E+03  0.17300000000E+03 0.  1.
         -6    1    1    2    0  503 -0.15358802136E+02  0.35796873964E+02 -0.72492058346E+02  0.19157611415E+03  0.17300000000E+03 0. -1.
</event>
<event>
 4    1  0.6239288E+000  0.1000000E+03  0.7546771E-02  0.1280296E+00
         21   -1    0    0  501  502  0.00000000000E+00  0.00000000000E+00  0.15382340016E+03  0.15382340016E+03  0.00000000000E+00 0.  1.
         21   -1    0    0  502  503 -0.00000000000E+00 -0.00000000000E+00 -0.21761082849E+03  0.21761082849E+03  0.00000000000E+00 0. -1.
          6    1    1    2  501    0 -0.57654078260E+02  0.95216928196E+01 -0.20320809521E+02  0.18372966738E+03  0.17300000000E+03 0.  1.
         -6    1    1    2    0  503  0.57654078260E+02 -0.95216928196E+01 -0.43466618806E+02  0.18770456128E+03  0.17300000000E+03 0. -1.
</event>
<event>
 4    1  0.6239288E+000  0.1000000E+03  0.7546771E-02  0.1280296E+00
         21   -1    0    0  501  502  0.00000000000E+00  0.00000000000E+00  0.53702066775E+03  0.53702066775E+03  0.00000000000E+00 0.  1.
         21   -1    0    0  502  503 -0.00000000000E+00 -0.00000000000E+00 -0.38054042016E+03  0.38054042016E+03  0.00000000000E+00 0.  1.
          6    1    1    2  501    0  0.24339799206E+03 -0.19529475893E+02  0.42210646070E+03  0.51742327657E+03  0.17300000000E+03 0.  1.
         -6    1    1    2    0  503 -0.24339799206E+03  0.19529475893E+02 -0.26562621311E+03  0.40013781134E+03  0.17300000000E+03 0.  1.
</event>
<event>
 4    1  0.6239288E+000  0.1000000E+03  0.7546771E-02  0.1280296E+00
         21   -1    0    0  501  502  0.00000000000E+00  0.00000000000E+00  0.17298770221E+03  0.17298770221E+03  0.00000000000E+00 0.  1.
         21   -1    0    0  502  503 -0.00000000000E+00 -0.00000000000E+00 -0.28699246011E+03  0.28699246011E+03  0.00000000000E+00 0.  1.
          6    1    1    2  501    0  0.44418366736E+02  0.98934498308E+02  0.35067475231E+02  0.20717083308E+03  0.17300000000E+03 0.  1.
         -6    1    1    2    0  503 -0.44418366736E+02 -0.98934498308E+02 -0.14907223313E+03  0.25280932924E+03  0.17300000000E+03 0.  1.
</event>
<event>
 4    1  0.6239288E+000  0.1000000E+03  0.7546771E-02  0.1280296E+00
         21   -1    0    0  501  502  0.00000000000E+00  0.00000000000E+00  0.18072615391E+04  0.18072615391E+04  0.00000000000E+00 0. -1.
         21   -1    0    0  502  503 -0.00000000000E+00 -0.00000000000E+00 -0.51309721201E+02  0.51309721201E+02  0.00000000000E+00 0. -1.
          6    1    1    2  501    0 -0.20145597238E+03  0.10118974227E+03  0.12119530762E+04  0.12448225302E+04  0.17300000000E+03 0. -1.
         -6    1    1    2    0  503  0.20145597238E+03 -0.10118974227E+03  0.54399874172E+03  0.61374873013E+03  0.17300000000E+03 0. -1.
</event>
<event>
 4    1  0.6239288E+000  0.1000000E+03  0.7546771E-02  0.1280296E+00
         21   -1    0    0  503  502  0.00000000000E+00  0.00000000000E+00  0.10263385654E+03  0.10263385654E+03  0.00000000000E+00 0.  1.
         21   -1    0    0  501  503 -0.00000000000E+00 -0.00000000000E+00 -0.55151536671E+03  0.55151536671E+03  0.00000000000E+00 0.  1.
          6    1    1    2  501    0  0.94202978243E+02  0.82316567092E+02 -0.36878871011E+03  0.42612713013E+03  0.17300000000E+03 0.  1.
         -6    1    1    2    0  502 -0.94202978243E+02 -0.82316567092E+02 -0.80092800067E+02  0.22802209312E+03  0.17300000000E+03 0.  1.
</event>
<event>
 4    1  0.6239288E+000  0.1000000E+03  0.7546771E-02  0.1280296E+00
         21   -1    0    0  503  502  0.00000000000E+00  0.00000000000E+00  0.38245893020E+03  0.38245893020E+03  0.00000000000E+00 0.  1.
         21   -1    0    0  501  503 -0.00000000000E+00 -0.00000000000E+00 -0.18657811767E+03  0.18657811767E+03  0.00000000000E+00 0.  1.
          6    1    1    2  501    0  0.81854019039E+02 -0.27751452487E+02 -0.98335411434E+02  0.21695408890E+03  0.17300000000E+03 0.  1.
         -6    1    1    2    0  502 -0.81854019039E+02  0.27751452487E+02  0.29421622397E+03  0.35208295897E+03  0.17300000000E+03 0.  1.
</event>
<event>
 4    1  0.6239288E+000  0.1000000E+03  0.7546771E-02  0.1280296E+00
         21   -1    0    0  503  502  0.00000000000E+00  0.00000000000E+00  0.43883782239E+03  0.43883782239E+03  0.00000000000E+00 0.  1.
         21   -1    0    0  501  503 -0.00000000000E+00 -0.00000000000E+00 -0.14090801338E+03  0.14090801338E+03  0.00000000000E+00 0.  1.
          6    1    1    2  501    0 -0.49145075799E+02 -0.11870046296E+03  0.29363290743E+03  0.36421741132E+03  0.17300000000E+03 0.  1.
         -6    1    1    2    0  502  0.49145075799E+02  0.11870046296E+03  0.42969015811E+01  0.21552842445E+03  0.17300000000E+03 0.  1.
</event>
<event>
 4    1  0.6239288E+000  0.1000000E+03  0.7546771E-02  0.1280296E+00
         21   -1    0    0  501  502  0.00000000000E+00  0.00000000000E+00  0.98329800487E+03  0.98329800487E+03  0.00000000000E+00 0.  1.
         21   -1    0    0  502  503 -0.00000000000E+00 -0.00000000000E+00 -0.99184391570E+02  0.99184391570E+02  0.00000000000E+00 0.  1.
          6    1    1    2  501    0  0.13711859534E+03 -0.33311120930E+01  0.82485963364E+03  0.85389403365E+03  0.17300000000E+03 0.  1.
         -6    1    1    2    0  503 -0.13711859534E+03  0.33311120930E+01  0.59253979661E+02  0.22858836279E+03  0.17300000000E+03 0.  1.
</event>
<event>
 4    1  0.6239288E+000  0.1000000E+03  0.7546771E-02  0.1280296E+00
         21   -1    0    0  501  502  0.00000000000E+00  0.00000000000E+00  0.52847829899E+02  0.52847829899E+02  0.00000000000E+00 0.  1.
         21   -1    0    0  502  503 -0.00000000000E+00 -0.00000000000E+00 -0.14859673600E+04  0.14859673600E+04  0.00000000000E+00 0. -1.
          6    1    1    2  501    0  0.16821381814E+02  0.85209374309E+02 -0.16022680485E+03  0.25128713725E+03  0.17300000000E+03 0.  1.
         -6    1    1    2    0  503 -0.16821381814E+02 -0.85209374309E+02 -0.12728927253E+04  0.12875280527E+04  0.17300000000E+03 0. -1.
</event>
<event>
 4    1  0.6239288E+000  0.1000000E+03  0.7546771E-02  0.1280296E+00
         21   -1    0    0  501  502  0.00000000000E+00  0.00000000000E+00  0.96316592388E+03  0.96316592388E+03  0.00000000000E+00 0.  1.
         21   -1    0    0  502  503 -0.00000000000E+00 -0.00000000000E+00 -0.87920980573E+02  0.87920980573E+02  0.00000000000E+00 0. -1.
          6    1    1    2  501    0  0.13097599762E+03 -0.19369340045E+03  0.42130389282E+03  0.51195489590E+03  0.17300000000E+03 0.  1.
         -6    1    1    2    0  503 -0.13097599762E+03  0.19369340045E+03  0.45394105048E+03  0.53913200855E+03  0.17300000000E+03 0. -1.
</event>
<event>
 4    1  0.6239288E+000  0.1000000E+03  0.7546771E-02  0.1280296E+00
         21   -1    0    0  501  502  0.00000000000E+00  0.00000000000E+00  0.22451437490E+03  0.22451437490E+03  0.00000000000E+00 0.  1.
         21   -1    0    0  502  503 -0.00000000000E+00 -0.00000000000E+00 -0.31827047655E+03  0.31827047655E+03  0.00000000000E+00 0. -1.
          6    1    1    2  501    0  0.82352267117E+02  0.18639522377E+03 -0.45364751595E+02  0.27113103111E+03  0.17300000000E+03 0.  1.
         -6    1    1    2    0  503 -0.82352267117E+02 -0.18639522377E+03 -0.48391350055E+02  0.27165382033E+03  0.17300000000E+03 0. -1.
</event>
<event>
 4    1  0.6239288E+000  0.1000000E+03  0.7546771E-02  0.1280296E+00
         21   -1    0    0  501  502  0.00000000000E+00  0.00000000000E+00  0.72190722259E+03  0.72190722259E+03  0.00000000000E+00 0.  1.
         21   -1    0    0  502  503 -0.00000000000E+00 -0.00000000000E+00 -0.58672295413E+03  0.58672295413E+03  0.00000000000E+00 0.  1.
          6    1    1    2  501    0  0.43496957389E+03  0.43068643533E+03 -0.70775168516E+02  0.64002145298E+03  0.17300000000E+03 0.  1.
         -6    1    1    2    0  503 -0.43496957389E+03 -0.43068643533E+03  0.20595943697E+03  0.66860872375E+03  0.17300000000E+03 0.  1.
</event>
<event>
 4    1  0.6239288E+000  0.1000000E+03  0.7546771E-02  0.1280296E+00
         21   -1    0    0  501  502  0.00000000000E+00  0.00000000000E+00  0.88078047612E+02  0.88078047612E+02  0.00000000000E+00 0.  1.
         21   -1    0    0  502  503 -0.00000000000E+00 -0.00000000000E+00 -0.62199912514E+03  0.62199912514E+03  0.00000000000E+00 0.  1.
          6    1    1    2  501    0  0.37286385823E+02  0.14516944194E+03 -0.34113238340E+03  0.41080986410E+03  0.17300000000E+03 0.  1.
         -6    1    1    2    0  503 -0.37286385823E+02 -0.14516944194E+03 -0.19278869413E+03  0.29926730865E+03  0.17300000000E+03 0.  1.
</event>
<event>
 4    1  0.6239288E+000  0.1000000E+03  0.7546771E-02  0.1280296E+00
         21   -1    0    0  501  502  0.00000000000E+00  0.00000000000E+00  0.19967045128E+03  0.19967045128E+03  0.00000000000E+00 0.  1.
         21   -1    0    0  502  503 -0.00000000000E+00 -0.00000000000E+00 -0.63260334241E+03  0.63260334241E+03  0.00000000000E+00 0.  1.
          6    1    1    2  501    0  0.30652011059E+03  0.95263513930E+01 -0.27308037843E+03  0.44558638068E+03  0.17300000000E+03 0.  1.
         -6    1    1    2    0  503 -0.30652011059E+03 -0.95263513930E+01 -0.15985251271E+03  0.38668741301E+03  0.17300000000E+03 0.  1.
</event>
<event>
 4    1  0.6239288E+000  0.1000000E+03  0.7546771E-02  0.1280296E+00
         21   -1    0    0  501  502  0.00000000000E+00  0.00000000000E+00  0.49298963841E+03  0.49298963841E+03  0.00000000000E+00 0.  1.
         21   -1    0    0  502  503 -0.00000000000E+00 -0.00000000000E+00 -0.11192444451E+03  0.11192444451E+03  0.00000000000E+00 0. -1.
          6    1    1    2  501    0 -0.67212380630E+02  0.16475105423E+02  0.37470795272E+03  0.41847817511E+03  0.17300000000E+03 0.  1.
         -6    1    1    2    0  503  0.67212380630E+02 -0.16475105423E+02  0.63572411828E+01  0.18643590782E+03  0.17300000000E+03 0. -1.
</event>
<event>
 4    1  0.6239288E+000  0.1000000E+03  0.7546771E-02  0.1280296E+00
         21   -1    0    0  501  502  0.00000000000E+00  0.00000000000E+00  0.19968568933E+03  0.19968568933E+03  0.00000000000E+00 0.  1.
         21   -1    0    0  502  503 -0.00000000000E+00 -0.00000000000E+00 -0.42877616400E+03  0.42877616400E+03  0.00000000000E+00 0. -1.
          6    1    1    2  501    0  0.19419667957E+03  0.49871956308E+02  0.19118161827E+02  0.26550718727E+03  0.17300000000E+03 0.  1.
         -6    1    1    2    0  503 -0.19419667957E+03 -0.49871956308E+02 -0.24820863649E+03  0.36295466606E+03  0.17300000000E+03 0. -1.
</event>
<event>
 4    1  0.6239288E+000  0.1000000E+03  0.7546771E-02  0.1280296E+00
         21   -1    0    0  503  502  0.00000000000E+00  0.00000000000E+00  0.56885977864E+03  0.56885977864E+03  0.00000000000E+00 0. -1.
         21   -1    0    0  501  503 -0.00000000000E+00 -0.00000000000E+00 -0.72472800623E+02  0.72472800623E+02  0.00000000000E+00 0.  1.
          6    1    1    2  501    0  0.34813942204E+02  0.90316834711E+02  0.17883529511E+03  0.26698352755E+03  0.17300000000E+03 0.  1.
         -6    1    1    2    0  502 -0.34813942204E+02 -0.90316834711E+02  0.31755168291E+03  0.37434905172E+03  0.17300000000E+03 0. -1.
</event>
<event>
 4    1  0.6239288E+000  0.1000000E+03  0.7546771E-02  0.1280296E+00
         21   -1    0    0  503  502  0.00000000000E+00  0.00000000000E+00  0.48871000309E+03  0.48871000309E+03  0.00000000000E+00 0. -1.
         21   -1    0    0  501  503 -0.00000000000E+00 -0.00000000000E+00 -0.13493137312E+03  0.13493137312E+03  0.00000000000E+00 0.  1.
          6    1    1    2  501    0 -0.82574197641E+02  0.37379953437E+02 -0.25564573620E+02  0.19697285716E+03  0.17300000000E+03 0.  1.
         -6    1    1    2    0  502  0.82574197641E+02 -0.37379953437E+02  0.37934320359E+03  0.42666851905E+03  0.17300000000E+03 0. -1.
</event>
<event>
 4    1  0.6239288E+000  0.1000000E+03  0.7546771E-02  0.1280296E+00
         21   -1    0    0  503  502  0.00000000000E+00  0.00000000000E+00  0.10849888210E+03  0.10849888210E+03  0.00000000000E+00 0. -1.
         21   -1    0    0  501  503 -0.00000000000E+00 -0.00000000000E+00 -0.10092320541E+04  0.10092320541E+04  0.00000000000E+00 0.  1.
          6    1    1    2  501    0 -0.67384686986E+02 -0.16327870429E+03 -0.82180882830E+03  0.85819542156E+03  0.17300000000E+03 0.  1.
         -6    1    1    2    0  502  0.67384686986E+02  0.16327870429E+03 -0.78924343654E+02  0.25953551460E+03  0.17300000000E+03 0. -1.
</event>
<event>
 4    1  0.6239288E+000  0.1000000E+03  0.7546771E-02  0.1280296E+00
         21   -1    0    0  501  502  0.00000000000E+00  0.00000000000E+00  0.12035470676E+04  0.12035470676E+04  0.00000000000E+00 0. -1.
         21   -1    0    0  502  503 -0.00000000000E+00 -0.00000000000E+00 -0.41325860014E+02  0.41325860014E+02  0.00000000000E+00 0.  1.
          6    1    1    2  501    0  0.57182879952E+02 -0.12166135955E+03  0.69743843486E+03  0.73104085973E+03  0.17300000000E+03 0.  1.
         -6    1    1    2    0  503 -0.57182879952E+02  0.12166135955E+03  0.46478277270E+03  0.51383206786E+03  0.17300000000E+03 0. -1.
</event>
<event>
 4    1  0.6239288E+000  0.1000000E+03  0.7546771E-02  0.1280296E+00
         21   -1    0    0  503  502  0.00000000000E+00  0.00000000000E+00  0.13365704638E+04  0.13365704638E+04  0.00000000000E+00 0. -1.
         21   -1    0    0  501  503 -0.00000000000E+00 -0.00000000000E+00 -0.13128920123E+03  0.13128920123E+03  0.00000000000E+00 0. -1.
          6    1    1    2  501    0 -0.12621470939E+03  0.28050085148E+03  0.20721716031E+03  0.40924177703E+03  0.17300000000E+03 0. -1.
         -6    1    1    2    0  502  0.12621470939E+03 -0.28050085148E+03  0.99806410229E+03  0.10586178880E+04  0.17300000000E+03 0. -1.
</event>
<event>
 4    1  0.6239288E+000  0.1000000E+03  0.7546771E-02  0.1280296E+00
         21   -1    0    0  501  502  0.00000000000E+00  0.00000000000E+00  0.23938048705E+03  0.23938048705E+03  0.00000000000E+00 0. -1.
         21   -1    0    0  502  503 -0.00000000000E+00 -0.00000000000E+00 -0.16063947293E+03  0.16063947293E+03  0.00000000000E+00 0.  1.
          6    1    1    2  501    0 -0.38993706926E+02  0.79853109141E+02  0.64929030139E+02  0.20504098901E+03  0.17300000000E+03 0.  1.
         -6    1    1    2    0  503  0.38993706926E+02 -0.79853109141E+02  0.13811983988E+02  0.19497897097E+03  0.17300000000E+03 0. -1.
</event>
<event>
 4    1  0.6239288E+000  0.1000000E+03  0.7546771E-02  0.1280296E+00
         21   -1    0    0  503  502  0.00000000000E+00  0.00000000000E+00  0.12859354998E+04  0.12859354998E+04  0.00000000000E+00 0. -1.
         21   -1    0    0  501  503 -0.00000000000E+00 -0.00000000000E+00 -0.33780190988E+02  0.33780190988E+02  0.00000000000E+00 0.  1.
          6    1    1    2  501    0 -0.53114850526E+02  0.96512537888E+02  0.50870988519E+03  0.54849850010E+03  0.17300000000E+03 0.  1.
         -6    1    1    2    0  502  0.53114850526E+02 -0.96512537888E+02  0.74344542361E+03  0.77121719068E+03  0.17300000000E+03 0. -1.
</event>
<event>
 4    1  0.6239288E+000  0.1000000E+03  0.7546771E-02  0.1280296E+00
         21   -1    0    0  501  502  0.00000000000E+00  0.00000000000E+00  0.17973027998E+03  0.17973027998E+03  0.00000000000E+00 0. -1.
         21   -1    0    0  502  503 -0.00000000000E+00 -0.00000000000E+00 -0.39520312634E+03  0.39520312634E+03  0.00000000000E+00 0. -1.
          6    1    1    2  501    0  0.25701445521E+02 -0.27449224025E+02  0.10714089159E+03  0.20693524313E+03  0.17300000000E+03 0. -1.
         -6    1    1    2    0  503 -0.25701445521E+02  0.27449224025E+02 -0.32261373794E+03  0.36799816319E+03  0.17300000000E+03 0. -1.
</event>
<event>
 4    1  0.6239288E+000  0.1000000E+03  0.7546771E-02  0.1280296E+00
         21   -1    0    0  501  502  0.00000000000E+00  0.00000000000E+00  0.65324667912E+03  0.65324667912E+03  0.00000000000E+00 0. -1.
         21   -1    0    0  502  503 -0.00000000000E+00 -0.00000000000E+00 -0.91082994915E+02  0.91082994915E+02  0.00000000000E+00 0. -1.
          6    1    1    2  501    0 -0.76376684446E+02  0.10759105514E+03  0.44933778746E+03  0.49924210591E+03  0.17300000000E+03 0. -1.
         -6    1    1    2    0  503  0.76376684446E+02 -0.10759105514E+03  0.11282589675E+03  0.24508756813E+03  0.17300000000E+03 0. -1.
</event>
<event>
 4    1  0.6239288E+000  0.1000000E+03  0.7546771E-02  0.1280296E+00
         21   -1    0    0  503  502  0.00000000000E+00  0.00000000000E+00  0.12476089177E+03  0.12476089177E+03  0.00000000000E+00 0.  1.
         21   -1    0    0  501  503 -0.00000000000E+00 -0.00000000000E+00 -0.54407147418E+03  0.54407147418E+03  0.00000000000E+00 0.  1.
          6    1    1    2  501    0  0.59249777006E+02 -0.18539004625E+03 -0.19892867372E+03  0.32769135257E+03  0.17300000000E+03 0.  1.
         -6    1    1    2    0  502 -0.59249777006E+02  0.18539004625E+03 -0.22038190869E+03  0.34114101337E+03  0.17300000000E+03 0.  1.
</event>
<event>
 4    1  0.6239288E+000  0.1000000E+03  0.7546771E-02  0.1280296E+00
         21   -1    0    0  503  502  0.00000000000E+00  0.00000000000E+00  0.39917250141E+03  0.39917250141E+03  0.00000000000E+00 0.  1.
         21   -1    0    0  501  503 -0.00000000000E+00 -0.00000000000E+00 -0.13583457144E+03  0.13583457144E+03  0.00000000000E+00 0.  1.
          6    1    1    2  501    0  0.12194182014E+03 -0.77849619877E+02  0.65057887528E+02  0.23471663670E+03  0.17300000000E+03 0. -1.
         -6    1    1    2    0  502 -0.12194182014E+03  0.77849619877E+02  0.19828004243E+03  0.30029043615E+03  0.17300000000E+03 0. -1.
</event>
<event>
 4    1  0.6239288E+000  0.1000000E+03  0.7546771E-02  0.1280296E+00
         21   -1    0    0  503  502  0.00000000000E+00  0.00000000000E+00  0.38914729550E+03  0.38914729550E+03  0.00000000000E+00 0.  1.
         21   -1    0    0  501  503 -0.00000000000E+00 -0.00000000000E+00 -0.12498120640E+03  0.12498120640E+03  0.00000000000E+00 0.  1.
          6    1    1    2  501    0 -0.12788003995E+03 -0.17228822473E+02  0.18494891703E+03  0.28422744212E+03  0.17300000000E+03 0. -1.
         -6    1    1    2    0  502  0.12788003995E+03  0.17228822473E+02  0.79217172065E+02  0.22990105979E+03  0.17300000000E+03 0. -1.
</event>
<event>
 4    1  0.6239288E+000  0.1000000E+03  0.7546771E-02  0.1280296E+00
         21   -1    0    0  501  502  0.00000000000E+00  0.00000000000E+00  0.12135178073E+03  0.12135178073E+03  0.00000000000E+00 0. -1.
         21   -1    0    0  502  503 -0.00000000000E+00 -0.00000000000E+00 -0.37337459732E+03  0.37337459732E+03  0.00000000000E+00 0.  1.
          6    1    1    2  501    0  0.84393419817E+02  0.75915625986E+01 -0.23124817256E+03  0.30097275366E+03  0.17300000000E+03 0.  1.
         -6    1    1    2    0  503 -0.84393419817E+02 -0.75915625986E+01 -0.20774644031E+02  0.19375362439E+03  0.17300000000E+03 0.  1.
</event>
<event>
 4    1  0.6239288E+000  0.1000000E+03  0.7546771E-02  0.1280296E+00
         21   -1    0    0  503  502  0.00000000000E+00  0.00000000000E+00  0.16222400617E+03  0.16222400617E+03  0.00000000000E+00 0.  1.
         21   -1    0    0  501  503 -0.00000000000E+00 -0.00000000000E+00 -0.24120446759E+03  0.24120446759E+03  0.00000000000E+00 0.  1.
          6    1    1    2  501    0  0.16243652226E+02 -0.93349710106E+02 -0.54688367183E+02  0.20468962387E+03  0.17300000000E+03 0.  1.
         -6    1    1    2    0  502 -0.16243652226E+02  0.93349710106E+02 -0.24292094229E+02  0.19873884989E+03  0.17300000000E+03 0.  1.
</event>
<event>
 4    1  0.6239288E+000  0.1000000E+03  0.7546771E-02  0.1280296E+00
         21   -1    0    0  503  502  0.00000000000E+00  0.00000000000E+00  0.12543224992E+03  0.12543224992E+03  0.00000000000E+00 0.  1.
         21   -1    0    0  501  503 -0.00000000000E+00 -0.00000000000E+00 -0.17677292207E+04  0.17677292207E+04  0.00000000000E+00 0.  1.
          6    1    1    2  501    0  0.80089795097E+02 -0.24669461169E+01 -0.16866693704E+04  0.16974106828E+04  0.17300000000E+03 0.  1.
         -6    1    1    2    0  502 -0.80089795097E+02  0.24669461169E+01  0.44372399571E+02  0.19575078785E+03  0.17300000000E+03 0.  1.
</event>
<event>
 4    1  0.6239288E+000  0.1000000E+03  0.7546771E-02  0.1280296E+00
         21   -1    0    0  503  502  0.00000000000E+00  0.00000000000E+00  0.15735957198E+03  0.15735957198E+03  0.00000000000E+00 0.  1.
         21   -1    0    0  501  503 -0.00000000000E+00 -0.00000000000E+00 -0.72103338159E+03  0.72103338159E+03  0.00000000000E+00 0.  1.
          6    1    1    2  501    0 -0.21498297954E+03 -0.12645653973E+03 -0.47223583337E+03  0.56137743119E+03  0.17300000000E+03 0.  1.
         -6    1    1    2    0  502  0.21498297954E+03  0.12645653973E+03 -0.91437976235E+02  0.31701552238E+03  0.17300000000E+03 0.  1.
</event>
<event>
 4    1  0.6239288E+000  0.1000000E+03  0.7546771E-02  0.1280296E+00
         21   -1    0    0  503  502  0.00000000000E+00  0.00000000000E+00  0.12167834261E+04  0.12167834261E+04  0.00000000000E+00 0.  1.
         21   -1    0    0  501  503 -0.00000000000E+00 -0.00000000000E+00 -0.30427106777E+02  0.30427106777E+02  0.00000000000E+00 0.  1.
          6    1    1    2  501    0  0.12465099561E+02  0.80551191943E+02  0.52440225478E+03  0.55818509300E+03  0.17300000000E+03 0.  1.
         -6    1    1    2    0  502 -0.12465099561E+02 -0.80551191943E+02  0.66195406453E+03  0.68902543986E+03  0.17300000000E+03 0.  1.
</event>
<event>
 4    1  0.6239288E+000  0.1000000E+03  0.7546771E-02  0.1280296E+00
         21   -1    0    0  503  502  0.00000000000E+00  0.00000000000E+00  0.23390480125E+03  0.23390480125E+03  0.00000000000E+00 0.  1.
         21   -1    0    0  501  503 -0.00000000000E+00 -0.00000000000E+00 -0.39498811631E+03  0.39498811631E+03  0.00000000000E+00 0.  1.
          6    1    1    2  501    0  0.49192120564E+01  0.83090633845E+02 -0.32432734733E+03  0.37688921490E+03  0.17300000000E+03 0.  1.
         -6    1    1    2    0  502 -0.49192120564E+01 -0.83090633845E+02  0.16324403227E+03  0.25200370266E+03  0.17300000000E+03 0.  1.
</event>
<event>
 4    1  0.6239288E+000  0.1000000E+03  0.7546771E-02  0.1280296E+00
         21   -1    0    0  503  502  0.00000000000E+00  0.00000000000E+00  0.13713481093E+03  0.13713481093E+03  0.00000000000E+00 0.  1.
         21   -1    0    0  501  503 -0.00000000000E+00 -0.00000000000E+00 -0.27356648939E+03  0.27356648939E+03  0.00000000000E+00 0.  1.
          6    1    1    2  501    0  0.16772470112E+02 -0.43780678135E+02 -0.14604130159E+03  0.23120364466E+03  0.17300000000E+03 0.  1.
         -6    1    1    2    0  502 -0.16772470112E+02  0.43780678135E+02  0.96096231323E+01  0.17949765566E+03  0.17300000000E+03 0.  1.
</event>
<event>
 4    1  0.6239288E+000  0.1000000E+03  0.7546771E-02  0.1280296E+00
         21   -1    0    0  501  502  0.00000000000E+00  0.00000000000E+00  0.76135098142E+02  0.76135098142E+02  0.00000000000E+00 0.  1.
         21   -1    0    0  502  503 -0.00000000000E+00 -0.00000000000E+00 -0.43164541936E+03  0.43164541936E+03  0.00000000000E+00 0. -1.
          6    1    1    2  501    0 -0.30805408989E+02  0.29562873086E+02 -0.13106439358E+03  0.22120084076E+03  0.17300000000E+03 0. -1.
         -6    1    1    2    0  503  0.30805408989E+02 -0.29562873086E+02 -0.22444592764E+03  0.28657967674E+03  0.17300000000E+03 0. -1.
</event>
<event>
 4    1  0.6239288E+000  0.1000000E+03  0.7546771E-02  0.1280296E+00
         21   -1    0    0  501  502  0.00000000000E+00  0.00000000000E+00  0.70052532610E+02  0.70052532610E+02  0.00000000000E+00 0. -1.
         21   -1    0    0  502  503 -0.00000000000E+00 -0.00000000000E+00 -0.73964087736E+03  0.73964087736E+03  0.00000000000E+00 0.  1.
          6    1    1    2  501    0 -0.19717771284E+02  0.47915843320E+02 -0.88349843236E+02  0.20104579912E+03  0.17300000000E+03 0. -1.
         -6    1    1    2    0  503  0.19717771284E+02 -0.47915843320E+02 -0.58123850151E+03  0.60864761084E+03  0.17300000000E+03 0.  1.
</event>
<event>
 4    1  0.6239288E+000  0.1000000E+03  0.7546771E-02  0.1280296E+00
         21   -1    0    0  501  502  0.00000000000E+00  0.00000000000E+00  0.24473832681E+03  0.24473832681E+03  0.00000000000E+00 0. -1.
         21   -1    0    0  502  503 -0.00000000000E+00 -0.00000000000E+00 -0.29196787871E+03  0.29196787871E+03  0.00000000000E+00 0.  1.
          6    1    1    2  501    0  0.32259599877E+02  0.11882160540E+03  0.13939826805E+03  0.25400813536E+03  0.17300000000E+03 0. -1.
         -6    1    1    2    0  503 -0.32259599877E+02 -0.11882160540E+03 -0.18662781995E+03  0.28269807016E+03  0.17300000000E+03 0.  1.
</event>
<event>
 4    1  0.6239288E+000  0.1000000E+03  0.7546771E-02  0.1280296E+00
         21   -1    0    0  501  502  0.00000000000E+00  0.00000000000E+00  0.48410264366E+03  0.48410264366E+03  0.00000000000E+00 0. -1.
         21   -1    0    0  502  503 -0.00000000000E+00 -0.00000000000E+00 -0.27868995479E+03  0.27868995479E+03  0.00000000000E+00 0.  1.
          6    1    1    2  501    0 -0.29386115876E+03  0.93854579233E+01  0.24410262454E+03  0.41947295355E+03  0.17300000000E+03 0. -1.
         -6    1    1    2    0  503  0.29386115876E+03 -0.93854579233E+01 -0.38689935671E+02  0.34331964490E+03  0.17300000000E+03 0.  1.
</event>
<event>
 4    1  0.6239288E+000  0.1000000E+03  0.7546771E-02  0.1280296E+00
         21   -1    0    0  503  502  0.00000000000E+00  0.00000000000E+00  0.13927085530E+03  0.13927085530E+03  0.00000000000E+00 0. -1.
         21   -1    0    0  501  503 -0.00000000000E+00 -0.00000000000E+00 -0.46716476787E+03  0.46716476787E+03  0.00000000000E+00 0.  1.
          6    1    1    2  501    0  0.11771241966E+03  0.14427994458E+03 -0.13843674269E+03  0.28942468429E+03  0.17300000000E+03 0.  1.
         -6    1    1    2    0  502 -0.11771241966E+03 -0.14427994458E+03 -0.18945716988E+03  0.31701093888E+03  0.17300000000E+03 0.  1.
</event>
<event>
 4    1  0.6239288E+000  0.1000000E+03  0.7546771E-02  0.1280296E+00
         21   -1    0    0  503  502  0.00000000000E+00  0.00000000000E+00  0.20692063940E+03  0.20692063940E+03  0.00000000000E+00 0. -1.
         21   -1    0    0  501  503 -0.00000000000E+00 -0.00000000000E+00 -0.21240139563E+03  0.21240139563E+03  0.00000000000E+00 0.  1.
          6    1    1    2  501    0 -0.53658649939E+02  0.64124473368E+02 -0.86592837829E+02  0.21075701260E+03  0.17300000000E+03 0.  1.
         -6    1    1    2    0  502  0.53658649939E+02 -0.64124473368E+02  0.81112081593E+02  0.20856502242E+03  0.17300000000E+03 0.  1.
</event>
<event>
 4    1  0.6239288E+000  0.1000000E+03  0.7546771E-02  0.1280296E+00
         21   -1    0    0  501  502  0.00000000000E+00  0.00000000000E+00  0.11266135289E+03  0.11266135289E+03  0.00000000000E+00 0. -1.
         21   -1    0    0  502  503 -0.00000000000E+00 -0.00000000000E+00 -0.97386471608E+03  0.97386471608E+03  0.00000000000E+00 0. -1.
          6    1    1    2  501    0 -0.84415776125E+02  0.82733608088E+02 -0.98338376392E+01  0.20975361148E+03  0.17300000000E+03 0. -1.
         -6    1    1    2    0  503  0.84415776125E+02 -0.82733608088E+02 -0.85136952555E+03  0.87677245749E+03  0.17300000000E+03 0. -1.
</event>
<event>
 4    1  0.6239288E+000  0.1000000E+03  0.7546771E-02  0.1280296E+00
         21   -1    0    0  501  502  0.00000000000E+00  0.00000000000E+00  0.10188426431E+03  0.10188426431E+03  0.00000000000E+00 0. -1.
         21   -1    0    0  502  503 -0.00000000000E+00 -0.00000000000E+00 -0.43882576810E+03  0.43882576810E+03  0.00000000000E+00 0. -1.
          6    1    1    2  501    0 -0.23768688300E+02  0.61140885730E+02 -0.37595017185E+02  0.18880027481E+03  0.17300000000E+03 0. -1.
         -6    1    1    2    0  503  0.23768688300E+02 -0.61140885730E+02 -0.29934648660E+03  0.35190975760E+03  0.17300000000E+03 0. -1.
</event>
<event>
 4    1  0.6239288E+000  0.1000000E+03  0.7546771E-02  0.1280296E+00
         21   -1    0    0  503  502  0.00000000000E+00  0.00000000000E+00  0.15697541893E+03  0.15697541893E+03  0.00000000000E+00 0. -1.
         21   -1    0    0  501  503 -0.00000000000E+00 -0.00000000000E+00 -0.25575100629E+03  0.25575100629E+03  0.00000000000E+00 0. -1.
          6    1    1    2  501    0 -0.11607683681E+01 -0.19957311073E+00 -0.15348838541E+03  0.23127704527E+03  0.17300000000E+03 0. -1.
         -6    1    1    2    0  502  0.11607683681E+01  0.19957311073E+00  0.54712798052E+02  0.18144937995E+03  0.17300000000E+03 0. -1.
</event>
<event>
 4    1  0.6239288E+000  0.1000000E+03  0.7546771E-02  0.1280296E+00
         21   -1    0    0  503  502  0.00000000000E+00  0.00000000000E+00  0.39522350707E+02  0.39522350707E+02  0.00000000000E+00 0. -1.
         21   -1    0    0  501  503 -0.00000000000E+00 -0.00000000000E+00 -0.10176771623E+04  0.10176771623E+04  0.00000000000E+00 0. -1.
          6    1    1    2  501    0  0.47849932150E+02 -0.87728990985E+02 -0.53518395147E+03  0.57125900761E+03  0.17300000000E+03 0. -1.
         -6    1    1    2    0  502 -0.47849932150E+02  0.87728990985E+02 -0.44297086011E+03  0.48594050539E+03  0.17300000000E+03 0. -1.
</event>
<event>
 4    1  0.6239288E+000  0.1000000E+03  0.7546771E-02  0.1280296E+00
         21   -1    0    0  503  502  0.00000000000E+00  0.00000000000E+00  0.13337809581E+04  0.13337809581E+04  0.00000000000E+00 0. -1.
         21   -1    0    0  501  503 -0.00000000000E+00 -0.00000000000E+00 -0.34421713378E+02  0.34421713378E+02  0.00000000000E+00 0. -1.
          6    1    1    2  501    0 -0.88364473092E+02 -0.35504987923E+02  0.38421927063E+03  0.43199806966E+03  0.17300000000E+03 0. -1.
         -6    1    1    2    0  502  0.88364473092E+02  0.35504987923E+02  0.91513997414E+03  0.93620460186E+03  0.17300000000E+03 0. -1.
</event>
<event>
 4    1  0.6239288E+000  0.1000000E+03  0.7546771E-02  0.1280296E+00
         21   -1    0    0  503  502  0.00000000000E+00  0.00000000000E+00  0.89841540960E+02  0.89841540960E+02  0.00000000000E+00 0. -1.
         21   -1    0    0  501  503 -0.00000000000E+00 -0.00000000000E+00 -0.63267716304E+03  0.63267716304E+03  0.00000000000E+00 0. -1.
          6    1    1    2  501    0 -0.36570700183E+02  0.62944567171E+01 -0.51355105474E+03  0.54317651102E+03  0.17300000000E+03 0. -1.
         -6    1    1    2    0  502  0.36570700183E+02 -0.62944567171E+01 -0.29284567334E+02  0.17934219298E+03  0.17300000000E+03 0. -1.
</event>
<event>
 4    1  0.6239288E+000  0.1000000E+03  0.7546771E-02  0.1280296E+00
         21   -1    0    0  503  502  0.00000000000E+00  0.00000000000E+00  0.66298363153E+03  0.66298363153E+03  0.00000000000E+00 0. -1.
         21   -1    0    0  501  503 -0.00000000000E+00 -0.00000000000E+00 -0.44679965276E+03  0.44679965276E+03  0.00000000000E+00 0. -1.
          6    1    1    2  501    0 -0.30337675541E+03 -0.41123965217E+02 -0.31542855780E+03  0.47239052839E+03  0.17300000000E+03 0. -1.
         -6    1    1    2    0  502  0.30337675541E+03  0.41123965217E+02  0.53161253657E+03  0.63739275590E+03  0.17300000000E+03 0. -1.
</event>
<event>
 4    1  0.6239288E+000  0.1000000E+03  0.7546771E-02  0.1280296E+00
         21   -1    0    0  503  502  0.00000000000E+00  0.00000000000E+00  0.23871180500E+03  0.23871180500E+03  0.00000000000E+00 0.  1.
         21   -1    0    0  501  503 -0.00000000000E+00 -0.00000000000E+00 -0.22630434729E+03  0.22630434729E+03  0.00000000000E+00 0. -1.
          6    1    1    2  501    0 -0.40960317550E+02  0.13947162291E+03 -0.48243938902E+02  0.23105531557E+03  0.17300000000E+03 0. -1.
         -6    1    1    2    0  502  0.40960317550E+02 -0.13947162291E+03  0.60651396607E+02  0.23396083672E+03  0.17300000000E+03 0.  1.
</event>
<event>
 4    1  0.6239288E+000  0.1000000E+03  0.7546771E-02  0.1280296E+00
         21   -1    0    0  501  502  0.00000000000E+00  0.00000000000E+00  0.11703599148E+03  0.11703599148E+03  0.00000000000E+00 0.  1.
         21   -1    0    0  502  503 -0.00000000000E+00 -0.00000000000E+00 -0.18733606059E+04  0.18733606059E+04  0.00000000000E+00 0. -1.
          6    1    1    2  501    0 -0.36050727331E+03 -0.87379621036E+02 -0.39480047976E+03  0.56868014832E+03  0.17300000000E+03 0.  1.
         -6    1    1    2    0  503  0.36050727331E+03  0.87379621036E+02 -0.13615241347E+04  0.14217164491E+04  0.17300000000E+03 0. -1.
</event>
<event>
 4    1  0.6239288E+000  0.1000000E+03  0.7546771E-02  0.1280296E+00
         21   -1    0    0  501  502  0.00000000000E+00  0.00000000000E+00  0.74393569923E+02  0.74393569923E+02  0.00000000000E+00 0.  1.
         21   -1    0    0  502  503 -0.00000000000E+00 -0.00000000000E+00 -0.44611695684E+03  0.44611695684E+03  0.00000000000E+00 0. -1.
          6    1    1    2  501    0 -0.32626405034E+02  0.15069229745E+02 -0.12249172641E+03  0.21499950472E+03  0.17300000000E+03 0.  1.
         -6    1    1    2    0  503  0.32626405034E+02 -0.15069229745E+02 -0.24923166050E+03  0.30551102204E+03  0.17300000000E+03 0. -1.
</event>
<event>
 4    1  0.6239288E+000  0.1000000E+03  0.7546771E-02  0.1280296E+00
         21   -1    0    0  503  502  0.00000000000E+00  0.00000000000E+00  0.37113378493E+03  0.37113378493E+03  0.00000000000E+00 0.  1.
         21   -1    0    0  501  503 -0.00000000000E+00 -0.00000000000E+00 -0.16712039997E+03  0.16712039997E+03  0.00000000000E+00 0.  1.
          6    1    1    2  501    0 -0.12972427097E+03  0.10252760916E+02 -0.31053708161E+02  0.21869348041E+03  0.17300000000E+03 0.  1.
         -6    1    1    2    0  502  0.12972427097E+03 -0.10252760916E+02  0.23506709312E+03  0.31956070449E+03  0.17300000000E+03 0.  1.
</event>
<event>
 4    1  0.6239288E+000  0.1000000E+03  0.7546771E-02  0.1280296E+00
         21   -1    0    0  503  502  0.00000000000E+00  0.00000000000E+00  0.46730866700E+02  0.46730866700E+02  0.00000000000E+00 0.  1.
         21   -1    0    0  501  503 -0.00000000000E+00 -0.00000000000E+00 -0.13667589882E+04  0.13667589882E+04  0.00000000000E+00 0.  1.
          6    1    1    2  501    0 -0.12112190089E+02 -0.29487275464E+02 -0.11674430189E+04  0.11806220424E+04  0.17300000000E+03 0.  1.
         -6    1    1    2    0  502  0.12112190089E+02  0.29487275464E+02 -0.15258510253E+03  0.23286781245E+03  0.17300000000E+03 0.  1.
</event>
<event>
 4    1  0.6239288E+000  0.1000000E+03  0.7546771E-02  0.1280296E+00
         21   -1    0    0  503  502  0.00000000000E+00  0.00000000000E+00  0.15521660417E+03  0.15521660417E+03  0.00000000000E+00 0.  1.
         21   -1    0    0  501  503 -0.00000000000E+00 -0.00000000000E+00 -0.20892883541E+03  0.20892883541E+03  0.00000000000E+00 0.  1.
          6    1    1    2  501    0 -0.13430350612E+02  0.30119562141E+02  0.11144946164E+02  0.17646748189E+03  0.17300000000E+03 0.  1.
         -6    1    1    2    0  502  0.13430350612E+02 -0.30119562141E+02 -0.64857177404E+02  0.18767795769E+03  0.17300000000E+03 0.  1.
</event>
<event>
 4    1  0.6239288E+000  0.1000000E+03  0.7546771E-02  0.1280296E+00
         21   -1    0    0  501  502  0.00000000000E+00  0.00000000000E+00  0.14569822574E+02  0.14569822574E+02  0.00000000000E+00 0.  1.
         21   -1    0    0  502  503 -0.00000000000E+00 -0.00000000000E+00 -0.27733784023E+04  0.27733784023E+04  0.00000000000E+00 0. -1.
          6    1    1    2  501    0  0.33837095588E+02 -0.62305134423E+02 -0.86737939672E+03  0.88730090537E+03  0.17300000000E+03 0.  1.
         -6    1    1    2    0  503 -0.33837095588E+02  0.62305134423E+02 -0.18914291830E+04  0.19006473195E+04  0.17300000000E+03 0. -1.
</event>
<event>
 4    1  0.6239288E+000  0.1000000E+03  0.7546771E-02  0.1280296E+00
         21   -1    0    0  501  502  0.00000000000E+00  0.00000000000E+00  0.25698773432E+03  0.25698773432E+03  0.00000000000E+00 0.  1.
         21   -1    0    0  502  503 -0.00000000000E+00 -0.00000000000E+00 -0.23244687105E+03  0.23244687105E+03  0.00000000000E+00 0. -1.
          6    1    1    2  501    0  0.52273305624E+02 -0.59660817709E+02 -0.14126898491E+03  0.23701864430E+03  0.17300000000E+03 0.  1.
         -6    1    1    2    0  503 -0.52273305624E+02  0.59660817709E+02  0.16580984817E+03  0.25241596107E+03  0.17300000000E+03 0. -1.
</event>
<event>
 4    1  0.6239288E+000  0.1000000E+03  0.7546771E-02  0.1280296E+00
         21   -1    0    0  501  502  0.00000000000E+00  0.00000000000E+00  0.20123846326E+03  0.20123846326E+03  0.00000000000E+00 0.  1.
         21   -1    0    0  502  503 -0.00000000000E+00 -0.00000000000E+00 -0.20957737266E+03  0.20957737266E+03  0.00000000000E+00 0. -1.
          6    1    1    2  501    0  0.54951493583E+02  0.88607501851E+02 -0.41259064786E+02  0.20616077818E+03  0.17300000000E+03 0.  1.
         -6    1    1    2    0  503 -0.54951493583E+02 -0.88607501851E+02  0.32920155390E+02  0.20465505775E+03  0.17300000000E+03 0. -1.
</event>
<event>
 4    1  0.6239288E+000  0.1000000E+03  0.7546771E-02  0.1280296E+00
         21   -1    0    0  501  502  0.00000000000E+00  0.00000000000E+00  0.21501124796E+03  0.21501124796E+03  0.00000000000E+00 0. -1.
         21   -1    0    0  502  503 -0.00000000000E+00 -0.00000000000E+00 -0.25684800576E+03  0.25684800576E+03  0.00000000000E+00 0. -1.
          6    1    1    2  501    0 -0.80592558041E+02 -0.41089778142E+02  0.11041430096E+03  0.22428519375E+03  0.17300000000E+03 0. -1.
         -6    1    1    2    0  503  0.80592558041E+02  0.41089778142E+02 -0.15225105876E+03  0.24757405998E+03  0.17300000000E+03 0. -1.
</event>
<event>
 4    1  0.6239288E+000  0.1000000E+03  0.7546771E-02  0.1280296E+00
         21   -1    0    0  501  502  0.00000000000E+00  0.00000000000E+00  0.11064794867E+04  0.11064794867E+04  0.00000000000E+00 0. -1.
         21   -1    0    0  502  503 -0.00000000000E+00 -0.00000000000E+00 -0.74501566928E+03  0.74501566928E+03  0.00000000000E+00 0. -1.
          6    1    1    2  501    0 -0.73244347881E+02  0.40805989992E+03  0.98522275940E+03  0.10828067704E+04  0.17300000000E+03 0. -1.
         -6    1    1    2    0  503  0.73244347881E+02 -0.40805989992E+03 -0.62375894197E+03  0.76868838557E+03  0.17300000000E+03 0. -1.
</event>
<event>
 4    1  0.6239288E+000  0.1000000E+03  0.7546771E-02  0.1280296E+00
         21   -1    0    0  503  502  0.00000000000E+00  0.00000000000E+00  0.23165407857E+04  0.23165407857E+04  0.00000000000E+00 0.  1.
         21   -1    0    0  501  503 -0.00000000000E+00 -0.00000000000E+00 -0.42430656757E+02  0.42430656757E+02  0.00000000000E+00 0.  1.
          6    1    1    2  501    0 -0.11487137516E+03 -0.43715020543E+02  0.26885298421E+03  0.34251622293E+03  0.17300000000E+03 0.  1.
         -6    1    1    2    0  502  0.11487137516E+03  0.43715020543E+02  0.20052571447E+04  0.20164552195E+04  0.17300000000E+03 0.  1.
</event>
<event>
 4    1  0.6239288E+000  0.1000000E+03  0.7546771E-02  0.1280296E+00
         21   -1    0    0  503  502  0.00000000000E+00  0.00000000000E+00  0.55126693027E+03  0.55126693027E+03  0.00000000000E+00 0.  1.
         21   -1    0    0  501  503 -0.00000000000E+00 -0.00000000000E+00 -0.67254550351E+02  0.67254550351E+02  0.00000000000E+00 0.  1.
          6    1    1    2  501    0 -0.26454559396E+02  0.26784458173E+02  0.12043775483E+03  0.21412964228E+03  0.17300000000E+03 0.  1.
         -6    1    1    2    0  502  0.26454559396E+02 -0.26784458173E+02  0.36357462508E+03  0.40439183834E+03  0.17300000000E+03 0.  1.
</event>
<event>
 4    1  0.6239288E+000  0.1000000E+03  0.7546771E-02  0.1280296E+00
         21   -1    0    0  501  502  0.00000000000E+00  0.00000000000E+00  0.51242200561E+02  0.51242200561E+02  0.00000000000E+00 0.  1.
         21   -1    0    0  502  503 -0.00000000000E+00 -0.00000000000E+00 -0.73384938374E+03  0.73384938374E+03  0.00000000000E+00 0.  1.
          6    1    1    2  501    0 -0.33069677320E+02  0.75444809206E+02 -0.28092897665E+03  0.34005236761E+03  0.17300000000E+03 0.  1.
         -6    1    1    2    0  503  0.33069677320E+02 -0.75444809206E+02 -0.40167820653E+03  0.44503921670E+03  0.17300000000E+03 0.  1.
</event>
<event>
 4    1  0.6239288E+000  0.1000000E+03  0.7546771E-02  0.1280296E+00
         21   -1    0    0  501  502  0.00000000000E+00  0.00000000000E+00  0.56201606969E+02  0.56201606969E+02  0.00000000000E+00 0.  1.
         21   -1    0    0  502  503 -0.00000000000E+00 -0.00000000000E+00 -0.65868265067E+03  0.65868265067E+03  0.00000000000E+00 0.  1.
          6    1    1    2  501    0  0.51908369022E+02 -0.35546574432E+02 -0.19727169449E+03  0.26982060554E+03  0.17300000000E+03 0.  1.
         -6    1    1    2    0  503 -0.51908369022E+02  0.35546574432E+02 -0.40520934922E+03  0.44506365210E+03  0.17300000000E+03 0.  1.
</event>
<event>
 4    1  0.6239288E+000  0.1000000E+03  0.7546771E-02  0.1280296E+00
         21   -1    0    0  501  502  0.00000000000E+00  0.00000000000E+00  0.54218813062E+03  0.54218813062E+03  0.00000000000E+00 0.  1.
         21   -1    0    0  502  503 -0.00000000000E+00 -0.00000000000E+00 -0.26147691966E+03  0.26147691966E+03  0.00000000000E+00 0.  1.
          6    1    1    2  501    0  0.94984726769E+01 -0.60631518166E+02  0.49120003020E+03  0.52437855758E+03  0.17300000000E+03 0.  1.
         -6    1    1    2    0  503 -0.94984726769E+01  0.60631518166E+02 -0.21048881924E+03  0.27928649270E+03  0.17300000000E+03 0.  1.
</event>
<event>
 4    1  0.6239288E+000  0.1000000E+03  0.7546771E-02  0.1280296E+00
         21   -1    0    0  503  502  0.00000000000E+00  0.00000000000E+00  0.33359816820E+03  0.33359816820E+03  0.00000000000E+00 0. -1.
         21   -1    0    0  501  503 -0.00000000000E+00 -0.00000000000E+00 -0.40817989266E+03  0.40817989266E+03  0.00000000000E+00 0.  1.
          6    1    1    2  501    0 -0.10814093780E+01  0.20297868805E+03 -0.29361436757E+03  0.39666095610E+03  0.17300000000E+03 0. -1.
         -6    1    1    2    0  502  0.10814093780E+01 -0.20297868805E+03  0.21903264311E+03  0.34511710476E+03  0.17300000000E+03 0. -1.
</event>
<event>
 4    1  0.6239288E+000  0.1000000E+03  0.7546771E-02  0.1280296E+00
         21   -1    0    0  503  502  0.00000000000E+00  0.00000000000E+00  0.52067926891E+03  0.52067926891E+03  0.00000000000E+00 0. -1.
         21   -1    0    0  501  503 -0.00000000000E+00 -0.00000000000E+00 -0.73245485155E+02  0.73245485155E+02  0.00000000000E+00 0.  1.
          6    1    1    2  501    0  0.87412659583E+02 -0.22846384313E+02  0.21346240852E+03  0.28923715215E+03  0.17300000000E+03 0. -1.
         -6    1    1    2    0  502 -0.87412659583E+02  0.22846384313E+02  0.23397137523E+03  0.30468760191E+03  0.17300000000E+03 0. -1.
</event>
<event>
 4    1  0.6239288E+000  0.1000000E+03  0.7546771E-02  0.1280296E+00
         21   -1    0    0  501  502  0.00000000000E+00  0.00000000000E+00  0.10002172013E+03  0.10002172013E+03  0.00000000000E+00 0. -1.
         21   -1    0    0  502  503 -0.00000000000E+00 -0.00000000000E+00 -0.35223206870E+03  0.35223206870E+03  0.00000000000E+00 0.  1.
          6    1    1    2  501    0 -0.15738311705E+02 -0.29316262016E+02 -0.48078681555E+02  0.18261351892E+03  0.17300000000E+03 0.  1.
         -6    1    1    2    0  503  0.15738311705E+02  0.29316262016E+02 -0.20413166702E+03  0.26964026990E+03  0.17300000000E+03 0. -1.
</event>
<event>
 4    1  0.6239288E+000  0.1000000E+03  0.7546771E-02  0.1280296E+00
         21   -1    0    0  501  502  0.00000000000E+00  0.00000000000E+00  0.37270553843E+03  0.37270553843E+03  0.00000000000E+00 0. -1.
         21   -1    0    0  502  503 -0.00000000000E+00 -0.00000000000E+00 -0.19165340554E+03  0.19165340554E+03  0.00000000000E+00 0.  1.
          6    1    1    2  501    0  0.90662313912E+02  0.54470307720E+02  0.27435347266E+03  0.34115318780E+03  0.17300000000E+03 0.  1.
         -6    1    1    2    0  503 -0.90662313912E+02 -0.54470307720E+02 -0.93301339770E+02  0.22320575618E+03  0.17300000000E+03 0. -1.
</event>
<event>
 4    1  0.6239288E+000  0.1000000E+03  0.7546771E-02  0.1280296E+00
         21   -1    0    0  501  502  0.00000000000E+00  0.00000000000E+00  0.71402513089E+03  0.71402513089E+03  0.00000000000E+00 0. -1.
         21   -1    0    0  502  503 -0.00000000000E+00 -0.00000000000E+00 -0.10079104246E+03  0.10079104246E+03  0.00000000000E+00 0.  1.
          6    1    1    2  501    0 -0.15460726314E+03  0.12424555412E+03  0.38549956637E+03  0.46677540552E+03  0.17300000000E+03 0. -1.
         -6    1    1    2    0  503  0.15460726314E+03 -0.12424555412E+03  0.22773452206E+03  0.34804076783E+03  0.17300000000E+03 0.  1.
</event>
<event>
 4    1  0.6239288E+000  0.1000000E+03  0.7546771E-02  0.1280296E+00
         21   -1    0    0  501  502  0.00000000000E+00  0.00000000000E+00  0.59097601778E+03  0.59097601778E+03  0.00000000000E+00 0. -1.
         21   -1    0    0  502  503 -0.00000000000E+00 -0.00000000000E+00 -0.14264049867E+03  0.14264049867E+03  0.00000000000E+00 0.  1.
          6    1    1    2  501    0 -0.83580456562E+02 -0.52463460615E+02  0.49106631713E+03  0.52991814013E+03  0.17300000000E+03 0. -1.
         -6    1    1    2    0  503  0.83580456562E+02  0.52463460615E+02 -0.42730798016E+02  0.20369837633E+03  0.17300000000E+03 0.  1.
</event>
<event>
 4    1  0.6239288E+000  0.1000000E+03  0.7546771E-02  0.1280296E+00
         21   -1    0    0  503  502  0.00000000000E+00  0.00000000000E+00  0.24116657571E+03  0.24116657571E+03  0.00000000000E+00 0.  1.
         21   -1    0    0  501  503 -0.00000000000E+00 -0.00000000000E+00 -0.14343571289E+03  0.14343571289E+03  0.00000000000E+00 0. -1.
          6    1    1    2  501    0 -0.29027406318E+02 -0.34290239395E+02 -0.43044307336E+01  0.17879020935E+03  0.17300000000E+03 0. -1.
         -6    1    1    2    0  502  0.29027406318E+02  0.34290239395E+02  0.10203529356E+03  0.20581207925E+03  0.17300000000E+03 0.  1.
</event>
<event>
 4    1  0.6239288E+000  0.1000000E+03  0.7546771E-02  0.1280296E+00
         21   -1    0    0  503  502  0.00000000000E+00  0.00000000000E+00  0.78105376723E+03  0.78105376723E+03  0.00000000000E+00 0.  1.
         21   -1    0    0  501  503 -0.00000000000E+00 -0.00000000000E+00 -0.39785382069E+02  0.39785382069E+02  0.00000000000E+00 0. -1.
          6    1    1    2  501    0 -0.24331062049E+02  0.20737053413E+02  0.34476080461E+03  0.38705430932E+03  0.17300000000E+03 0. -1.
         -6    1    1    2    0  502  0.24331062049E+02 -0.20737053413E+02  0.39650758055E+03  0.43378483998E+03  0.17300000000E+03 0.  1.
</event>
<event>
 4    1  0.6239288E+000  0.1000000E+03  0.7546771E-02  0.1280296E+00
         21   -1    0    0  503  502  0.00000000000E+00  0.00000000000E+00  0.34210080720E+03  0.34210080720E+03  0.00000000000E+00 0.  1.
         21   -1    0    0  501  503 -0.00000000000E+00 -0.00000000000E+00 -0.22590564992E+03  0.22590564992E+03  0.00000000000E+00 0. -1.
          6    1    1    2  501    0 -0.15736124886E+03 -0.15384255996E+02 -0.94645978468E+02  0.25275699637E+03  0.17300000000E+03 0. -1.
         -6    1    1    2    0  502  0.15736124886E+03  0.15384255996E+02  0.21084113575E+03  0.31524946074E+03  0.17300000000E+03 0.  1.
</event>
<event>
 4    1  0.6239288E+000  0.1000000E+03  0.7546771E-02  0.1280296E+00
         21   -1    0    0  503  502  0.00000000000E+00  0.00000000000E+00  0.83292381165E+03  0.83292381165E+03  0.00000000000E+00 0.  1.
         21   -1    0    0  501  503 -0.00000000000E+00 -0.00000000000E+00 -0.56604818813E+02  0.56604818813E+02  0.00000000000E+00 0.  1.
          6    1    1    2  501    0  0.66686732275E+01  0.88335655718E+02  0.18987447634E+03  0.27171488005E+03  0.17300000000E+03 0.  1.
         -6    1    1    2    0  502 -0.66686732275E+01 -0.88335655718E+02  0.58644451649E+03  0.61781375041E+03  0.17300000000E+03 0.  1.
</event>
<event>
 4    1  0.6239288E+000  0.1000000E+03  0.7546771E-02  0.1280296E+00
         21   -1    0    0  501  502  0.00000000000E+00  0.00000000000E+00  0.45644846767E+03  0.45644846767E+03  0.00000000000E+00 0.  1.
         21   -1    0    0  502  503 -0.00000000000E+00 -0.00000000000E+00 -0.29746897293E+03  0.29746897293E+03  0.00000000000E+00 0.  1.
          6    1    1    2  501    0 -0.21686311346E+03  0.19501770080E+03  0.22698946831E+03  0.40806216724E+03  0.17300000000E+03 0.  1.
         -6    1    1    2    0  503  0.21686311346E+03 -0.19501770080E+03 -0.68009973565E+02  0.34585527336E+03  0.17300000000E+03 0.  1.
</event>
<event>
 4    1  0.6239288E+000  0.1000000E+03  0.7546771E-02  0.1280296E+00
         21   -1    0    0  501  502  0.00000000000E+00  0.00000000000E+00  0.17047327324E+03  0.17047327324E+03  0.00000000000E+00 0.  1.
         21   -1    0    0  502  503 -0.00000000000E+00 -0.00000000000E+00 -0.19827377635E+03  0.19827377635E+03  0.00000000000E+00 0.  1.
          6    1    1    2  501    0  0.81713259093E+01  0.13074976427E+02  0.46551593340E+02  0.17981595151E+03  0.17300000000E+03 0. -1.
         -6    1    1    2    0  503 -0.81713259093E+01 -0.13074976427E+02 -0.74352096447E+02  0.18893109808E+03  0.17300000000E+03 0. -1.
</event>
<event>
 4    1  0.6239288E+000  0.1000000E+03  0.7546771E-02  0.1280296E+00
         21   -1    0    0  501  502  0.00000000000E+00  0.00000000000E+00  0.16420569341E+03  0.16420569341E+03  0.00000000000E+00 0.  1.
         21   -1    0    0  502  503 -0.00000000000E+00 -0.00000000000E+00 -0.38824627644E+03  0.38824627644E+03  0.00000000000E+00 0.  1.
          6    1    1    2  501    0 -0.12214054966E+03  0.70829403448E+02  0.16905163924E+02  0.22394173981E+03  0.17300000000E+03 0. -1.
         -6    1    1    2    0  503  0.12214054966E+03 -0.70829403448E+02 -0.24094574695E+03  0.32851023003E+03  0.17300000000E+03 0. -1.
</event>
<event>
 4    1  0.6239288E+000  0.1000000E+03  0.7546771E-02  0.1280296E+00
         21   -1    0    0  503  502  0.00000000000E+00  0.00000000000E+00  0.15122256290E+03  0.15122256290E+03  0.00000000000E+00 0. -1.
         21   -1    0    0  501  503 -0.00000000000E+00 -0.00000000000E+00 -0.23754141398E+03  0.23754141398E+03  0.00000000000E+00 0. -1.
          6    1    1    2  501    0 -0.15477675062E+02 -0.38133662820E+02  0.24084964253E+02  0.17945144237E+03  0.17300000000E+03 0. -1.
         -6    1    1    2    0  502  0.15477675062E+02  0.38133662820E+02 -0.11040381533E+03  0.20931253451E+03  0.17300000000E+03 0. -1.
</event>
<event>
 4    1  0.6239288E+000  0.1000000E+03  0.7546771E-02  0.1280296E+00
         21   -1    0    0  503  502  0.00000000000E+00  0.00000000000E+00  0.69067662768E+03  0.69067662768E+03  0.00000000000E+00 0.  1.
         21   -1    0    0  501  503 -0.00000000000E+00 -0.00000000000E+00 -0.15491185163E+04  0.15491185163E+04  0.00000000000E+00 0. -1.
          6    1    1    2  501    0 -0.15372225883E+03  0.10124935413E+03 -0.15152099575E+04  0.15361224495E+04  0.17300000000E+03 0. -1.
         -6    1    1    2    0  502  0.15372225883E+03 -0.10124935413E+03  0.65676806891E+03  0.70367269444E+03  0.17300000000E+03 0.  1.
</event>
<event>
 4    1  0.6239288E+000  0.1000000E+03  0.7546771E-02  0.1280296E+00
         21   -1    0    0  503  502  0.00000000000E+00  0.00000000000E+00  0.47602115119E+03  0.47602115119E+03  0.00000000000E+00 0.  1.
         21   -1    0    0  501  503 -0.00000000000E+00 -0.00000000000E+00 -0.26533525676E+03  0.26533525676E+03  0.00000000000E+00 0. -1.
          6    1    1    2  501    0 -0.36728442831E+02  0.21225240522E+03 -0.12782441832E+03  0.30441442796E+03  0.17300000000E+03 0. -1.
         -6    1    1    2    0  502  0.36728442831E+02 -0.21225240522E+03  0.33851031275E+03  0.43694197998E+03  0.17300000000E+03 0.  1.
</event>
<event>
 4    1  0.6239288E+000  0.1000000E+03  0.7546771E-02  0.1280296E+00
         21   -1    0    0  501  502  0.00000000000E+00  0.00000000000E+00  0.78185653434E+03  0.78185653434E+03  0.00000000000E+00 0.  1.
         21   -1    0    0  502  503 -0.00000000000E+00 -0.00000000000E+00 -0.44857630921E+03  0.44857630921E+03  0.00000000000E+00 0. -1.
          6    1    1    2  501    0  0.18731562026E+03  0.19416476710E+03  0.68398183461E+03  0.75534578072E+03  0.17300000000E+03 0.  1.
         -6    1    1    2    0  503 -0.18731562026E+03 -0.19416476710E+03 -0.35070160948E+03  0.47508706283E+03  0.17300000000E+03 0. -1.
</event>
<event>
 4    1  0.6239288E+000  0.1000000E+03  0.7546771E-02  0.1280296E+00
         21   -1    0    0  501  502  0.00000000000E+00  0.00000000000E+00  0.38300237344E+03  0.38300237344E+03  0.00000000000E+00 0.  1.
         21   -1    0    0  502  503 -0.00000000000E+00 -0.00000000000E+00 -0.31986802759E+03  0.31986802759E+03  0.00000000000E+00 0. -1.
          6    1    1    2  501    0  0.12299602351E+03 -0.55620260377E+01  0.31094505515E+03  0.37652992611E+03  0.17300000000E+03 0.  1.
         -6    1    1    2    0  503 -0.12299602351E+03  0.55620260377E+01 -0.24781070930E+03  0.32634047493E+03  0.17300000000E+03 0. -1.
</event>
<event>
 4    1  0.6239288E+000  0.1000000E+03  0.7546771E-02  0.1280296E+00
         21   -1    0    0  501  502  0.00000000000E+00  0.00000000000E+00  0.15259834627E+03  0.15259834627E+03  0.00000000000E+00 0.  1.
         21   -1    0    0  502  503 -0.00000000000E+00 -0.00000000000E+00 -0.35408626949E+03  0.35408626949E+03  0.00000000000E+00 0. -1.
          6    1    1    2  501    0 -0.92578894978E+02 -0.81773872459E+02  0.17635495449E+01  0.21257922786E+03  0.17300000000E+03 0.  1.
         -6    1    1    2    0  503  0.92578894978E+02  0.81773872459E+02 -0.20325147276E+03  0.29410538790E+03  0.17300000000E+03 0. -1.
</event>
<event>
 4    1  0.6239288E+000  0.1000000E+03  0.7546771E-02  0.1280296E+00
         21   -1    0    0  503  502  0.00000000000E+00  0.00000000000E+00  0.56920216037E+03  0.56920216037E+03  0.00000000000E+00 0. -1.
         21   -1    0    0  501  503 -0.00000000000E+00 -0.00000000000E+00 -0.73032651908E+02  0.73032651908E+02  0.00000000000E+00 0.  1.
          6    1    1    2  501    0  0.58003447615E+02  0.72565582595E+02  0.16165955952E+03  0.25434814113E+03  0.17300000000E+03 0. -1.
         -6    1    1    2    0  502 -0.58003447615E+02 -0.72565582595E+02  0.33450994894E+03  0.38788667114E+03  0.17300000000E+03 0.  1.
</event>
<event>
 4    1  0.6239288E+000  0.1000000E+03  0.7546771E-02  0.1280296E+00
         21   -1    0    0  501  502  0.00000000000E+00  0.00000000000E+00  0.23464126087E+03  0.23464126087E+03  0.00000000000E+00 0.  1.
         21   -1    0    0  502  503 -0.00000000000E+00 -0.00000000000E+00 -0.33944839401E+03  0.33944839401E+03  0.00000000000E+00 0.  1.
          6    1    1    2  501    0  0.12302668250E+03  0.15701423717E+03  0.48952000815E+02  0.26854112100E+03  0.17300000000E+03 0.  1.
         -6    1    1    2    0  503 -0.12302668250E+03 -0.15701423717E+03 -0.15375913396E+03  0.30554853388E+03  0.17300000000E+03 0.  1.
</event>
<event>
 4    1  0.6239288E+000  0.1000000E+03  0.7546771E-02  0.1280296E+00
         21   -1    0    0  501  502  0.00000000000E+00  0.00000000000E+00  0.85820035205E+03  0.85820035205E+03  0.00000000000E+00 0.  1.
         21   -1    0    0  502  503 -0.00000000000E+00 -0.00000000000E+00 -0.23470297239E+03  0.23470297239E+03  0.00000000000E+00 0.  1.
          6    1    1    2  501    0  0.22121173183E+03  0.33434455107E+03  0.43812090978E+03  0.61854655500E+03  0.17300000000E+03 0.  1.
         -6    1    1    2    0  503 -0.22121173183E+03 -0.33434455107E+03  0.18537646988E+03  0.47435676944E+03  0.17300000000E+03 0.  1.
</event>
<event>
 4    1  0.6239288E+000  0.1000000E+03  0.7546771E-02  0.1280296E+00
         21   -1    0    0  503  502  0.00000000000E+00  0.00000000000E+00  0.74279093284E+03  0.74279093284E+03  0.00000000000E+00 0. -1.
         21   -1    0    0  501  503 -0.00000000000E+00 -0.00000000000E+00 -0.74342845746E+02  0.74342845746E+02  0.00000000000E+00 0.  1.
          6    1    1    2  501    0 -0.14445892909E+02  0.13241588211E+03  0.18315670231E+03  0.28498776685E+03  0.17300000000E+03 0.  1.
         -6    1    1    2    0  502  0.14445892909E+02 -0.13241588211E+03  0.48529138478E+03  0.53214601173E+03  0.17300000000E+03 0. -1.
</event>
<event>
 4    1  0.6239288E+000  0.1000000E+03  0.7546771E-02  0.1280296E+00
         21   -1    0    0  503  502  0.00000000000E+00  0.00000000000E+00  0.71173936010E+02  0.71173936010E+02  0.00000000000E+00 0. -1.
         21   -1    0    0  501  503 -0.00000000000E+00 -0.00000000000E+00 -0.63678915499E+03  0.63678915499E+03  0.00000000000E+00 0.  1.
          6    1    1    2  501    0 -0.77542780450E+02 -0.94286830522E+02 -0.31964759218E+03  0.38341423082E+03  0.17300000000E+03 0.  1.
         -6    1    1    2    0  502  0.77542780450E+02  0.94286830522E+02 -0.24596762680E+03  0.32454886018E+03  0.17300000000E+03 0. -1.
</event>
<event>
 4    1  0.6239288E+000  0.1000000E+03  0.7546771E-02  0.1280296E+00
         21   -1    0    0  503  502  0.00000000000E+00  0.00000000000E+00  0.31351367486E+03  0.31351367486E+03  0.00000000000E+00 0. -1.
         21   -1    0    0  501  503 -0.00000000000E+00 -0.00000000000E+00 -0.10386835357E+03  0.10386835357E+03  0.00000000000E+00 0.  1.
          6    1    1    2  501    0  0.27713493614E+02  0.31556334577E+02  0.70686077877E+02  0.19154467256E+03  0.17300000000E+03 0.  1.
         -6    1    1    2    0  502 -0.27713493614E+02 -0.31556334577E+02  0.13895924341E+03  0.22583735588E+03  0.17300000000E+03 0. -1.
</event>
<event>
 4    1  0.6239288E+000  0.1000000E+03  0.7546771E-02  0.1280296E+00
         21   -1    0    0  501  502  0.00000000000E+00  0.00000000000E+00  0.31036045058E+03  0.31036045058E+03  0.00000000000E+00 0.  1.
         21   -1    0    0  502  503 -0.00000000000E+00 -0.00000000000E+00 -0.16052720897E+03  0.16052720897E+03  0.00000000000E+00 0.  1.
          6    1    1    2  501    0  0.85130819410E+02 -0.70999544196E+01 -0.43461795513E+02  0.19777662510E+03  0.17300000000E+03 0. -1.
         -6    1    1    2    0  503 -0.85130819410E+02  0.70999544196E+01  0.19329503712E+03  0.27311103446E+03  0.17300000000E+03 0. -1.
</event>
<event>
 4    1  0.6239288E+000  0.1000000E+03  0.7546771E-02  0.1280296E+00
         21   -1    0    0  501  502  0.00000000000E+00  0.00000000000E+00  0.59646771040E+02  0.59646771040E+02  0.00000000000E+00 0.  1.
         21   -1    0    0  502  503 -0.00000000000E+00 -0.00000000000E+00 -0.58774471409E+03  0.58774471409E+03  0.00000000000E+00 0.  1.
          6    1    1    2  501    0  0.53452014755E+02  0.38405746427E+02 -0.21527440132E+03  0.28390876546E+03  0.17300000000E+03 0. -1.
         -6    1    1    2    0  503 -0.53452014755E+02 -0.38405746427E+02 -0.31282354173E+03  0.36348271968E+03  0.17300000000E+03 0. -1.
</event>
<event>
 4    1  0.6239288E+000  0.1000000E+03  0.7546771E-02  0.1280296E+00
         21   -1    0    0  503  502  0.00000000000E+00  0.00000000000E+00  0.30295839186E+02  0.30295839186E+02  0.00000000000E+00 0.  1.
         21   -1    0    0  501  503 -0.00000000000E+00 -0.00000000000E+00 -0.16030403124E+04  0.16030403124E+04  0.00000000000E+00 0.  1.
          6    1    1    2  501    0  0.10502418857E+03  0.62769577196E+02 -0.10107598678E+04  0.10327316255E+04  0.17300000000E+03 0.  1.
         -6    1    1    2    0  502 -0.10502418857E+03 -0.62769577196E+02 -0.56198460547E+03  0.60060452612E+03  0.17300000000E+03 0.  1.
</event>
<event>
 4    1  0.6239288E+000  0.1000000E+03  0.7546771E-02  0.1280296E+00
         21   -1    0    0  503  502  0.00000000000E+00  0.00000000000E+00  0.58175936156E+02  0.58175936156E+02  0.00000000000E+00 0.  1.
         21   -1    0    0  501  503 -0.00000000000E+00 -0.00000000000E+00 -0.66908106160E+03  0.66908106160E+03  0.00000000000E+00 0.  1.
          6    1    1    2  501    0 -0.33438606592E+02 -0.63495096134E+02 -0.41974873928E+03  0.45963874050E+03  0.17300000000E+03 0.  1.
         -6    1    1    2    0  502  0.33438606592E+02  0.63495096134E+02 -0.19115638616E+03  0.26761825725E+03  0.17300000000E+03 0.  1.
</event>
<event>
 4    1  0.6239288E+000  0.1000000E+03  0.7546771E-02  0.1280296E+00
         21   -1    0    0  503  502  0.00000000000E+00  0.00000000000E+00  0.29936829446E+03  0.29936829446E+03  0.00000000000E+00 0.  1.
         21   -1    0    0  501  503 -0.00000000000E+00 -0.00000000000E+00 -0.22395117963E+03  0.22395117963E+03  0.00000000000E+00 0.  1.
          6    1    1    2  501    0  0.54467835238E+01 -0.13721115391E+03 -0.98840171997E+02  0.24198129640E+03  0.17300000000E+03 0. -1.
         -6    1    1    2    0  502 -0.54467835238E+01  0.13721115391E+03  0.17425728683E+03  0.28133817768E+03  0.17300000000E+03 0. -1.
</event>
<event>
 4    1  0.6239288E+000  0.1000000E+03  0.7546771E-02  0.1280296E+00
         21   -1    0    0  503  502  0.00000000000E+00  0.00000000000E+00  0.36465815668E+03  0.36465815668E+03  0.00000000000E+00 0.  1.
         21   -1    0    0  501  503 -0.00000000000E+00 -0.00000000000E+00 -0.90338032296E+02  0.90338032296E+02  0.00000000000E+00 0.  1.
          6    1    1    2  501    0  0.47436192653E+02 -0.19509590404E+02  0.11264011403E+03  0.21271486027E+03  0.17300000000E+03 0. -1.
         -6    1    1    2    0  502 -0.47436192653E+02  0.19509590404E+02  0.16168001036E+03  0.24228132871E+03  0.17300000000E+03 0. -1.
</event>
<event>
 4    1  0.6239288E+000  0.1000000E+03  0.7546771E-02  0.1280296E+00
         21   -1    0    0  503  502  0.00000000000E+00  0.00000000000E+00  0.68185350942E+03  0.68185350942E+03  0.00000000000E+00 0.  1.
         21   -1    0    0  501  503 -0.00000000000E+00 -0.00000000000E+00 -0.11338464996E+03  0.11338464996E+03  0.00000000000E+00 0.  1.
          6    1    1    2  501    0 -0.14865187289E+03  0.86275839595E+02  0.93220895108E+02  0.26107476917E+03  0.17300000000E+03 0.  1.
         -6    1    1    2    0  502  0.14865187289E+03 -0.86275839595E+02  0.47524796435E+03  0.53416339020E+03  0.17300000000E+03 0.  1.
</event>
<event>
 4    1  0.6239288E+000  0.1000000E+03  0.7546771E-02  0.1280296E+00
         21   -1    0    0  501  502  0.00000000000E+00  0.00000000000E+00  0.41641168916E+03  0.41641168916E+03  0.00000000000E+00 0.  1.
         21   -1    0    0  502  503 -0.00000000000E+00 -0.00000000000E+00 -0.46840832920E+03  0.46840832920E+03  0.00000000000E+00 0. -1.
          6    1    1    2  501    0 -0.23766494674E+03  0.21023126655E+02  0.30350135405E+03  0.42304688946E+03  0.17300000000E+03 0.  1.
         -6    1    1    2    0  503  0.23766494674E+03 -0.21023126655E+02 -0.35549799410E+03  0.46177312890E+03  0.17300000000E+03 0.  1.
</event>
<event>
 4    1  0.6239288E+000  0.1000000E+03  0.7546771E-02  0.1280296E+00
         21   -1    0    0  503  502  0.00000000000E+00  0.00000000000E+00  0.19937375305E+04  0.19937375305E+04  0.00000000000E+00 0.  1.
         21   -1    0    0  501  503 -0.00000000000E+00 -0.00000000000E+00 -0.44035326452E+02  0.44035326452E+02  0.00000000000E+00 0.  1.
          6    1    1    2  501    0 -0.18752724384E+03  0.13917773196E+03  0.11732532759E+04  0.12087138444E+04  0.17300000000E+03 0.  1.
         -6    1    1    2    0  502  0.18752724384E+03 -0.13917773196E+03  0.77644892813E+03  0.82905901253E+03  0.17300000000E+03 0.  1.
</event>
<event>
 4    1  0.6239288E+000  0.1000000E+03  0.7546771E-02  0.1280296E+00
         21   -1    0    0  503  502  0.00000000000E+00  0.00000000000E+00  0.44547810018E+03  0.44547810018E+03  0.00000000000E+00 0.  1.
         21   -1    0    0  501  503 -0.00000000000E+00 -0.00000000000E+00 -0.17471517920E+03  0.17471517920E+03  0.00000000000E+00 0.  1.
          6    1    1    2  501    0  0.22115814822E+02  0.12169003943E+03 -0.65325331825E+02  0.22247241164E+03  0.17300000000E+03 0.  1.
         -6    1    1    2    0  502 -0.22115814822E+02 -0.12169003943E+03  0.33608825281E+03  0.39772086774E+03  0.17300000000E+03 0.  1.
</event>
<event>
 4    1  0.6239288E+000  0.1000000E+03  0.7546771E-02  0.1280296E+00
         21   -1    0    0  503  502  0.00000000000E+00  0.00000000000E+00  0.24298721830E+04  0.24298721830E+04  0.00000000000E+00 0.  1.
         21   -1    0    0  501  503 -0.00000000000E+00 -0.00000000000E+00 -0.24794345080E+02  0.24794345080E+02  0.00000000000E+00 0.  1.
          6    1    1    2  501    0  0.78976491609E+02  0.70844172353E+02  0.51217571401E+03  0.55091664071E+03  0.17300000000E+03 0.  1.
         -6    1    1    2    0  502 -0.78976491609E+02 -0.70844172353E+02  0.18929021239E+04  0.19037498874E+04  0.17300000000E+03 0.  1.
</event>
<event>
 4    1  0.6239288E+000  0.1000000E+03  0.7546771E-02  0.1280296E+00
         21   -1    0    0  503  502  0.00000000000E+00  0.00000000000E+00  0.56382926424E+03  0.56382926424E+03  0.00000000000E+00 0.  1.
         21   -1    0    0  501  503 -0.00000000000E+00 -0.00000000000E+00 -0.13128472011E+03  0.13128472011E+03  0.00000000000E+00 0.  1.
          6    1    1    2  501    0  0.15659426614E+03  0.13125931860E+03  0.27809883839E+03  0.38602945072E+03  0.17300000000E+03 0.  1.
         -6    1    1    2    0  502 -0.15659426614E+03 -0.13125931860E+03  0.15444570574E+03  0.30908453363E+03  0.17300000000E+03 0.  1.
</event>
<event>
 4    1  0.6239288E+000  0.1000000E+03  0.7546771E-02  0.1280296E+00
         21   -1    0    0  503  502  0.00000000000E+00  0.00000000000E+00  0.48521521754E+03  0.48521521754E+03  0.00000000000E+00 0.  1.
         21   -1    0    0  501  503 -0.00000000000E+00 -0.00000000000E+00 -0.67756680992E+02  0.67756680992E+02  0.00000000000E+00 0.  1.
          6    1    1    2  501    0  0.17935067675E+02  0.22296880423E+02  0.13837464273E+03  0.22337269144E+03  0.17300000000E+03 0.  1.
         -6    1    1    2    0  502 -0.17935067675E+02 -0.22296880423E+02  0.27908389382E+03  0.32959920709E+03  0.17300000000E+03 0.  1.
</event>
<event>
 4    1  0.6239288E+000  0.1000000E+03  0.7546771E-02  0.1280296E+00
         21   -1    0    0  501  502  0.00000000000E+00  0.00000000000E+00  0.70635391593E+03  0.70635391593E+03  0.00000000000E+00 0.  1.
         21   -1    0    0  502  503 -0.00000000000E+00 -0.00000000000E+00 -0.67514168084E+02  0.67514168084E+02  0.00000000000E+00 0.  1.
          6    1    1    2  501    0  0.99447125350E+02 -0.44388049206E+02  0.45551714746E+03  0.49928438919E+03  0.17300000000E+03 0.  1.
         -6    1    1    2    0  503 -0.99447125350E+02  0.44388049206E+02  0.18332260038E+03  0.27458369482E+03  0.17300000000E+03 0.  1.
</event>
<event>
 4    1  0.6239288E+000  0.1000000E+03  0.7546771E-02  0.1280296E+00
         21   -1    0    0  501  502  0.00000000000E+00  0.00000000000E+00  0.85838726218E+03  0.85838726218E+03  0.00000000000E+00 0.  1.
         21   -1    0    0  502  503 -0.00000000000E+00 -0.00000000000E+00 -0.15663975704E+03  0.15663975704E+03  0.00000000000E+00 0.  1.
          6    1    1    2  501    0 -0.13853490723E+03  0.25131347870E+03  0.55699273805E+03  0.65001561161E+03  0.17300000000E+03 0.  1.
         -6    1    1    2    0  503  0.13853490723E+03 -0.25131347870E+03  0.14475476708E+03  0.36501140761E+03  0.17300000000E+03 0.  1.
</event>
<event>
 4    1  0.6239288E+000  0.1000000E+03  0.7546771E-02  0.1280296E+00
         21   -1    0    0  501  502  0.00000000000E+00  0.00000000000E+00  0.15650072911E+03  0.15650072911E+03  0.00000000000E+00 0.  1.
         21   -1    0    0  502  503 -0.00000000000E+00 -0.00000000000E+00 -0.26795797703E+03  0.26795797703E+03  0.00000000000E+00 0.  1.
          6    1    1    2  501    0 -0.10686898360E+03 -0.12449614215E+02 -0.77235347149E+02  0.21787673441E+03  0.17300000000E+03 0.  1.
         -6    1    1    2    0  503  0.10686898360E+03  0.12449614215E+02 -0.34221900766E+02  0.20658197172E+03  0.17300000000E+03 0.  1.
</event>
<event>
 4    1  0.6239288E+000  0.1000000E+03  0.7546771E-02  0.1280296E+00
         21   -1    0    0  503  502  0.00000000000E+00  0.00000000000E+00  0.35855808663E+03  0.35855808663E+03  0.00000000000E+00 0. -1.
         21   -1    0    0  501  503 -0.00000000000E+00 -0.00000000000E+00 -0.19152934732E+03  0.19152934732E+03  0.00000000000E+00 0. -1.
          6    1    1    2  501    0 -0.20213060233E+02 -0.87035585136E+02 -0.10056665101E+03  0.21914929199E+03  0.17300000000E+03 0. -1.
         -6    1    1    2    0  502  0.20213060233E+02  0.87035585136E+02  0.26759539032E+03  0.33093814196E+03  0.17300000000E+03 0. -1.
</event>
<event>
 4    1  0.6239288E+000  0.1000000E+03  0.7546771E-02  0.1280296E+00
         21   -1    0    0  503  502  0.00000000000E+00  0.00000000000E+00  0.30142133702E+03  0.30142133702E+03  0.00000000000E+00 0. -1.
         21   -1    0    0  501  503 -0.00000000000E+00 -0.00000000000E+00 -0.27041515318E+03  0.27041515318E+03  0.00000000000E+00 0. -1.
          6    1    1    2  501    0  0.98565532544E+02  0.93276208281E+02 -0.16687583651E+03  0.27602927390E+03  0.17300000000E+03 0. -1.
         -6    1    1    2    0  502 -0.98565532544E+02 -0.93276208281E+02  0.19788202035E+03  0.29580721630E+03  0.17300000000E+03 0. -1.
</event>
<event>
 4    1  0.6239288E+000  0.1000000E+03  0.7546771E-02  0.1280296E+00
         21   -1    0    0  503  502  0.00000000000E+00  0.00000000000E+00  0.25716477602E+03  0.25716477602E+03  0.00000000000E+00 0. -1.
         21   -1    0    0  501  503 -0.00000000000E+00 -0.00000000000E+00 -0.21490153543E+03  0.21490153543E+03  0.00000000000E+00 0. -1.
          6    1    1    2  501    0  0.15173855537E+03  0.33262012437E+02  0.55986925317E+02  0.23915368796E+03  0.17300000000E+03 0. -1.
         -6    1    1    2    0  502 -0.15173855537E+03 -0.33262012437E+02 -0.13723684728E+02  0.23291262349E+03  0.17300000000E+03 0. -1.
</event>
<event>
 4    1  0.6239288E+000  0.1000000E+03  0.7546771E-02  0.1280296E+00
         21   -1    0    0  503  502  0.00000000000E+00  0.00000000000E+00  0.51403477685E+03  0.51403477685E+03  0.00000000000E+00 0. -1.
         21   -1    0    0  501  503 -0.00000000000E+00 -0.00000000000E+00 -0.20241634328E+03  0.20241634328E+03  0.00000000000E+00 0. -1.
          6    1    1    2  501    0 -0.13839698864E+03  0.16230460679E+03 -0.32078813175E+02  0.27650418099E+03  0.17300000000E+03 0. -1.
         -6    1    1    2    0  502  0.13839698864E+03 -0.16230460679E+03  0.34369724674E+03  0.43994693915E+03  0.17300000000E+03 0. -1.
</event>
<event>
 4    1  0.6239288E+000  0.1000000E+03  0.7546771E-02  0.1280296E+00
         21   -1    0    0  501  502  0.00000000000E+00  0.00000000000E+00  0.10916838003E+04  0.10916838003E+04  0.00000000000E+00 0.  1.
         21   -1    0    0  502  503 -0.00000000000E+00 -0.00000000000E+00 -0.10521413882E+03  0.10521413882E+03  0.00000000000E+00 0.  1.
          6    1    1    2  501    0 -0.15151918119E+03 -0.15118155713E+03  0.84247805671E+03  0.88629126224E+03  0.17300000000E+03 0.  1.
         -6    1    1    2    0  503  0.15151918119E+03  0.15118155713E+03  0.14399160480E+03  0.31060667690E+03  0.17300000000E+03 0.  1.
</event>
<event>
 4    1  0.6239288E+000  0.1000000E+03  0.7546771E-02  0.1280296E+00
         21   -1    0    0  501  502  0.00000000000E+00  0.00000000000E+00  0.94086450499E+03  0.94086450499E+03  0.00000000000E+00 0.  1.
         21   -1    0    0  502  503 -0.00000000000E+00 -0.00000000000E+00 -0.20352545238E+03  0.20352545238E+03  0.00000000000E+00 0.  1.
          6    1    1    2  501    0  0.49596894596E+02  0.12239015307E+02  0.88998795805E+03  0.90808436333E+03  0.17300000000E+03 0.  1.
         -6    1    1    2    0  503 -0.49596894596E+02 -0.12239015307E+02 -0.15264890544E+03  0.23630559405E+03  0.17300000000E+03 0.  1.
</event>
<event>
 4    1  0.6239288E+000  0.1000000E+03  0.7546771E-02  0.1280296E+00
         21   -1    0    0  501  502  0.00000000000E+00  0.00000000000E+00  0.26931995528E+03  0.26931995528E+03  0.00000000000E+00 0.  1.
         21   -1    0    0  502  503 -0.00000000000E+00 -0.00000000000E+00 -0.36116467331E+03  0.36116467331E+03  0.00000000000E+00 0.  1.
          6    1    1    2  501    0 -0.48706163559E+02  0.16017478691E+03  0.15448698827E+03  0.28604804190E+03  0.17300000000E+03 0.  1.
         -6    1    1    2    0  503  0.48706163559E+02 -0.16017478691E+03 -0.24633170629E+03  0.34443658669E+03  0.17300000000E+03 0.  1.
</event>
<event>
 4    1  0.6239288E+000  0.1000000E+03  0.7546771E-02  0.1280296E+00
         21   -1    0    0  503  502  0.00000000000E+00  0.00000000000E+00  0.11385940436E+03  0.11385940436E+03  0.00000000000E+00 0.  1.
         21   -1    0    0  501  503 -0.00000000000E+00 -0.00000000000E+00 -0.55732582924E+03  0.55732582924E+03  0.00000000000E+00 0. -1.
          6    1    1    2  501    0 -0.64201993058E+02 -0.13973549837E+03 -0.35415188409E+03  0.42308446252E+03  0.17300000000E+03 0. -1.
         -6    1    1    2    0  502  0.64201993058E+02  0.13973549837E+03 -0.89314540792E+02  0.24810077109E+03  0.17300000000E+03 0.  1.
</event>
<event>
 4    1  0.6239288E+000  0.1000000E+03  0.7546771E-02  0.1280296E+00
         21   -1    0    0  503  502  0.00000000000E+00  0.00000000000E+00  0.43074761890E+03  0.43074761890E+03  0.00000000000E+00 0.  1.
         21   -1    0    0  501  503 -0.00000000000E+00 -0.00000000000E+00 -0.11486488378E+03  0.11486488378E+03  0.00000000000E+00 0. -1.
          6    1    1    2  501    0  0.41628032662E+02 -0.83266030687E+02  0.29998355228E+02  0.19873355601E+03  0.17300000000E+03 0. -1.
         -6    1    1    2    0  502 -0.41628032662E+02  0.83266030687E+02  0.28588437990E+03  0.34687894666E+03  0.17300000000E+03 0.  1.
</event>
<event>
 4    1  0.6239288E+000  0.1000000E+03  0.7546771E-02  0.1280296E+00
         21   -1    0    0  503  502  0.00000000000E+00  0.00000000000E+00  0.12661566302E+04  0.12661566302E+04  0.00000000000E+00 0.  1.
         21   -1    0    0  501  503 -0.00000000000E+00 -0.00000000000E+00 -0.82877989249E+02  0.82877989249E+02  0.00000000000E+00 0. -1.
          6    1    1    2  501    0  0.20765958958E+03 -0.15635845948E+03  0.41207092016E+03  0.51701249137E+03  0.17300000000E+03 0. -1.
         -6    1    1    2    0  502 -0.20765958958E+03  0.15635845948E+03  0.77120772075E+03  0.83202212803E+03  0.17300000000E+03 0.  1.
</event>
<event>
 4    1  0.6239288E+000  0.1000000E+03  0.7546771E-02  0.1280296E+00
         21   -1    0    0  501  502  0.00000000000E+00  0.00000000000E+00  0.35755368830E+03  0.35755368830E+03  0.00000000000E+00 0.  1.
         21   -1    0    0  502  503 -0.00000000000E+00 -0.00000000000E+00 -0.20109970592E+03  0.20109970592E+03  0.00000000000E+00 0.  1.
          6    1    1    2  501    0  0.22419724504E+02 -0.10995328222E+03  0.25678568936E+03  0.32933305115E+03  0.17300000000E+03 0.  1.
         -6    1    1    2    0  503 -0.22419724504E+02  0.10995328222E+03 -0.10033170698E+03  0.22932034307E+03  0.17300000000E+03 0.  1.
</event>
<event>
 4    1  0.6239288E+000  0.1000000E+03  0.7546771E-02  0.1280296E+00
         21   -1    0    0  503  502  0.00000000000E+00  0.00000000000E+00  0.79353770561E+02  0.79353770561E+02  0.00000000000E+00 0. -1.
         21   -1    0    0  501  503 -0.00000000000E+00 -0.00000000000E+00 -0.19188819400E+04  0.19188819400E+04  0.00000000000E+00 0. -1.
          6    1    1    2  501    0 -0.26740422180E+03 -0.29094174689E+02 -0.14922311424E+04  0.15261173844E+04  0.17300000000E+03 0. -1.
         -6    1    1    2    0  502  0.26740422180E+03  0.29094174689E+02 -0.34729702703E+03  0.47211832608E+03  0.17300000000E+03 0. -1.
</event>
<event>
 4    1  0.6239288E+000  0.1000000E+03  0.7546771E-02  0.1280296E+00
         21   -1    0    0  503  502  0.00000000000E+00  0.00000000000E+00  0.68833602245E+02  0.68833602245E+02  0.00000000000E+00 0. -1.
         21   -1    0    0  501  503 -0.00000000000E+00 -0.00000000000E+00 -0.64662632026E+03  0.64662632026E+03  0.00000000000E+00 0. -1.
          6    1    1    2  501    0 -0.37975121834E+02  0.99092377964E+02 -0.19120734601E+03  0.27883805052E+03  0.17300000000E+03 0. -1.
         -6    1    1    2    0  502  0.37975121834E+02 -0.99092377964E+02 -0.38658537200E+03  0.43662187198E+03  0.17300000000E+03 0. -1.
</event>
<event>
 4    1  0.6239288E+000  0.1000000E+03  0.7546771E-02  0.1280296E+00
         21   -1    0    0  503  502  0.00000000000E+00  0.00000000000E+00  0.36397347856E+02  0.36397347856E+02  0.00000000000E+00 0. -1.
         21   -1    0    0  501  503 -0.00000000000E+00 -0.00000000000E+00 -0.11422903700E+04  0.11422903700E+04  0.00000000000E+00 0. -1.
          6    1    1    2  501    0  0.89114559457E+02  0.16050472199E+02 -0.72267285780E+03  0.74858805879E+03  0.17300000000E+03 0. -1.
         -6    1    1    2    0  502 -0.89114559457E+02 -0.16050472199E+02 -0.38322016432E+03  0.43009965904E+03  0.17300000000E+03 0. -1.
</event>
<event>
 4    1  0.6239288E+000  0.1000000E+03  0.7546771E-02  0.1280296E+00
         21   -1    0    0  501  502  0.00000000000E+00  0.00000000000E+00  0.25167290627E+03  0.25167290627E+03  0.00000000000E+00 0. -1.
         21   -1    0    0  502  503 -0.00000000000E+00 -0.00000000000E+00 -0.48826513000E+03  0.48826513000E+03  0.00000000000E+00 0. -1.
          6    1    1    2  501    0  0.11225073875E+03 -0.19935422227E+02  0.18013633175E+03  0.27454643947E+03  0.17300000000E+03 0. -1.
         -6    1    1    2    0  503 -0.11225073875E+03  0.19935422227E+02 -0.41672855549E+03  0.46539159679E+03  0.17300000000E+03 0. -1.
</event>
<event>
 4    1  0.6239288E+000  0.1000000E+03  0.7546771E-02  0.1280296E+00
         21   -1    0    0  501  502  0.00000000000E+00  0.00000000000E+00  0.55296745995E+03  0.55296745995E+03  0.00000000000E+00 0. -1.
         21   -1    0    0  502  503 -0.00000000000E+00 -0.00000000000E+00 -0.88655026371E+03  0.88655026371E+03  0.00000000000E+00 0. -1.
          6    1    1    2  501    0  0.73754195133E+02  0.56225784341E+03  0.21609692624E+03  0.63103125541E+03  0.17300000000E+03 0. -1.
         -6    1    1    2    0  503 -0.73754195133E+02 -0.56225784341E+03 -0.54967973000E+03  0.80848646825E+03  0.17300000000E+03 0. -1.
</event>
<event>
 4    1  0.6239288E+000  0.1000000E+03  0.7546771E-02  0.1280296E+00
         21   -1    0    0  503  502  0.00000000000E+00  0.00000000000E+00  0.11413167456E+04  0.11413167456E+04  0.00000000000E+00 0.  1.
         21   -1    0    0  501  503 -0.00000000000E+00 -0.00000000000E+00 -0.43810414280E+02  0.43810414280E+02  0.00000000000E+00 0.  1.
          6    1    1    2  501    0 -0.53272373226E+02  0.85834811586E+02  0.28552296254E+03  0.34879495806E+03  0.17300000000E+03 0.  1.
         -6    1    1    2    0  502  0.53272373226E+02 -0.85834811586E+02  0.81198336883E+03  0.83633220187E+03  0.17300000000E+03 0.  1.
</event>
<event>
 4    1  0.6239288E+000  0.1000000E+03  0.7546771E-02  0.1280296E+00
         21   -1    0    0  503  502  0.00000000000E+00  0.00000000000E+00  0.53308320429E+03  0.53308320429E+03  0.00000000000E+00 0. -1.
         21   -1    0    0  501  503 -0.00000000000E+00 -0.00000000000E+00 -0.23342082482E+03  0.23342082482E+03  0.00000000000E+00 0. -1.
          6    1    1    2  501    0 -0.17642920472E+02 -0.26813713916E+03 -0.12394689757E+02  0.31983030871E+03  0.17300000000E+03 0. -1.
         -6    1    1    2    0  502  0.17642920472E+02  0.26813713916E+03  0.31205706923E+03  0.44667372040E+03  0.17300000000E+03 0. -1.
</event>
<event>
 4    1  0.6239288E+000  0.1000000E+03  0.7546771E-02  0.1280296E+00
         21   -1    0    0  503  502  0.00000000000E+00  0.00000000000E+00  0.17540133994E+03  0.17540133994E+03  0.00000000000E+00 0. -1.
         21   -1    0    0  501  503 -0.00000000000E+00 -0.00000000000E+00 -0.81137549575E+03  0.81137549575E+03  0.00000000000E+00 0. -1.
          6    1    1    2  501    0  0.16312725368E+03  0.49150818991E+02 -0.69559676668E+03  0.73675651725E+03  0.17300000000E+03 0. -1.
         -6    1    1    2    0  502 -0.16312725368E+03 -0.49150818991E+02  0.59622610871E+02  0.25002031843E+03  0.17300000000E+03 0. -1.
</event>
<event>
 4    1  0.6239288E+000  0.1000000E+03  0.7546771E-02  0.1280296E+00
         21   -1    0    0  503  502  0.00000000000E+00  0.00000000000E+00  0.26991753627E+04  0.26991753627E+04  0.00000000000E+00 0. -1.
         21   -1    0    0  501  503 -0.00000000000E+00 -0.00000000000E+00 -0.11078387602E+03  0.11078387602E+03  0.00000000000E+00 0.  1.
          6    1    1    2  501    0 -0.18036648039E+02  0.47215429149E+03  0.74409304772E+03  0.89825300406E+03  0.17300000000E+03 0.  1.
         -6    1    1    2    0  502  0.18036648039E+02 -0.47215429149E+03  0.18442984390E+04  0.19117062346E+04  0.17300000000E+03 0. -1.
</event>
<event>
 4    1  0.6239288E+000  0.1000000E+03  0.7546771E-02  0.1280296E+00
         21   -1    0    0  503  502  0.00000000000E+00  0.00000000000E+00  0.11494846734E+03  0.11494846734E+03  0.00000000000E+00 0. -1.
         21   -1    0    0  501  503 -0.00000000000E+00 -0.00000000000E+00 -0.31566703491E+03  0.31566703491E+03  0.00000000000E+00 0.  1.
          6    1    1    2  501    0 -0.53667058741E+02  0.24401948201E+02 -0.16102628698E+03  0.24358586447E+03  0.17300000000E+03 0. -1.
         -6    1    1    2    0  502  0.53667058741E+02 -0.24401948201E+02 -0.39692280587E+02  0.18702963778E+03  0.17300000000E+03 0.  1.
</event>
<event>
 4    1  0.6239288E+000  0.1000000E+03  0.7546771E-02  0.1280296E+00
         21   -1    0    0  503  502  0.00000000000E+00  0.00000000000E+00  0.15709476406E+03  0.15709476406E+03  0.00000000000E+00 0. -1.
         21   -1    0    0  501  503 -0.00000000000E+00 -0.00000000000E+00 -0.24331748202E+03  0.24331748202E+03  0.00000000000E+00 0.  1.
          6    1    1    2  501    0  0.71943770826E+02  0.24213359428E+02  0.84236709952E+01  0.18910883419E+03  0.17300000000E+03 0. -1.
         -6    1    1    2    0  502 -0.71943770826E+02 -0.24213359428E+02 -0.94646388949E+02  0.21130341189E+03  0.17300000000E+03 0.  1.
</event>
<event>
 4    1  0.6239288E+000  0.1000000E+03  0.7546771E-02  0.1280296E+00
         21   -1    0    0  503  502  0.00000000000E+00  0.00000000000E+00  0.39439713529E+03  0.39439713529E+03  0.00000000000E+00 0. -1.
         21   -1    0    0  501  503 -0.00000000000E+00 -0.00000000000E+00 -0.39927779047E+03  0.39927779047E+03  0.00000000000E+00 0.  1.
          6    1    1    2  501    0  0.26433224249E+02  0.12319954533E+03 -0.33661452825E+03  0.39889244659E+03  0.17300000000E+03 0. -1.
         -6    1    1    2    0  502 -0.26433224249E+02 -0.12319954533E+03  0.33173387308E+03  0.39478247917E+03  0.17300000000E+03 0.  1.
</event>
<event>
 4    1  0.6239288E+000  0.1000000E+03  0.7546771E-02  0.1280296E+00
         21   -1    0    0  501  502  0.00000000000E+00  0.00000000000E+00  0.32593131486E+02  0.32593131486E+02  0.00000000000E+00 0. -1.
         21   -1    0    0  502  503 -0.00000000000E+00 -0.00000000000E+00 -0.14414888973E+04  0.14414888973E+04  0.00000000000E+00 0. -1.
          6    1    1    2  501    0 -0.12914464611E+03 -0.49593401095E+01 -0.76812631855E+03  0.79790348785E+03  0.17300000000E+03 0. -1.
         -6    1    1    2    0  503  0.12914464611E+03  0.49593401095E+01 -0.64076944722E+03  0.67617854089E+03  0.17300000000E+03 0. -1.
</event>
<event>
 4    1  0.6239288E+000  0.1000000E+03  0.7546771E-02  0.1280296E+00
         21   -1    0    0  501  502  0.00000000000E+00  0.00000000000E+00  0.27169811650E+03  0.27169811650E+03  0.00000000000E+00 0. -1.
         21   -1    0    0  502  503 -0.00000000000E+00 -0.00000000000E+00 -0.15786050122E+03  0.15786050122E+03  0.00000000000E+00 0. -1.
          6    1    1    2  501    0 -0.18910122163E+02 -0.13527015231E+02  0.17250013074E+03  0.24540959225E+03  0.17300000000E+03 0. -1.
         -6    1    1    2    0  503  0.18910122163E+02  0.13527015231E+02 -0.58662515463E+02  0.18414902547E+03  0.17300000000E+03 0. -1.
</event>
<event>
 4    1  0.6239288E+000  0.1000000E+03  0.7546771E-02  0.1280296E+00
         21   -1    0    0  503  502  0.00000000000E+00  0.00000000000E+00  0.24298545390E+03  0.24298545390E+03  0.00000000000E+00 0.  1.
         21   -1    0    0  501  503 -0.00000000000E+00 -0.00000000000E+00 -0.42063732656E+03  0.42063732656E+03  0.00000000000E+00 0.  1.
          6    1    1    2  501    0  0.14739960610E+03 -0.13883124242E+03 -0.27238407121E+03  0.38094991797E+03  0.17300000000E+03 0.  1.
         -6    1    1    2    0  502 -0.14739960610E+03  0.13883124242E+03  0.94732198547E+02  0.28267286250E+03  0.17300000000E+03 0.  1.
</event>
<event>
 4    1  0.6239288E+000  0.1000000E+03  0.7546771E-02  0.1280296E+00
         21   -1    0    0  501  502  0.00000000000E+00  0.00000000000E+00  0.31162482174E+03  0.31162482174E+03  0.00000000000E+00 0. -1.
         21   -1    0    0  502  503 -0.00000000000E+00 -0.00000000000E+00 -0.15146660263E+03  0.15146660263E+03  0.00000000000E+00 0. -1.
          6    1    1    2  501    0  0.43606679829E+02 -0.12215954201E+03  0.57539791965E+02  0.22375058411E+03  0.17300000000E+03 0. -1.
         -6    1    1    2    0  503 -0.43606679829E+02  0.12215954201E+03  0.10261842714E+03  0.23934084027E+03  0.17300000000E+03 0. -1.
</event>
<event>
 4    1  0.6239288E+000  0.1000000E+03  0.7546771E-02  0.1280296E+00
         21   -1    0    0  501  502  0.00000000000E+00  0.00000000000E+00  0.39739081277E+03  0.39739081277E+03  0.00000000000E+00 0. -1.
         21   -1    0    0  502  503 -0.00000000000E+00 -0.00000000000E+00 -0.22964485657E+03  0.22964485657E+03  0.00000000000E+00 0. -1.
          6    1    1    2  501    0  0.16292449324E+03 -0.48630713913E+02  0.27074070057E+03  0.36350909724E+03  0.17300000000E+03 0. -1.
         -6    1    1    2    0  503 -0.16292449324E+03  0.48630713913E+02 -0.10299474436E+03  0.26352657210E+03  0.17300000000E+03 0. -1.
</event>
<event>
 4    1  0.6239288E+000  0.1000000E+03  0.7546771E-02  0.1280296E+00
         21   -1    0    0  501  502  0.00000000000E+00  0.00000000000E+00  0.23026621854E+03  0.23026621854E+03  0.00000000000E+00 0. -1.
         21   -1    0    0  502  503 -0.00000000000E+00 -0.00000000000E+00 -0.14264827245E+03  0.14264827245E+03  0.00000000000E+00 0. -1.
          6    1    1    2  501    0 -0.22324618845E+02  0.15152099879E+02  0.91955306031E+02  0.19776944416E+03  0.17300000000E+03 0. -1.
         -6    1    1    2    0  503  0.22324618845E+02 -0.15152099879E+02 -0.43373599376E+01  0.17514504683E+03  0.17300000000E+03 0. -1.
</event>
<event>
 4    1  0.6239288E+000  0.1000000E+03  0.7546771E-02  0.1280296E+00
         21   -1    0    0  501  502  0.00000000000E+00  0.00000000000E+00  0.11785450214E+03  0.11785450214E+03  0.00000000000E+00 0. -1.
         21   -1    0    0  502  503 -0.00000000000E+00 -0.00000000000E+00 -0.36022232498E+03  0.36022232498E+03  0.00000000000E+00 0. -1.
          6    1    1    2  501    0  0.65284542644E+02 -0.13218808407E+02 -0.16848855395E+02  0.18614427827E+03  0.17300000000E+03 0. -1.
         -6    1    1    2    0  503 -0.65284542644E+02  0.13218808407E+02 -0.22551896744E+03  0.29193254885E+03  0.17300000000E+03 0. -1.
</event>
<event>
 4    1  0.6239288E+000  0.1000000E+03  0.7546771E-02  0.1280296E+00
         21   -1    0    0  503  502  0.00000000000E+00  0.00000000000E+00  0.13702188759E+04  0.13702188759E+04  0.00000000000E+00 0.  1.
         21   -1    0    0  501  503 -0.00000000000E+00 -0.00000000000E+00 -0.83288231854E+02  0.83288231854E+02  0.00000000000E+00 0.  1.
          6    1    1    2  501    0  0.19086346135E+03 -0.36309829866E+02  0.17982791406E+03  0.31625044395E+03  0.17300000000E+03 0.  1.
         -6    1    1    2    0  502 -0.19086346135E+03  0.36309829866E+02  0.11071027300E+04  0.11372566638E+04  0.17300000000E+03 0.  1.
</event>
<event>
 4    1  0.6239288E+000  0.1000000E+03  0.7546771E-02  0.1280296E+00
         21   -1    0    0  503  502  0.00000000000E+00  0.00000000000E+00  0.29849554690E+02  0.29849554690E+02  0.00000000000E+00 0.  1.
         21   -1    0    0  501  503 -0.00000000000E+00 -0.00000000000E+00 -0.12594343748E+04  0.12594343748E+04  0.00000000000E+00 0.  1.
          6    1    1    2  501    0  0.11887466775E+02  0.18959932104E+02 -0.33338694979E+03  0.37626672611E+03  0.17300000000E+03 0.  1.
         -6    1    1    2    0  502 -0.11887466775E+02 -0.18959932104E+02 -0.89619787035E+03  0.91301720340E+03  0.17300000000E+03 0.  1.
</event>
<event>
 4    1  0.6239288E+000  0.1000000E+03  0.7546771E-02  0.1280296E+00
         21   -1    0    0  501  502  0.00000000000E+00  0.00000000000E+00  0.17784263508E+03  0.17784263508E+03  0.00000000000E+00 0. -1.
         21   -1    0    0  502  503 -0.00000000000E+00 -0.00000000000E+00 -0.28386914567E+03  0.28386914567E+03  0.00000000000E+00 0. -1.
          6    1    1    2  501    0 -0.96837145670E+02  0.80831994386E+01  0.55295916943E+02  0.20598400260E+03  0.17300000000E+03 0. -1.
         -6    1    1    2    0  503  0.96837145670E+02 -0.80831994386E+01 -0.16132242753E+03  0.25572777815E+03  0.17300000000E+03 0. -1.
</event>
<event>
 4    1  0.6239288E+000  0.1000000E+03  0.7546771E-02  0.1280296E+00
         21   -1    0    0  501  502  0.00000000000E+00  0.00000000000E+00  0.21303151135E+02  0.21303151135E+02  0.00000000000E+00 0. -1.
         21   -1    0    0  502  503 -0.00000000000E+00 -0.00000000000E+00 -0.15863570052E+04  0.15863570052E+04  0.00000000000E+00 0. -1.
          6    1    1    2  501    0  0.16648045721E+02  0.42942073513E+02 -0.59990917864E+03  0.62605207589E+03  0.17300000000E+03 0. -1.
         -6    1    1    2    0  503 -0.16648045721E+02 -0.42942073513E+02 -0.96514467543E+03  0.98160808046E+03  0.17300000000E+03 0. -1.
</event>
<event>
 4    1  0.6239288E+000  0.1000000E+03  0.7546771E-02  0.1280296E+00
         21   -1    0    0  501  502  0.00000000000E+00  0.00000000000E+00  0.27737989710E+03  0.27737989710E+03  0.00000000000E+00 0. -1.
         21   -1    0    0  502  503 -0.00000000000E+00 -0.00000000000E+00 -0.33076321676E+03  0.33076321676E+03  0.00000000000E+00 0. -1.
          6    1    1    2  501    0  0.23175817929E+02 -0.23905801756E+02  0.22065604910E+03  0.28235916471E+03  0.17300000000E+03 0. -1.
         -6    1    1    2    0  503 -0.23175817929E+02  0.23905801756E+02 -0.27403936876E+03  0.32578394915E+03  0.17300000000E+03 0. -1.
</event>
<event>
 4    1  0.6239288E+000  0.1000000E+03  0.7546771E-02  0.1280296E+00
         21   -1    0    0  501  502  0.00000000000E+00  0.00000000000E+00  0.87445391246E+03  0.87445391246E+03  0.00000000000E+00 0. -1.
         21   -1    0    0  502  503 -0.00000000000E+00 -0.00000000000E+00 -0.17942253815E+03  0.17942253815E+03  0.00000000000E+00 0. -1.
          6    1    1    2  501    0 -0.63852527277E+02  0.25959527347E+01  0.81385299333E+03  0.83448761462E+03  0.17300000000E+03 0. -1.
         -6    1    1    2    0  503  0.63852527277E+02 -0.25959527347E+01 -0.11882161902E+03  0.21938883599E+03  0.17300000000E+03 0. -1.
</event>
<event>
 4    1  0.6239288E+000  0.1000000E+03  0.7546771E-02  0.1280296E+00
         21   -1    0    0  501  502  0.00000000000E+00  0.00000000000E+00  0.94546409519E+02  0.94546409519E+02  0.00000000000E+00 0. -1.
         21   -1    0    0  502  503 -0.00000000000E+00 -0.00000000000E+00 -0.33987145457E+03  0.33987145457E+03  0.00000000000E+00 0. -1.
          6    1    1    2  501    0  0.18258808797E+02 -0.43253802627E+02 -0.12194547454E+03  0.21680399974E+03  0.17300000000E+03 0. -1.
         -6    1    1    2    0  503 -0.18258808797E+02  0.43253802627E+02 -0.12337957051E+03  0.21761386436E+03  0.17300000000E+03 0. -1.
</event>
<event>
 4    1  0.6239288E+000  0.1000000E+03  0.7546771E-02  0.1280296E+00
         21   -1    0    0  501  502  0.00000000000E+00  0.00000000000E+00  0.19359892870E+04  0.19359892870E+04  0.00000000000E+00 0. -1.
         21   -1    0    0  502  503 -0.00000000000E+00 -0.00000000000E+00 -0.52228964117E+02  0.52228964117E+02  0.00000000000E+00 0. -1.
          6    1    1    2  501    0 -0.15497507038E+03  0.10500270766E+02  0.26370094773E+03  0.35156040442E+03  0.17300000000E+03 0. -1.
         -6    1    1    2    0  503  0.15497507038E+03 -0.10500270766E+02  0.16200593751E+04  0.16366578467E+04  0.17300000000E+03 0. -1.
</event>
<event>
 4    1  0.6239288E+000  0.1000000E+03  0.7546771E-02  0.1280296E+00
         21   -1    0    0  503  502  0.00000000000E+00  0.00000000000E+00  0.36835513190E+02  0.36835513190E+02  0.00000000000E+00 0. -1.
         21   -1    0    0  501  503 -0.00000000000E+00 -0.00000000000E+00 -0.12373971231E+04  0.12373971231E+04  0.00000000000E+00 0. -1.
          6    1    1    2  501    0 -0.84608387925E+02  0.15610060584E+02 -0.87131804091E+03  0.89248326691E+03  0.17300000000E+03 0. -1.
         -6    1    1    2    0  502  0.84608387925E+02 -0.15610060584E+02 -0.32924356904E+03  0.38174936942E+03  0.17300000000E+03 0. -1.
</event>
<event>
 4    1  0.6239288E+000  0.1000000E+03  0.7546771E-02  0.1280296E+00
         21   -1    0    0  503  502  0.00000000000E+00  0.00000000000E+00  0.63667309613E+02  0.63667309613E+02  0.00000000000E+00 0. -1.
         21   -1    0    0  501  503 -0.00000000000E+00 -0.00000000000E+00 -0.71733696148E+03  0.71733696148E+03  0.00000000000E+00 0. -1.
          6    1    1    2  501    0  0.10239108020E+03 -0.56458367578E+02 -0.40997946250E+03  0.46009090433E+03  0.17300000000E+03 0. -1.
         -6    1    1    2    0  502 -0.10239108020E+03  0.56458367578E+02 -0.24369018937E+03  0.32091336677E+03  0.17300000000E+03 0. -1.
</event>
<event>
 4    1  0.6239288E+000  0.1000000E+03  0.7546771E-02  0.1280296E+00
         21   -1    0    0  503  502  0.00000000000E+00  0.00000000000E+00  0.10246085850E+04  0.10246085850E+04  0.00000000000E+00 0.  1.
         21   -1    0    0  501  503 -0.00000000000E+00 -0.00000000000E+00 -0.54122934423E+02  0.54122934423E+02  0.00000000000E+00 0. -1.
          6    1    1    2  501    0  0.15530303781E+02 -0.11433301272E+03  0.23212793780E+03  0.31164981572E+03  0.17300000000E+03 0. -1.
         -6    1    1    2    0  502 -0.15530303781E+02  0.11433301272E+03  0.73835771280E+03  0.76708170372E+03  0.17300000000E+03 0.  1.
</event>
<event>
 4    1  0.6239288E+000  0.1000000E+03  0.7546771E-02  0.1280296E+00
         21   -1    0    0  503  502  0.00000000000E+00  0.00000000000E+00  0.25350009024E+03  0.25350009024E+03  0.00000000000E+00 0.  1.
         21   -1    0    0  501  503 -0.00000000000E+00 -0.00000000000E+00 -0.51849124368E+03  0.51849124368E+03  0.00000000000E+00 0. -1.
          6    1    1    2  501    0 -0.17731031205E+03 -0.12121815319E+01 -0.41432284851E+03  0.48273475008E+03  0.17300000000E+03 0. -1.
         -6    1    1    2    0  502  0.17731031205E+03  0.12121815319E+01  0.14933169507E+03  0.28925658384E+03  0.17300000000E+03 0.  1.
</event>
<event>
 4    1  0.6239288E+000  0.1000000E+03  0.7546771E-02  0.1280296E+00
         21   -1    0    0  501  502  0.00000000000E+00  0.00000000000E+00  0.12215889319E+03  0.12215889319E+03  0.00000000000E+00 0.  1.
         21   -1    0    0  502  503 -0.00000000000E+00 -0.00000000000E+00 -0.48554509608E+03  0.48554509608E+03  0.00000000000E+00 0.  1.
          6    1    1    2  501    0  0.87543831050E+02 -0.17663462586E+02  0.85622140169E+00  0.19469374253E+03  0.17300000000E+03 0.  1.
         -6    1    1    2    0  503 -0.87543831050E+02  0.17663462586E+02 -0.36424242429E+03  0.41301024674E+03  0.17300000000E+03 0.  1.
</event>
<event>
 4    1  0.6239288E+000  0.1000000E+03  0.7546771E-02  0.1280296E+00
         21   -1    0    0  501  502  0.00000000000E+00  0.00000000000E+00  0.45332054767E+03  0.45332054767E+03  0.00000000000E+00 0.  1.
         21   -1    0    0  502  503 -0.00000000000E+00 -0.00000000000E+00 -0.16007244669E+03  0.16007244669E+03  0.00000000000E+00 0.  1.
          6    1    1    2  501    0 -0.16017282391E+02  0.15758670885E+03  0.29743211661E+03  0.37879412368E+03  0.17300000000E+03 0.  1.
         -6    1    1    2    0  503  0.16017282391E+02 -0.15758670885E+03 -0.41840156293E+01  0.23459887069E+03  0.17300000000E+03 0.  1.
</event>
<event>
 4    1  0.6239288E+000  0.1000000E+03  0.7546771E-02  0.1280296E+00
         21   -1    0    0  503  502  0.00000000000E+00  0.00000000000E+00  0.13769166478E+03  0.13769166478E+03  0.00000000000E+00 0. -1.
         21   -1    0    0  501  503 -0.00000000000E+00 -0.00000000000E+00 -0.10559911492E+04  0.10559911492E+04  0.00000000000E+00 0. -1.
          6    1    1    2  501    0  0.21435486425E+03  0.71846177743E+01 -0.87170450916E+03  0.91421954576E+03  0.17300000000E+03 0. -1.
         -6    1    1    2    0  502 -0.21435486425E+03 -0.71846177743E+01 -0.46594975242E+02  0.27946326821E+03  0.17300000000E+03 0. -1.
</event>
<event>
 4    1  0.6239288E+000  0.1000000E+03  0.7546771E-02  0.1280296E+00
         21   -1    0    0  503  502  0.00000000000E+00  0.00000000000E+00  0.53564124606E+03  0.53564124606E+03  0.00000000000E+00 0. -1.
         21   -1    0    0  501  503 -0.00000000000E+00 -0.00000000000E+00 -0.62753414210E+02  0.62753414210E+02  0.00000000000E+00 0. -1.
          6    1    1    2  501    0  0.31714875417E+02  0.22730688370E+02  0.16056698943E+03  0.23923477091E+03  0.17300000000E+03 0. -1.
         -6    1    1    2    0  502 -0.31714875417E+02 -0.22730688370E+02  0.31232084242E+03  0.35915988936E+03  0.17300000000E+03 0. -1.
</event>
<event>
 4    1  0.6239288E+000  0.1000000E+03  0.7546771E-02  0.1280296E+00
         21   -1    0    0  503  502  0.00000000000E+00  0.00000000000E+00  0.87768148656E+02  0.87768148656E+02  0.00000000000E+00 0. -1.
         21   -1    0    0  501  503 -0.00000000000E+00 -0.00000000000E+00 -0.57599441875E+03  0.57599441875E+03  0.00000000000E+00 0. -1.
          6    1    1    2  501    0  0.65085138811E+01  0.10080579913E+03 -0.39479311637E+03  0.44271297092E+03  0.17300000000E+03 0. -1.
         -6    1    1    2    0  502 -0.65085138811E+01 -0.10080579913E+03 -0.93433153731E+02  0.22104959649E+03  0.17300000000E+03 0. -1.
</event>
<event>
 4    1  0.6239288E+000  0.1000000E+03  0.7546771E-02  0.1280296E+00
         21   -1    0    0  503  502  0.00000000000E+00  0.00000000000E+00  0.12094520853E+03  0.12094520853E+03  0.00000000000E+00 0. -1.
         21   -1    0    0  501  503 -0.00000000000E+00 -0.00000000000E+00 -0.31921093888E+03  0.31921093888E+03  0.00000000000E+00 0. -1.
          6    1    1    2  501    0  0.49656971640E+02 -0.21527525326E+02 -0.18405708577E+03  0.25833168602E+03  0.17300000000E+03 0. -1.
         -6    1    1    2    0  502 -0.49656971640E+02  0.21527525326E+02 -0.14208644574E+02  0.18182446139E+03  0.17300000000E+03 0. -1.
</event>
<event>
 4    1  0.6239288E+000  0.1000000E+03  0.7546771E-02  0.1280296E+00
         21   -1    0    0  503  502  0.00000000000E+00  0.00000000000E+00  0.20467484676E+03  0.20467484676E+03  0.00000000000E+00 0. -1.
         21   -1    0    0  501  503 -0.00000000000E+00 -0.00000000000E+00 -0.15983263595E+03  0.15983263595E+03  0.00000000000E+00 0. -1.
          6    1    1    2  501    0  0.45818488261E+02 -0.25742022152E+02  0.17616517971E+02  0.18166267442E+03  0.17300000000E+03 0. -1.
         -6    1    1    2    0  502 -0.45818488261E+02  0.25742022152E+02  0.27225692840E+02  0.18284480830E+03  0.17300000000E+03 0. -1.
</event>
<event>
 4    1  0.6239288E+000  0.1000000E+03  0.7546771E-02  0.1280296E+00
         21   -1    0    0  501  502  0.00000000000E+00  0.00000000000E+00  0.11460091682E+04  0.11460091682E+04  0.00000000000E+00 0.  1.
         21   -1    0    0  502  503 -0.00000000000E+00 -0.00000000000E+00 -0.81816546069E+02  0.81816546069E+02  0.00000000000E+00 0. -1.
          6    1    1    2  501    0 -0.17847122618E+03 -0.31435252466E+02  0.88505707452E+03  0.91983432140E+03  0.17300000000E+03 0.  1.
         -6    1    1    2    0  503  0.17847122618E+03  0.31435252466E+02  0.17913554765E+03  0.30799139291E+03  0.17300000000E+03 0. -1.
</event>
<event>
 4    1  0.6239288E+000  0.1000000E+03  0.7546771E-02  0.1280296E+00
         21   -1    0    0  501  502  0.00000000000E+00  0.00000000000E+00  0.40941848389E+03  0.40941848389E+03  0.00000000000E+00 0. -1.
         21   -1    0    0  502  503 -0.00000000000E+00 -0.00000000000E+00 -0.17383832132E+03  0.17383832132E+03  0.00000000000E+00 0.  1.
          6    1    1    2  501    0 -0.12141072616E+03  0.70285087434E+02 -0.42729704869E+02  0.22679370719E+03  0.17300000000E+03 0.  1.
         -6    1    1    2    0  503  0.12141072616E+03 -0.70285087434E+02  0.27830986743E+03  0.35646309803E+03  0.17300000000E+03 0. -1.
</event>
<event>
 4    1  0.6239288E+000  0.1000000E+03  0.7546771E-02  0.1280296E+00
         21   -1    0    0  501  502  0.00000000000E+00  0.00000000000E+00  0.39814790618E+02  0.39814790618E+02  0.00000000000E+00 0. -1.
         21   -1    0    0  502  503 -0.00000000000E+00 -0.00000000000E+00 -0.87262827947E+03  0.87262827947E+03  0.00000000000E+00 0.  1.
          6    1    1    2  501    0  0.11743340936E+02 -0.47265525131E+02 -0.29544083571E+03  0.34581241061E+03  0.17300000000E+03 0.  1.
         -6    1    1    2    0  503 -0.11743340936E+02  0.47265525131E+02 -0.53737265314E+03  0.56663065948E+03  0.17300000000E+03 0. -1.
</event>
<event>
 4    1  0.6239288E+000  0.1000000E+03  0.7546771E-02  0.1280296E+00
         21   -1    0    0  503  502  0.00000000000E+00  0.00000000000E+00  0.31712498685E+03  0.31712498685E+03  0.00000000000E+00 0. -1.
         21   -1    0    0  501  503 -0.00000000000E+00 -0.00000000000E+00 -0.97323698766E+02  0.97323698766E+02  0.00000000000E+00 0.  1.
          6    1    1    2  501    0 -0.22887954643E+02 -0.18980709241E+02  0.10150585431E+03  0.20277219792E+03  0.17300000000E+03 0.  1.
         -6    1    1    2    0  502  0.22887954643E+02  0.18980709241E+02  0.11829543378E+03  0.21167648770E+03  0.17300000000E+03 0. -1.
</event>
<event>
 4    1  0.6239288E+000  0.1000000E+03  0.7546771E-02  0.1280296E+00
         21   -1    0    0  503  502  0.00000000000E+00  0.00000000000E+00  0.65061639321E+03  0.65061639321E+03  0.00000000000E+00 0. -1.
         21   -1    0    0  501  503 -0.00000000000E+00 -0.00000000000E+00 -0.90046081876E+02  0.90046081876E+02  0.00000000000E+00 0.  1.
          6    1    1    2  501    0 -0.50642590693E+02  0.31992399619E+01  0.52737911773E+03  0.55734427506E+03  0.17300000000E+03 0.  1.
         -6    1    1    2    0  502  0.50642590693E+02 -0.31992399619E+01  0.33191193609E+02  0.18331820003E+03  0.17300000000E+03 0. -1.
</event>
<event>
 4    1  0.6239288E+000  0.1000000E+03  0.7546771E-02  0.1280296E+00
         21   -1    0    0  501  502  0.00000000000E+00  0.00000000000E+00  0.43459912130E+03  0.43459912130E+03  0.00000000000E+00 0.  1.
         21   -1    0    0  502  503 -0.00000000000E+00 -0.00000000000E+00 -0.17805717216E+03  0.17805717216E+03  0.00000000000E+00 0.  1.
          6    1    1    2  501    0  0.31254816934E+02 -0.12241300880E+03  0.32369032769E+03  0.38815748936E+03  0.17300000000E+03 0.  1.
         -6    1    1    2    0  503 -0.31254816934E+02  0.12241300880E+03 -0.67148378548E+02  0.22449880411E+03  0.17300000000E+03 0.  1.
</event>
<event>
 4    1  0.6239288E+000  0.1000000E+03  0.7546771E-02  0.1280296E+00
         21   -1    0    0  501  502  0.00000000000E+00  0.00000000000E+00  0.15214424055E+03  0.15214424055E+03  0.00000000000E+00 0. -1.
         21   -1    0    0  502  503 -0.00000000000E+00 -0.00000000000E+00 -0.40838962676E+03  0.40838962676E+03  0.00000000000E+00 0. -1.
          6    1    1    2  501    0  0.13016737265E+03 -0.10893763154E+03 -0.19362762582E+03  0.31021220148E+03  0.17300000000E+03 0. -1.
         -6    1    1    2    0  503 -0.13016737265E+03  0.10893763154E+03 -0.62617760394E+02  0.25032166583E+03  0.17300000000E+03 0. -1.
</event>
<event>
 4    1  0.6239288E+000  0.1000000E+03  0.7546771E-02  0.1280296E+00
         21   -1    0    0  501  502  0.00000000000E+00  0.00000000000E+00  0.47510609175E+03  0.47510609175E+03  0.00000000000E+00 0. -1.
         21   -1    0    0  502  503 -0.00000000000E+00 -0.00000000000E+00 -0.41409648847E+03  0.41409648847E+03  0.00000000000E+00 0. -1.
          6    1    1    2  501    0 -0.13400832581E+03  0.21035656914E+03  0.35469209005E+03  0.46684429558E+03  0.17300000000E+03 0. -1.
         -6    1    1    2    0  503  0.13400832581E+03 -0.21035656914E+03 -0.29368248677E+03  0.42235828464E+03  0.17300000000E+03 0. -1.
</event>
<event>
 4    1  0.6239288E+000  0.1000000E+03  0.7546771E-02  0.1280296E+00
         21   -1    0    0  501  502  0.00000000000E+00  0.00000000000E+00  0.16505152260E+04  0.16505152260E+04  0.00000000000E+00 0. -1.
         21   -1    0    0  502  503 -0.00000000000E+00 -0.00000000000E+00 -0.20608287660E+02  0.20608287660E+02  0.00000000000E+00 0. -1.
          6    1    1    2  501    0 -0.34923462315E+02 -0.53529776308E+02  0.81701668737E+03  0.83757408784E+03  0.17300000000E+03 0. -1.
         -6    1    1    2    0  503  0.34923462315E+02  0.53529776308E+02  0.81289025096E+03  0.83354942581E+03  0.17300000000E+03 0. -1.
</event>
<event>
 4    1  0.6239288E+000  0.1000000E+03  0.7546771E-02  0.1280296E+00
         21   -1    0    0  501  502  0.00000000000E+00  0.00000000000E+00  0.93383184821E+03  0.93383184821E+03  0.00000000000E+00 0.  1.
         21   -1    0    0  502  503 -0.00000000000E+00 -0.00000000000E+00 -0.57045924370E+02  0.57045924370E+02  0.00000000000E+00 0.  1.
          6    1    1    2  501    0 -0.35683562830E+02 -0.14402571563E+03  0.51654602647E+03  0.56459323488E+03  0.17300000000E+03 0.  1.
         -6    1    1    2    0  503  0.35683562830E+02  0.14402571563E+03  0.36023989738E+03  0.42628453770E+03  0.17300000000E+03 0.  1.
</event>
<event>
 4    1  0.6239288E+000  0.1000000E+03  0.7546771E-02  0.1280296E+00
         21   -1    0    0  501  502  0.00000000000E+00  0.00000000000E+00  0.35659335107E+03  0.35659335107E+03  0.00000000000E+00 0.  1.
         21   -1    0    0  502  503 -0.00000000000E+00 -0.00000000000E+00 -0.25830211569E+03  0.25830211569E+03  0.00000000000E+00 0.  1.
          6    1    1    2  501    0  0.32222699844E+02  0.37911995433E+02  0.29667292516E+03  0.34701505199E+03  0.17300000000E+03 0.  1.
         -6    1    1    2    0  503 -0.32222699844E+02 -0.37911995433E+02 -0.19838168978E+03  0.26788041478E+03  0.17300000000E+03 0.  1.
</event>
<event>
 4    1  0.6239288E+000  0.1000000E+03  0.7546771E-02  0.1280296E+00
         21   -1    0    0  503  502  0.00000000000E+00  0.00000000000E+00  0.40640632677E+03  0.40640632677E+03  0.00000000000E+00 0. -1.
         21   -1    0    0  501  503 -0.00000000000E+00 -0.00000000000E+00 -0.16566649405E+03  0.16566649405E+03  0.00000000000E+00 0.  1.
          6    1    1    2  501    0 -0.16311670169E+03 -0.87742917583E+02  0.59062071401E+02  0.26023682721E+03  0.17300000000E+03 0. -1.
         -6    1    1    2    0  502  0.16311670169E+03  0.87742917583E+02  0.18167776132E+03  0.31183599362E+03  0.17300000000E+03 0.  1.
</event>
<event>
 4    1  0.6239288E+000  0.1000000E+03  0.7546771E-02  0.1280296E+00
         21   -1    0    0  503  502  0.00000000000E+00  0.00000000000E+00  0.19628726367E+04  0.19628726367E+04  0.00000000000E+00 0. -1.
         21   -1    0    0  501  503 -0.00000000000E+00 -0.00000000000E+00 -0.24797404696E+02  0.24797404696E+02  0.00000000000E+00 0.  1.
          6    1    1    2  501    0 -0.98219563337E+02  0.94475846088E+02  0.90989407436E+03  0.93616718308E+03  0.17300000000E+03 0. -1.
         -6    1    1    2    0  502  0.98219563337E+02 -0.94475846088E+02  0.10281811576E+04  0.10515028583E+04  0.17300000000E+03 0.  1.
</event>
<event>
 4    1  0.6239288E+000  0.1000000E+03  0.7546771E-02  0.1280296E+00
         21   -1    0    0  501  502  0.00000000000E+00  0.00000000000E+00  0.38681050572E+02  0.38681050572E+02  0.00000000000E+00 0.  1.
         21   -1    0    0  502  503 -0.00000000000E+00 -0.00000000000E+00 -0.10286687249E+04  0.10286687249E+04  0.00000000000E+00 0. -1.
          6    1    1    2  501    0  0.15295111858E+02 -0.43899433541E+02 -0.26022955430E+03  0.31592644974E+03  0.17300000000E+03 0. -1.
         -6    1    1    2    0  503 -0.15295111858E+02  0.43899433541E+02 -0.72975811998E+03  0.75142332569E+03  0.17300000000E+03 0.  1.
</event>
<event>
 4    1  0.6239288E+000  0.1000000E+03  0.7546771E-02  0.1280296E+00
         21   -1    0    0  501  502  0.00000000000E+00  0.00000000000E+00  0.20025512697E+04  0.20025512697E+04  0.00000000000E+00 0.  1.
         21   -1    0    0  502  503 -0.00000000000E+00 -0.00000000000E+00 -0.11275478216E+03  0.11275478216E+03  0.00000000000E+00 0. -1.
          6    1    1    2  501    0 -0.20834218025E+03  0.44900294506E+02  0.18082223041E+04  0.18289394199E+04  0.17300000000E+03 0. -1.
         -6    1    1    2    0  503  0.20834218025E+03 -0.44900294506E+02  0.81574183459E+02  0.28636663200E+03  0.17300000000E+03 0.  1.
</event>
<event>
 4    1  0.6239288E+000  0.1000000E+03  0.7546771E-02  0.1280296E+00
         21   -1    0    0  501  502  0.00000000000E+00  0.00000000000E+00  0.47854346051E+03  0.47854346051E+03  0.00000000000E+00 0.  1.
         21   -1    0    0  502  503 -0.00000000000E+00 -0.00000000000E+00 -0.93676044240E+02  0.93676044240E+02  0.00000000000E+00 0. -1.
          6    1    1    2  501    0  0.74049532794E+02  0.63217146094E+02  0.29191238388E+03  0.35301781928E+03  0.17300000000E+03 0. -1.
         -6    1    1    2    0  503 -0.74049532794E+02 -0.63217146094E+02  0.92955032397E+02  0.21920168548E+03  0.17300000000E+03 0.  1.
</event>
<event>
 4    1  0.6239288E+000  0.1000000E+03  0.7546771E-02  0.1280296E+00
         21   -1    0    0  503  502  0.00000000000E+00  0.00000000000E+00  0.11093184310E+03  0.11093184310E+03  0.00000000000E+00 0.  1.
         21   -1    0    0  501  503 -0.00000000000E+00 -0.00000000000E+00 -0.52504825602E+03  0.52504825602E+03  0.00000000000E+00 0.  1.
          6    1    1    2  501    0  0.85461896409E+02 -0.95028807624E+02 -0.35128265200E+03  0.41190133723E+03  0.17300000000E+03 0.  1.
         -6    1    1    2    0  502 -0.85461896409E+02  0.95028807624E+02 -0.62833760916E+02  0.22407876188E+03  0.17300000000E+03 0.  1.
</event>
<event>
 4    1  0.6239288E+000  0.1000000E+03  0.7546771E-02  0.1280296E+00
         21   -1    0    0  503  502  0.00000000000E+00  0.00000000000E+00  0.28797839753E+03  0.28797839753E+03  0.00000000000E+00 0. -1.
         21   -1    0    0  501  503 -0.00000000000E+00 -0.00000000000E+00 -0.26456897939E+03  0.26456897939E+03  0.00000000000E+00 0. -1.
          6    1    1    2  501    0 -0.15116802973E+03 -0.56838111679E+02 -0.13047507429E+03  0.27025004933E+03  0.17300000000E+03 0. -1.
         -6    1    1    2    0  502  0.15116802973E+03  0.56838111679E+02  0.15388449243E+03  0.28229732759E+03  0.17300000000E+03 0. -1.
</event>
<event>
 4    1  0.6239288E+000  0.1000000E+03  0.7546771E-02  0.1280296E+00
         21   -1    0    0  503  502  0.00000000000E+00  0.00000000000E+00  0.37909923390E+03  0.37909923390E+03  0.00000000000E+00 0. -1.
         21   -1    0    0  501  503 -0.00000000000E+00 -0.00000000000E+00 -0.27223783050E+03  0.27223783050E+03  0.00000000000E+00 0. -1.
          6    1    1    2  501    0 -0.84234759873E+02 -0.68724191731E+02 -0.19788120109E+03  0.28443712670E+03  0.17300000000E+03 0. -1.
         -6    1    1    2    0  502  0.84234759873E+02  0.68724191731E+02  0.30474260449E+03  0.36689993771E+03  0.17300000000E+03 0. -1.
</event>
<event>
 4    1  0.6239288E+000  0.1000000E+03  0.7546771E-02  0.1280296E+00
         21   -1    0    0  503  502  0.00000000000E+00  0.00000000000E+00  0.20224619417E+04  0.20224619417E+04  0.00000000000E+00 0. -1.
         21   -1    0    0  501  503 -0.00000000000E+00 -0.00000000000E+00 -0.40726060520E+02  0.40726060520E+02  0.00000000000E+00 0. -1.
          6    1    1    2  501    0  0.14541943736E+03  0.66453194416E+02  0.40160760227E+03  0.46559693514E+03  0.17300000000E+03 0. -1.
         -6    1    1    2    0  502 -0.14541943736E+03 -0.66453194416E+02  0.15801282789E+04  0.15975910671E+04  0.17300000000E+03 0. -1.
</event>
<event>
 4    1  0.6239288E+000  0.1000000E+03  0.7546771E-02  0.1280296E+00
         21   -1    0    0  501  502  0.00000000000E+00  0.00000000000E+00  0.26196487108E+03  0.26196487108E+03  0.00000000000E+00 0. -1.
         21   -1    0    0  502  503 -0.00000000000E+00 -0.00000000000E+00 -0.27603518718E+03  0.27603518718E+03  0.00000000000E+00 0.  1.
          6    1    1    2  501    0 -0.41765194170E+02  0.13872088172E+03  0.13928418897E+03  0.26517333909E+03  0.17300000000E+03 0. -1.
         -6    1    1    2    0  503  0.41765194170E+02 -0.13872088172E+03 -0.15335450507E+03  0.27282671917E+03  0.17300000000E+03 0.  1.
</event>
<event>
 4    1  0.6239288E+000  0.1000000E+03  0.7546771E-02  0.1280296E+00
         21   -1    0    0  501  502  0.00000000000E+00  0.00000000000E+00  0.89700283366E+03  0.89700283366E+03  0.00000000000E+00 0. -1.
         21   -1    0    0  502  503 -0.00000000000E+00 -0.00000000000E+00 -0.71672756748E+02  0.71672756748E+02  0.00000000000E+00 0.  1.
          6    1    1    2  501    0  0.12307113323E+02 -0.10697365239E+03  0.70088613250E+03  0.72990766408E+03  0.17300000000E+03 0. -1.
         -6    1    1    2    0  503 -0.12307113323E+02  0.10697365239E+03  0.12444394441E+03  0.23876792633E+03  0.17300000000E+03 0.  1.
</event>
<event>
 4    1  0.6239288E+000  0.1000000E+03  0.7546771E-02  0.1280296E+00
         21   -1    0    0  501  502  0.00000000000E+00  0.00000000000E+00  0.84729297738E+03  0.84729297738E+03  0.00000000000E+00 0.  1.
         21   -1    0    0  502  503 -0.00000000000E+00 -0.00000000000E+00 -0.63174134658E+02  0.63174134658E+02  0.00000000000E+00 0.  1.
          6    1    1    2  501    0 -0.51247287221E+02  0.21681591724E+02  0.11032367508E+03  0.21259512965E+03  0.17300000000E+03 0.  1.
         -6    1    1    2    0  503  0.51247287221E+02 -0.21681591724E+02  0.67379516764E+03  0.69787198239E+03  0.17300000000E+03 0.  1.
</event>
<event>
 4    1  0.6239288E+000  0.1000000E+03  0.7546771E-02  0.1280296E+00
         21   -1    0    0  501  502  0.00000000000E+00  0.00000000000E+00  0.27223061135E+03  0.27223061135E+03  0.00000000000E+00 0.  1.
         21   -1    0    0  502  503 -0.00000000000E+00 -0.00000000000E+00 -0.12411816926E+03  0.12411816926E+03  0.00000000000E+00 0.  1.
          6    1    1    2  501    0  0.52089329313E+02 -0.32757037683E+02  0.64816952083E+02  0.19472174769E+03  0.17300000000E+03 0.  1.
         -6    1    1    2    0  503 -0.52089329313E+02  0.32757037683E+02  0.83295490006E+02  0.20162703291E+03  0.17300000000E+03 0.  1.
</event>
<event>
 4    1  0.6239288E+000  0.1000000E+03  0.7546771E-02  0.1280296E+00
         21   -1    0    0  503  502  0.00000000000E+00  0.00000000000E+00  0.79635939697E+03  0.79635939697E+03  0.00000000000E+00 0.  1.
         21   -1    0    0  501  503 -0.00000000000E+00 -0.00000000000E+00 -0.79126374638E+02  0.79126374638E+02  0.00000000000E+00 0.  1.
          6    1    1    2  501    0 -0.12422335055E+03 -0.13282838895E+03  0.36390875441E+03  0.44207850352E+03  0.17300000000E+03 0.  1.
         -6    1    1    2    0  502  0.12422335055E+03  0.13282838895E+03  0.35332426792E+03  0.43340726809E+03  0.17300000000E+03 0.  1.
</event>
<event>
 4    1  0.6239288E+000  0.1000000E+03  0.7546771E-02  0.1280296E+00
         21   -1    0    0  503  502  0.00000000000E+00  0.00000000000E+00  0.23613491561E+03  0.23613491561E+03  0.00000000000E+00 0.  1.
         21   -1    0    0  501  503 -0.00000000000E+00 -0.00000000000E+00 -0.21783144299E+03  0.21783144299E+03  0.00000000000E+00 0. -1.
          6    1    1    2  501    0  0.61229015661E+00 -0.52744326417E+01 -0.13752951937E+03  0.22106913678E+03  0.17300000000E+03 0. -1.
         -6    1    1    2    0  502 -0.61229015661E+00  0.52744326417E+01  0.15583299199E+03  0.23289722182E+03  0.17300000000E+03 0.  1.
</event>
<event>
 4    1  0.6239288E+000  0.1000000E+03  0.7546771E-02  0.1280296E+00
         21   -1    0    0  503  502  0.00000000000E+00  0.00000000000E+00  0.38364441528E+02  0.38364441528E+02  0.00000000000E+00 0.  1.
         21   -1    0    0  501  503 -0.00000000000E+00 -0.00000000000E+00 -0.15342251439E+04  0.15342251439E+04  0.00000000000E+00 0. -1.
          6    1    1    2  501    0 -0.11293847333E+03  0.90691418072E+02 -0.45894357641E+03  0.51140809380E+03  0.17300000000E+03 0. -1.
         -6    1    1    2    0  502  0.11293847333E+03 -0.90691418072E+02 -0.10369171259E+04  0.10611814916E+04  0.17300000000E+03 0.  1.
</event>
<event>
 4    1  0.6239288E+000  0.1000000E+03  0.7546771E-02  0.1280296E+00
         21   -1    0    0  501  502  0.00000000000E+00  0.00000000000E+00  0.40832272136E+03  0.40832272136E+03  0.00000000000E+00 0.  1.
         21   -1    0    0  502  503 -0.00000000000E+00 -0.00000000000E+00 -0.16752289676E+03  0.16752289676E+03  0.00000000000E+00 0. -1.
          6    1    1    2  501    0  0.17172814621E+02  0.13395987395E+02  0.33499969474E+03  0.37766142709E+03  0.17300000000E+03 0.  1.
         -6    1    1    2    0  503 -0.17172814621E+02 -0.13395987395E+02 -0.94199870134E+02  0.19818419103E+03  0.17300000000E+03 0. -1.
</event>
<event>
 4    1  0.6239288E+000  0.1000000E+03  0.7546771E-02  0.1280296E+00
         21   -1    0    0  501  502  0.00000000000E+00  0.00000000000E+00  0.17569501735E+03  0.17569501735E+03  0.00000000000E+00 0.  1.
         21   -1    0    0  502  503 -0.00000000000E+00 -0.00000000000E+00 -0.70728861097E+03  0.70728861097E+03  0.00000000000E+00 0. -1.
          6    1    1    2  501    0  0.84375807428E+02  0.34240345406E+02  0.10157936270E+03  0.22031578486E+03  0.17300000000E+03 0.  1.
         -6    1    1    2    0  503 -0.84375807428E+02 -0.34240345406E+02 -0.63317295632E+03  0.66266784346E+03  0.17300000000E+03 0. -1.
</event>
<event>
 4    1  0.6239288E+000  0.1000000E+03  0.7546771E-02  0.1280296E+00
         21   -1    0    0  501  502  0.00000000000E+00  0.00000000000E+00  0.19213240139E+02  0.19213240139E+02  0.00000000000E+00 0.  1.
         21   -1    0    0  502  503 -0.00000000000E+00 -0.00000000000E+00 -0.16722776839E+04  0.16722776839E+04  0.00000000000E+00 0. -1.
          6    1    1    2  501    0 -0.32189332682E+02  0.22554182000E+02 -0.94738218212E+03  0.96385001078E+03  0.17300000000E+03 0.  1.
         -6    1    1    2    0  503  0.32189332682E+02 -0.22554182000E+02 -0.70568226160E+03  0.72764091322E+03  0.17300000000E+03 0. -1.
</event>
<event>
 4    1  0.6239288E+000  0.1000000E+03  0.7546771E-02  0.1280296E+00
         21   -1    0    0  501  502  0.00000000000E+00  0.00000000000E+00  0.10024379544E+03  0.10024379544E+03  0.00000000000E+00 0.  1.
         21   -1    0    0  502  503 -0.00000000000E+00 -0.00000000000E+00 -0.35019502481E+03  0.35019502481E+03  0.00000000000E+00 0. -1.
          6    1    1    2  501    0  0.64678529851E+02  0.20364574626E+02 -0.96080145277E+02  0.20918513915E+03  0.17300000000E+03 0.  1.
         -6    1    1    2    0  503 -0.64678529851E+02 -0.20364574626E+02 -0.15387108409E+03  0.24125368110E+03  0.17300000000E+03 0. -1.
</event>
<event>
 4    1  0.6239288E+000  0.1000000E+03  0.7546771E-02  0.1280296E+00
         21   -1    0    0  503  502  0.00000000000E+00  0.00000000000E+00  0.22522854228E+04  0.22522854228E+04  0.00000000000E+00 0.  1.
         21   -1    0    0  501  503 -0.00000000000E+00 -0.00000000000E+00 -0.27295342772E+03  0.27295342772E+03  0.00000000000E+00 0. -1.
          6    1    1    2  501    0  0.20560808521E+03  0.29581244721E+03 -0.96636979571E+02  0.41115373579E+03  0.17300000000E+03 0.  1.
         -6    1    1    2    0  502 -0.20560808521E+03 -0.29581244721E+03  0.20759689747E+04  0.21140851147E+04  0.17300000000E+03 0. -1.
</event>
<event>
 4    1  0.6239288E+000  0.1000000E+03  0.7546771E-02  0.1280296E+00
         21   -1    0    0  503  502  0.00000000000E+00  0.00000000000E+00  0.25571507395E+03  0.25571507395E+03  0.00000000000E+00 0.  1.
         21   -1    0    0  501  503 -0.00000000000E+00 -0.00000000000E+00 -0.11236326869E+04  0.11236326869E+04  0.00000000000E+00 0. -1.
          6    1    1    2  501    0  0.35360296666E+02  0.66301936283E+02 -0.10795269157E+04  0.10958803123E+04  0.17300000000E+03 0.  1.
         -6    1    1    2    0  502 -0.35360296666E+02 -0.66301936283E+02  0.21160930275E+03  0.28346744847E+03  0.17300000000E+03 0. -1.
</event>
<event>
 4    1  0.6239288E+000  0.1000000E+03  0.7546771E-02  0.1280296E+00
         21   -1    0    0  503  502  0.00000000000E+00  0.00000000000E+00  0.65384761346E+03  0.65384761346E+03  0.00000000000E+00 0. -1.
         21   -1    0    0  501  503 -0.00000000000E+00 -0.00000000000E+00 -0.53330988771E+02  0.53330988771E+02  0.00000000000E+00 0.  1.
          6    1    1    2  501    0 -0.56179306823E+01 -0.67407049797E+02  0.26402967140E+03  0.32282493536E+03  0.17300000000E+03 0.  1.
         -6    1    1    2    0  502  0.56179306823E+01  0.67407049797E+02  0.33648695329E+03  0.38435366688E+03  0.17300000000E+03 0. -1.
</event>
<event>
 4    1  0.6239288E+000  0.1000000E+03  0.7546771E-02  0.1280296E+00
         21   -1    0    0  503  502  0.00000000000E+00  0.00000000000E+00  0.78916134702E+02  0.78916134702E+02  0.00000000000E+00 0. -1.
         21   -1    0    0  501  503 -0.00000000000E+00 -0.00000000000E+00 -0.80025858345E+03  0.80025858345E+03  0.00000000000E+00 0.  1.
          6    1    1    2  501    0  0.10004431633E+03 -0.11833919994E+02 -0.94952713785E+02  0.22157148902E+03  0.17300000000E+03 0.  1.
         -6    1    1    2    0  502 -0.10004431633E+03  0.11833919994E+02 -0.62638973496E+03  0.65760322913E+03  0.17300000000E+03 0. -1.
</event>
<event>
 4    1  0.6239288E+000  0.1000000E+03  0.7546771E-02  0.1280296E+00
         21   -1    0    0  503  502  0.00000000000E+00  0.00000000000E+00  0.11660662933E+04  0.11660662933E+04  0.00000000000E+00 0. -1.
         21   -1    0    0  501  503 -0.00000000000E+00 -0.00000000000E+00 -0.11705713539E+03  0.11705713539E+03  0.00000000000E+00 0.  1.
          6    1    1    2  501    0  0.77921391619E+02 -0.17605026138E+03  0.66703994507E+02  0.26728984396E+03  0.17300000000E+03 0.  1.
         -6    1    1    2    0  502 -0.77921391619E+02  0.17605026138E+03  0.98230516339E+03  0.10158335847E+04  0.17300000000E+03 0. -1.
</event>
<event>
 4    1  0.6239288E+000  0.1000000E+03  0.7546771E-02  0.1280296E+00
         21   -1    0    0  501  502  0.00000000000E+00  0.00000000000E+00  0.16605867607E+03  0.16605867607E+03  0.00000000000E+00 0. -1.
         21   -1    0    0  502  503 -0.00000000000E+00 -0.00000000000E+00 -0.49772513911E+03  0.49772513911E+03  0.00000000000E+00 0. -1.
          6    1    1    2  501    0 -0.15560230955E+03 -0.15184563088E+03 -0.80581168465E+02  0.28929483069E+03  0.17300000000E+03 0. -1.
         -6    1    1    2    0  503  0.15560230955E+03  0.15184563088E+03 -0.25108529457E+03  0.37448898449E+03  0.17300000000E+03 0. -1.
</event>
<event>
 4    1  0.6239288E+000  0.1000000E+03  0.7546771E-02  0.1280296E+00
         21   -1    0    0  501  502  0.00000000000E+00  0.00000000000E+00  0.16263990637E+04  0.16263990637E+04  0.00000000000E+00 0. -1.
         21   -1    0    0  502  503 -0.00000000000E+00 -0.00000000000E+00 -0.31780519680E+02  0.31780519680E+02  0.00000000000E+00 0. -1.
          6    1    1    2  501    0  0.57144483605E+02 -0.10822403382E+03  0.49701271812E+03  0.54030415090E+03  0.17300000000E+03 0. -1.
         -6    1    1    2    0  503 -0.57144483605E+02  0.10822403382E+03  0.10976058259E+04  0.11178754325E+04  0.17300000000E+03 0. -1.
</event>
<event>
 4    1  0.6239288E+000  0.1000000E+03  0.7546771E-02  0.1280296E+00
         21   -1    0    0  503  502  0.00000000000E+00  0.00000000000E+00  0.75128312161E+02  0.75128312161E+02  0.00000000000E+00 0. -1.
         21   -1    0    0  501  503 -0.00000000000E+00 -0.00000000000E+00 -0.43291816598E+03  0.43291816598E+03  0.00000000000E+00 0. -1.
          6    1    1    2  501    0 -0.44142668973E+02 -0.15041235492E+02 -0.20778188944E+03  0.27436677563E+03  0.17300000000E+03 0. -1.
         -6    1    1    2    0  502  0.44142668973E+02  0.15041235492E+02 -0.15000796438E+03  0.23367970251E+03  0.17300000000E+03 0. -1.
</event>
<event>
 4    1  0.6239288E+000  0.1000000E+03  0.7546771E-02  0.1280296E+00
         21   -1    0    0  501  502  0.00000000000E+00  0.00000000000E+00  0.56900596232E+03  0.56900596232E+03  0.00000000000E+00 0.  1.
         21   -1    0    0  502  503 -0.00000000000E+00 -0.00000000000E+00 -0.12452296191E+03  0.12452296191E+03  0.00000000000E+00 0.  1.
          6    1    1    2  501    0 -0.16850961690E+02 -0.51218136972E+02  0.47624891950E+03  0.50955793173E+03  0.17300000000E+03 0.  1.
         -6    1    1    2    0  503  0.16850961690E+02  0.51218136972E+02 -0.31765919098E+02  0.18397099250E+03  0.17300000000E+03 0.  1.
</event>
<event>
 4    1  0.6239288E+000  0.1000000E+03  0.7546771E-02  0.1280296E+00
         21   -1    0    0  503  502  0.00000000000E+00  0.00000000000E+00  0.90365603229E+02  0.90365603229E+02  0.00000000000E+00 0. -1.
         21   -1    0    0  501  503 -0.00000000000E+00 -0.00000000000E+00 -0.44827428982E+03  0.44827428982E+03  0.00000000000E+00 0. -1.
          6    1    1    2  501    0 -0.72616841351E+02 -0.40632706917E+02 -0.25985643578E+03  0.32307675518E+03  0.17300000000E+03 0.  1.
         -6    1    1    2    0  502  0.72616841351E+02  0.40632706917E+02 -0.98052250807E+02  0.21556313787E+03  0.17300000000E+03 0.  1.
</event>
<event>
 4    1  0.6239288E+000  0.1000000E+03  0.7546771E-02  0.1280296E+00
         21   -1    0    0  503  502  0.00000000000E+00  0.00000000000E+00  0.40487585357E+03  0.40487585357E+03  0.00000000000E+00 0. -1.
         21   -1    0    0  501  503 -0.00000000000E+00 -0.00000000000E+00 -0.12944260599E+03  0.12944260599E+03  0.00000000000E+00 0. -1.
          6    1    1    2  501    0  0.35637879058E+02  0.22108780146E+02 -0.30267772947E+02  0.18056576271E+03  0.17300000000E+03 0.  1.
         -6    1    1    2    0  502 -0.35637879058E+02 -0.22108780146E+02  0.30570102053E+03  0.35375269686E+03  0.17300000000E+03 0.  1.
</event>
<event>
 4    1  0.6239288E+000  0.1000000E+03  0.7546771E-02  0.1280296E+00
         21   -1    0    0  503  502  0.00000000000E+00  0.00000000000E+00  0.16953588844E+03  0.16953588844E+03  0.00000000000E+00 0. -1.
         21   -1    0    0  501  503 -0.00000000000E+00 -0.00000000000E+00 -0.30211151961E+03  0.30211151961E+03  0.00000000000E+00 0. -1.
          6    1    1    2  501    0 -0.87905175788E+02 -0.11418426324E+03 -0.90149199559E+02  0.24253091366E+03  0.17300000000E+03 0.  1.
         -6    1    1    2    0  502  0.87905175788E+02  0.11418426324E+03 -0.42426431615E+02  0.22911649439E+03  0.17300000000E+03 0.  1.
</event>
<event>
 4    1  0.6239288E+000  0.1000000E+03  0.7546771E-02  0.1280296E+00
         21   -1    0    0  501  502  0.00000000000E+00  0.00000000000E+00  0.22666760252E+03  0.22666760252E+03  0.00000000000E+00 0. -1.
         21   -1    0    0  502  503 -0.00000000000E+00 -0.00000000000E+00 -0.14949962458E+03  0.14949962458E+03  0.00000000000E+00 0. -1.
          6    1    1    2  501    0  0.16635295947E+02  0.23682859842E+02  0.95655737078E+02  0.19979146868E+03  0.17300000000E+03 0. -1.
         -6    1    1    2    0  503 -0.16635295947E+02 -0.23682859842E+02 -0.18487759134E+02  0.17637575842E+03  0.17300000000E+03 0. -1.
</event>
<event>
 4    1  0.6239288E+000  0.1000000E+03  0.7546771E-02  0.1280296E+00
         21   -1    0    0  501  502  0.00000000000E+00  0.00000000000E+00  0.38220352647E+03  0.38220352647E+03  0.00000000000E+00 0. -1.
         21   -1    0    0  502  503 -0.00000000000E+00 -0.00000000000E+00 -0.12530969703E+03  0.12530969703E+03  0.00000000000E+00 0. -1.
          6    1    1    2  501    0  0.82950762320E+02 -0.32278722802E+02  0.24464237398E+03  0.31257260926E+03  0.17300000000E+03 0. -1.
         -6    1    1    2    0  503 -0.82950762320E+02  0.32278722802E+02  0.12251455457E+02  0.19494061423E+03  0.17300000000E+03 0. -1.
</event>
<event>
 4    1  0.6239288E+000  0.1000000E+03  0.7546771E-02  0.1280296E+00
         21   -1    0    0  501  502  0.00000000000E+00  0.00000000000E+00  0.29178103388E+03  0.29178103388E+03  0.00000000000E+00 0.  1.
         21   -1    0    0  502  503 -0.00000000000E+00 -0.00000000000E+00 -0.16244151994E+03  0.16244151994E+03  0.00000000000E+00 0.  1.
          6    1    1    2  501    0  0.10252842868E+03  0.18471758819E+01  0.15165458539E+03  0.25188013819E+03  0.17300000000E+03 0.  1.
         -6    1    1    2    0  503 -0.10252842868E+03 -0.18471758819E+01 -0.22315071450E+02  0.20234241562E+03  0.17300000000E+03 0.  1.
</event>
<event>
 4    1  0.6239288E+000  0.1000000E+03  0.7546771E-02  0.1280296E+00
         21   -1    0    0  501  502  0.00000000000E+00  0.00000000000E+00  0.16386260076E+04  0.16386260076E+04  0.00000000000E+00 0.  1.
         21   -1    0    0  502  503 -0.00000000000E+00 -0.00000000000E+00 -0.35011999467E+02  0.35011999467E+02  0.00000000000E+00 0.  1.
          6    1    1    2  501    0  0.71560063496E+02 -0.10240749498E+03  0.11818711692E+04  0.12009815146E+04  0.17300000000E+03 0.  1.
         -6    1    1    2    0  503 -0.71560063496E+02  0.10240749498E+03  0.42174283887E+03  0.47265649245E+03  0.17300000000E+03 0.  1.
</event>
<event>
 4    1  0.6239288E+000  0.1000000E+03  0.7546771E-02  0.1280296E+00
         21   -1    0    0  503  502  0.00000000000E+00  0.00000000000E+00  0.18602838357E+03  0.18602838357E+03  0.00000000000E+00 0. -1.
         21   -1    0    0  501  503 -0.00000000000E+00 -0.00000000000E+00 -0.62607621678E+03  0.62607621678E+03  0.00000000000E+00 0.  1.
          6    1    1    2  501    0  0.92794751587E+02  0.11440115241E+02 -0.55188838873E+03  0.58587672404E+03  0.17300000000E+03 0.  1.
         -6    1    1    2    0  502 -0.92794751587E+02 -0.11440115241E+02  0.11184055552E+03  0.22622787630E+03  0.17300000000E+03 0.  1.
</event>
<event>
 4    1  0.6239288E+000  0.1000000E+03  0.7546771E-02  0.1280296E+00
         21   -1    0    0  503  502  0.00000000000E+00  0.00000000000E+00  0.18039994866E+03  0.18039994866E+03  0.00000000000E+00 0. -1.
         21   -1    0    0  501  503 -0.00000000000E+00 -0.00000000000E+00 -0.25915559949E+03  0.25915559949E+03  0.00000000000E+00 0.  1.
          6    1    1    2  501    0  0.84288159925E+02 -0.98511252327E+02 -0.35616128506E+02  0.21910378670E+03  0.17300000000E+03 0.  1.
         -6    1    1    2    0  502 -0.84288159925E+02  0.98511252327E+02 -0.43139522320E+02  0.22045176145E+03  0.17300000000E+03 0.  1.
</event>
<event>
 4    1  0.6239288E+000  0.1000000E+03  0.7546771E-02  0.1280296E+00
         21   -1    0    0  501  502  0.00000000000E+00  0.00000000000E+00  0.32091985189E+03  0.32091985189E+03  0.00000000000E+00 0. -1.
         21   -1    0    0  502  503 -0.00000000000E+00 -0.00000000000E+00 -0.17776024143E+03  0.17776024143E+03  0.00000000000E+00 0. -1.
          6    1    1    2  501    0  0.93299695941E+02  0.50238597574E+02  0.20317052543E+03  0.28711672252E+03  0.17300000000E+03 0. -1.
         -6    1    1    2    0  503 -0.93299695941E+02 -0.50238597574E+02 -0.60010914965E+02  0.21156337080E+03  0.17300000000E+03 0. -1.
</event>
<event>
 4    1  0.6239288E+000  0.1000000E+03  0.7546771E-02  0.1280296E+00
         21   -1    0    0  501  502  0.00000000000E+00  0.00000000000E+00  0.77916650231E+03  0.77916650231E+03  0.00000000000E+00 0. -1.
         21   -1    0    0  502  503 -0.00000000000E+00 -0.00000000000E+00 -0.66749271294E+02  0.66749271294E+02  0.00000000000E+00 0. -1.
          6    1    1    2  501    0 -0.18957719547E+02  0.85349127027E+02  0.57904241974E+03  0.61062508340E+03  0.17300000000E+03 0. -1.
         -6    1    1    2    0  503  0.18957719547E+02 -0.85349127027E+02  0.13337481127E+03  0.23529069020E+03  0.17300000000E+03 0. -1.
</event>
<event>
 4    1  0.6239288E+000  0.1000000E+03  0.7546771E-02  0.1280296E+00
         21   -1    0    0  501  502  0.00000000000E+00  0.00000000000E+00  0.70166748695E+02  0.70166748695E+02  0.00000000000E+00 0.  1.
         21   -1    0    0  502  503 -0.00000000000E+00 -0.00000000000E+00 -0.54180188626E+03  0.54180188626E+03  0.00000000000E+00 0.  1.
          6    1    1    2  501    0  0.31827748775E+01  0.98684803570E+01 -0.95628681677E+02  0.19794282437E+03  0.17300000000E+03 0.  1.
         -6    1    1    2    0  503 -0.31827748775E+01 -0.98684803570E+01 -0.37600645589E+03  0.41402581059E+03  0.17300000000E+03 0.  1.
</event>
<event>
 4    1  0.6239288E+000  0.1000000E+03  0.7546771E-02  0.1280296E+00
         21   -1    0    0  501  502  0.00000000000E+00  0.00000000000E+00  0.80831400353E+02  0.80831400353E+02  0.00000000000E+00 0.  1.
         21   -1    0    0  502  503 -0.00000000000E+00 -0.00000000000E+00 -0.70043131930E+03  0.70043131930E+03  0.00000000000E+00 0.  1.
          6    1    1    2  501    0  0.10789345861E+03 -0.15718883572E+02 -0.11007991632E+03  0.23223838978E+03  0.17300000000E+03 0.  1.
         -6    1    1    2    0  503 -0.10789345861E+03  0.15718883572E+02 -0.50952000263E+03  0.54902432987E+03  0.17300000000E+03 0.  1.
</event>
<event>
 4    1  0.6239288E+000  0.1000000E+03  0.7546771E-02  0.1280296E+00
         21   -1    0    0  501  502  0.00000000000E+00  0.00000000000E+00  0.19751611816E+03  0.19751611816E+03  0.00000000000E+00 0.  1.
         21   -1    0    0  502  503 -0.00000000000E+00 -0.00000000000E+00 -0.29890127074E+03  0.29890127074E+03  0.00000000000E+00 0.  1.
          6    1    1    2  501    0 -0.71503270079E+02 -0.15199524020E+03 -0.81228480944E+02  0.25444515478E+03  0.17300000000E+03 0.  1.
         -6    1    1    2    0  503  0.71503270079E+02  0.15199524020E+03 -0.20156671636E+02  0.24197223412E+03  0.17300000000E+03 0.  1.
</event>
<event>
 4    1  0.6239288E+000  0.1000000E+03  0.7546771E-02  0.1280296E+00
         21   -1    0    0  501  502  0.00000000000E+00  0.00000000000E+00  0.11612238935E+03  0.11612238935E+03  0.00000000000E+00 0.  1.
         21   -1    0    0  502  503 -0.00000000000E+00 -0.00000000000E+00 -0.39343278992E+03  0.39343278992E+03  0.00000000000E+00 0.  1.
          6    1    1    2  501    0  0.12453273320E+02 -0.12489333897E+03 -0.13629355709E+03  0.25349233487E+03  0.17300000000E+03 0.  1.
         -6    1    1    2    0  503 -0.12453273320E+02  0.12489333897E+03 -0.14101684348E+03  0.25606284440E+03  0.17300000000E+03 0.  1.
</event>
<event>
 4    1  0.6239288E+000  0.1000000E+03  0.7546771E-02  0.1280296E+00
         21   -1    0    0  503  502  0.00000000000E+00  0.00000000000E+00  0.47449752087E+03  0.47449752087E+03  0.00000000000E+00 0.  1.
         21   -1    0    0  501  503 -0.00000000000E+00 -0.00000000000E+00 -0.26010970694E+03  0.26010970694E+03  0.00000000000E+00 0.  1.
          6    1    1    2  501    0  0.29482025242E+03 -0.33210263368E+02  0.29864658966E+02  0.34473584190E+03  0.17300000000E+03 0.  1.
         -6    1    1    2    0  502 -0.29482025242E+03  0.33210263368E+02  0.18452315497E+03  0.38987138591E+03  0.17300000000E+03 0.  1.
</event>
<event>
 4    1  0.6239288E+000  0.1000000E+03  0.7546771E-02  0.1280296E+00
         21   -1    0    0  503  502  0.00000000000E+00  0.00000000000E+00  0.45258744184E+03  0.45258744184E+03  0.00000000000E+00 0.  1.
         21   -1    0    0  501  503 -0.00000000000E+00 -0.00000000000E+00 -0.26238909305E+03  0.26238909305E+03  0.00000000000E+00 0.  1.
          6    1    1    2  501    0  0.15469532358E+02 -0.29464123892E+02 -0.21214308050E+03  0.27575555775E+03  0.17300000000E+03 0.  1.
         -6    1    1    2    0  502 -0.15469532358E+02  0.29464123892E+02  0.40234142929E+03  0.43922097713E+03  0.17300000000E+03 0.  1.
</event>
<event>
 4    1  0.6239288E+000  0.1000000E+03  0.7546771E-02  0.1280296E+00
         21   -1    0    0  501  502  0.00000000000E+00  0.00000000000E+00  0.14701758889E+03  0.14701758889E+03  0.00000000000E+00 0.  1.
         21   -1    0    0  502  503 -0.00000000000E+00 -0.00000000000E+00 -0.11148897043E+04  0.11148897043E+04  0.00000000000E+00 0. -1.
          6    1    1    2  501    0 -0.15305722487E+03 -0.28997643655E+03 -0.23039662895E+03  0.43649107032E+03  0.17300000000E+03 0.  1.
         -6    1    1    2    0  503  0.15305722487E+03  0.28997643655E+03 -0.73747548644E+03  0.82541622285E+03  0.17300000000E+03 0.  1.
</event>
<event>
 4    1  0.6239288E+000  0.1000000E+03  0.7546771E-02  0.1280296E+00
         21   -1    0    0  501  502  0.00000000000E+00  0.00000000000E+00  0.47400337911E+03  0.47400337911E+03  0.00000000000E+00 0. -1.
         21   -1    0    0  502  503 -0.00000000000E+00 -0.00000000000E+00 -0.20590615656E+03  0.20590615656E+03  0.00000000000E+00 0.  1.
          6    1    1    2  501    0  0.19484848431E+03  0.16551586727E+03  0.18634612520E+03  0.36057636158E+03  0.17300000000E+03 0. -1.
         -6    1    1    2    0  503 -0.19484848431E+03 -0.16551586727E+03  0.81751097351E+02  0.31933317409E+03  0.17300000000E+03 0. -1.
</event>
<event>
 4    1  0.6239288E+000  0.1000000E+03  0.7546771E-02  0.1280296E+00
         21   -1    0    0  501  502  0.00000000000E+00  0.00000000000E+00  0.53356222565E+02  0.53356222565E+02  0.00000000000E+00 0. -1.
         21   -1    0    0  502  503 -0.00000000000E+00 -0.00000000000E+00 -0.89893990565E+03  0.89893990565E+03  0.00000000000E+00 0.  1.
          6    1    1    2  501    0  0.56035655152E+02 -0.11263758819E+03 -0.32063542089E+03  0.38543909253E+03  0.17300000000E+03 0. -1.
         -6    1    1    2    0  503 -0.56035655152E+02  0.11263758819E+03 -0.52494826220E+03  0.56685703569E+03  0.17300000000E+03 0. -1.
</event>
<event>
 4    1  0.6239288E+000  0.1000000E+03  0.7546771E-02  0.1280296E+00
         21   -1    0    0  501  502  0.00000000000E+00  0.00000000000E+00  0.10418690328E+03  0.10418690328E+03  0.00000000000E+00 0. -1.
         21   -1    0    0  502  503 -0.00000000000E+00 -0.00000000000E+00 -0.30551821888E+03  0.30551821888E+03  0.00000000000E+00 0. -1.
          6    1    1    2  501    0  0.20407801292E+02 -0.14978496808E+02 -0.59889908001E+02  0.18481513683E+03  0.17300000000E+03 0. -1.
         -6    1    1    2    0  503 -0.20407801292E+02  0.14978496808E+02 -0.14144140760E+03  0.22488998533E+03  0.17300000000E+03 0. -1.
</event>
<event>
 4    1  0.6239288E+000  0.1000000E+03  0.7546771E-02  0.1280296E+00
         21   -1    0    0  501  502  0.00000000000E+00  0.00000000000E+00  0.19301909708E+03  0.19301909708E+03  0.00000000000E+00 0. -1.
         21   -1    0    0  502  503 -0.00000000000E+00 -0.00000000000E+00 -0.64288232085E+03  0.64288232085E+03  0.00000000000E+00 0. -1.
          6    1    1    2  501    0 -0.33391073677E+02  0.89133082038E+02  0.12118599879E+03  0.23167804475E+03  0.17300000000E+03 0. -1.
         -6    1    1    2    0  503  0.33391073677E+02 -0.89133082038E+02 -0.57104922256E+03  0.60422337318E+03  0.17300000000E+03 0. -1.
</event>
<event>
 4    1  0.6239288E+000  0.1000000E+03  0.7546771E-02  0.1280296E+00
         21   -1    0    0  501  502  0.00000000000E+00  0.00000000000E+00  0.66146534861E+03  0.66146534861E+03  0.00000000000E+00 0. -1.
         21   -1    0    0  502  503 -0.00000000000E+00 -0.00000000000E+00 -0.11686104064E+03  0.11686104064E+03  0.00000000000E+00 0. -1.
          6    1    1    2  501    0 -0.21454990080E+03 -0.53138541673E+01  0.32297598283E+03  0.42462028032E+03  0.17300000000E+03 0. -1.
         -6    1    1    2    0  503  0.21454990080E+03  0.53138541673E+01  0.22162832514E+03  0.35370610892E+03  0.17300000000E+03 0. -1.
</event>
<event>
 4    1  0.6239288E+000  0.1000000E+03  0.7546771E-02  0.1280296E+00
         21   -1    0    0  501  502  0.00000000000E+00  0.00000000000E+00  0.81139125593E+03  0.81139125593E+03  0.00000000000E+00 0. -1.
         21   -1    0    0  502  503 -0.00000000000E+00 -0.00000000000E+00 -0.58067775154E+02  0.58067775154E+02  0.00000000000E+00 0. -1.
          6    1    1    2  501    0  0.42266273114E+02 -0.10969691623E+03  0.49287273214E+03  0.53541795017E+03  0.17300000000E+03 0. -1.
         -6    1    1    2    0  503 -0.42266273114E+02  0.10969691623E+03  0.26045074863E+03  0.33404108091E+03  0.17300000000E+03 0. -1.
</event>
<event>
 4    1  0.6239288E+000  0.1000000E+03  0.7546771E-02  0.1280296E+00
         21   -1    0    0  503  502  0.00000000000E+00  0.00000000000E+00  0.56611363464E+02  0.56611363464E+02  0.00000000000E+00 0. -1.
         21   -1    0    0  501  503 -0.00000000000E+00 -0.00000000000E+00 -0.85783420316E+03  0.85783420316E+03  0.00000000000E+00 0.  1.
          6    1    1    2  501    0 -0.68234098846E+02 -0.45733269848E+02 -0.17440456997E+03  0.25902389512E+03  0.17300000000E+03 0. -1.
         -6    1    1    2    0  502  0.68234098846E+02  0.45733269848E+02 -0.62681826973E+03  0.65542167151E+03  0.17300000000E+03 0.  1.
</event>
<event>
 4    1  0.6239288E+000  0.1000000E+03  0.7546771E-02  0.1280296E+00
         21   -1    0    0  503  502  0.00000000000E+00  0.00000000000E+00  0.75941194698E+03  0.75941194698E+03  0.00000000000E+00 0. -1.
         21   -1    0    0  501  503 -0.00000000000E+00 -0.00000000000E+00 -0.56792485691E+02  0.56792485691E+02  0.00000000000E+00 0.  1.
          6    1    1    2  501    0 -0.77487419202E+02 -0.40574573964E+02  0.20492231443E+03  0.28208642495E+03  0.17300000000E+03 0. -1.
         -6    1    1    2    0  502  0.77487419202E+02  0.40574573964E+02  0.49769714686E+03  0.53411800773E+03  0.17300000000E+03 0.  1.
</event>
<event>
 4    1  0.6239288E+000  0.1000000E+03  0.7546771E-02  0.1280296E+00
         21   -1    0    0  501  502  0.00000000000E+00  0.00000000000E+00  0.36546672677E+02  0.36546672677E+02  0.00000000000E+00 0.  1.
         21   -1    0    0  502  503 -0.00000000000E+00 -0.00000000000E+00 -0.10722620695E+04  0.10722620695E+04  0.00000000000E+00 0. -1.
          6    1    1    2  501    0  0.49963977546E+02  0.34876709032E+02 -0.30929558889E+03  0.35959080243E+03  0.17300000000E+03 0.  1.
         -6    1    1    2    0  503 -0.49963977546E+02 -0.34876709032E+02 -0.72641980798E+03  0.74921793979E+03  0.17300000000E+03 0. -1.
</event>
<event>
 4    1  0.6239288E+000  0.1000000E+03  0.7546771E-02  0.1280296E+00
         21   -1    0    0  501  502  0.00000000000E+00  0.00000000000E+00  0.40869972852E+03  0.40869972852E+03  0.00000000000E+00 0.  1.
         21   -1    0    0  502  503 -0.00000000000E+00 -0.00000000000E+00 -0.13995403325E+03  0.13995403325E+03  0.00000000000E+00 0. -1.
          6    1    1    2  501    0 -0.89749884357E+02 -0.13647881023E+03  0.16220255887E+03  0.28795863850E+03  0.17300000000E+03 0.  1.
         -6    1    1    2    0  503  0.89749884357E+02  0.13647881023E+03  0.10654313640E+03  0.26069512327E+03  0.17300000000E+03 0. -1.
</event>
<event>
 4    1  0.6239288E+000  0.1000000E+03  0.7546771E-02  0.1280296E+00
         21   -1    0    0  501  502  0.00000000000E+00  0.00000000000E+00  0.36335401520E+03  0.36335401520E+03  0.00000000000E+00 0.  1.
         21   -1    0    0  502  503 -0.00000000000E+00 -0.00000000000E+00 -0.25642129330E+03  0.25642129330E+03  0.00000000000E+00 0. -1.
          6    1    1    2  501    0 -0.13522544280E+03 -0.12677426867E+03  0.22601000610E+03  0.33965741334E+03  0.17300000000E+03 0.  1.
         -6    1    1    2    0  503  0.13522544280E+03  0.12677426867E+03 -0.11907728420E+03  0.28011789516E+03  0.17300000000E+03 0. -1.
</event>
<event>
 4    1  0.6239288E+000  0.1000000E+03  0.7546771E-02  0.1280296E+00
         21   -1    0    0  501  502  0.00000000000E+00  0.00000000000E+00  0.16380314470E+03  0.16380314470E+03  0.00000000000E+00 0. -1.
         21   -1    0    0  502  503 -0.00000000000E+00 -0.00000000000E+00 -0.20307542998E+03  0.20307542998E+03  0.00000000000E+00 0. -1.
          6    1    1    2  501    0 -0.51145057965E+02 -0.75151786993E+01 -0.45535667129E+02  0.18621168558E+03  0.17300000000E+03 0. -1.
         -6    1    1    2    0  503  0.51145057965E+02  0.75151786993E+01  0.62633818470E+01  0.18066688910E+03  0.17300000000E+03 0. -1.
</event>
<event>
 4    1  0.6239288E+000  0.1000000E+03  0.7546771E-02  0.1280296E+00
         21   -1    0    0  501  502  0.00000000000E+00  0.00000000000E+00  0.10870590878E+03  0.10870590878E+03  0.00000000000E+00 0. -1.
         21   -1    0    0  502  503 -0.00000000000E+00 -0.00000000000E+00 -0.44116192994E+03  0.44116192994E+03  0.00000000000E+00 0. -1.
          6    1    1    2  501    0  0.25788264341E+02 -0.13018616367E+03 -0.14066971721E+03  0.25948109975E+03  0.17300000000E+03 0. -1.
         -6    1    1    2    0  503 -0.25788264341E+02  0.13018616367E+03 -0.19178630395E+03  0.29038673897E+03  0.17300000000E+03 0. -1.
</event>
<event>
 4    1  0.6239288E+000  0.1000000E+03  0.7546771E-02  0.1280296E+00
         21   -1    0    0  503  502  0.00000000000E+00  0.00000000000E+00  0.11734639103E+04  0.11734639103E+04  0.00000000000E+00 0. -1.
         21   -1    0    0  501  503 -0.00000000000E+00 -0.00000000000E+00 -0.49805888628E+02  0.49805888628E+02  0.00000000000E+00 0. -1.
          6    1    1    2  501    0  0.89675307898E+02  0.14277084119E+03  0.53766288536E+03  0.58943663971E+03  0.17300000000E+03 0. -1.
         -6    1    1    2    0  502 -0.89675307898E+02 -0.14277084119E+03  0.58599513629E+03  0.63383315919E+03  0.17300000000E+03 0. -1.
</event>
<event>
 4    1  0.6239288E+000  0.1000000E+03  0.7546771E-02  0.1280296E+00
         21   -1    0    0  503  502  0.00000000000E+00  0.00000000000E+00  0.40569911565E+03  0.40569911565E+03  0.00000000000E+00 0. -1.
         21   -1    0    0  501  503 -0.00000000000E+00 -0.00000000000E+00 -0.13905337760E+03  0.13905337760E+03  0.00000000000E+00 0. -1.
          6    1    1    2  501    0  0.20824911269E+02 -0.12779262791E+03  0.20261556774E+02  0.21703493581E+03  0.17300000000E+03 0. -1.
         -6    1    1    2    0  502 -0.20824911269E+02  0.12779262791E+03  0.24638418127E+03  0.32771755745E+03  0.17300000000E+03 0. -1.
</event>
<event>
 4    1  0.6239288E+000  0.1000000E+03  0.7546771E-02  0.1280296E+00
         21   -1    0    0  501  502  0.00000000000E+00  0.00000000000E+00  0.45772783260E+02  0.45772783260E+02  0.00000000000E+00 0. -1.
         21   -1    0    0  502  503 -0.00000000000E+00 -0.00000000000E+00 -0.75342366357E+03  0.75342366357E+03  0.00000000000E+00 0.  1.
          6    1    1    2  501    0 -0.18412251413E+02  0.37459585181E+02 -0.23965738794E+03  0.29850778066E+03  0.17300000000E+03 0.  1.
         -6    1    1    2    0  503  0.18412251413E+02 -0.37459585181E+02 -0.46799349237E+03  0.50068866617E+03  0.17300000000E+03 0. -1.
</event>
<event>
 4    1  0.6239288E+000  0.1000000E+03  0.7546771E-02  0.1280296E+00
         21   -1    0    0  501  502  0.00000000000E+00  0.00000000000E+00  0.10382541409E+03  0.10382541409E+03  0.00000000000E+00 0. -1.
         21   -1    0    0  502  503 -0.00000000000E+00 -0.00000000000E+00 -0.10930881219E+04  0.10930881219E+04  0.00000000000E+00 0.  1.
          6    1    1    2  501    0  0.17271835815E+03 -0.17533635241E+03 -0.22529611612E+03  0.37584811781E+03  0.17300000000E+03 0.  1.
         -6    1    1    2    0  503 -0.17271835815E+03  0.17533635241E+03 -0.76396659173E+03  0.82106541822E+03  0.17300000000E+03 0. -1.
</event>
<event>
 4    1  0.6239288E+000  0.1000000E+03  0.7546771E-02  0.1280296E+00
         21   -1    0    0  501  502  0.00000000000E+00  0.00000000000E+00  0.40337627408E+03  0.40337627408E+03  0.00000000000E+00 0. -1.
         21   -1    0    0  502  503 -0.00000000000E+00 -0.00000000000E+00 -0.20314820366E+03  0.20314820366E+03  0.00000000000E+00 0.  1.
          6    1    1    2  501    0 -0.39046046049E+02  0.74771783411E+02  0.32459704508E+03  0.37736938797E+03  0.17300000000E+03 0.  1.
         -6    1    1    2    0  503  0.39046046049E+02 -0.74771783411E+02 -0.12436897466E+03  0.22915508976E+03  0.17300000000E+03 0. -1.
</event>
<event>
 4    1  0.6239288E+000  0.1000000E+03  0.7546771E-02  0.1280296E+00
         21   -1    0    0  501  502  0.00000000000E+00  0.00000000000E+00  0.90220225583E+02  0.90220225583E+02  0.00000000000E+00 0. -1.
         21   -1    0    0  502  503 -0.00000000000E+00 -0.00000000000E+00 -0.42112899080E+03  0.42112899080E+03  0.00000000000E+00 0.  1.
          6    1    1    2  501    0 -0.83452382877E+02  0.15997569333E+02 -0.20358640718E+03  0.28035093654E+03  0.17300000000E+03 0.  1.
         -6    1    1    2    0  503  0.83452382877E+02 -0.15997569333E+02 -0.12732235804E+03  0.23099827984E+03  0.17300000000E+03 0. -1.
</event>
<event>
 4    1  0.6239288E+000  0.1000000E+03  0.7546771E-02  0.1280296E+00
         21   -1    0    0  503  502  0.00000000000E+00  0.00000000000E+00  0.37586636045E+03  0.37586636045E+03  0.00000000000E+00 0. -1.
         21   -1    0    0  501  503 -0.00000000000E+00 -0.00000000000E+00 -0.13138082840E+03  0.13138082840E+03  0.00000000000E+00 0.  1.
          6    1    1    2  501    0 -0.48136315595E+02  0.11753513439E+03  0.56470509229E+02  0.22192235378E+03  0.17300000000E+03 0.  1.
         -6    1    1    2    0  502  0.48136315595E+02 -0.11753513439E+03  0.18801502282E+03  0.28532483506E+03  0.17300000000E+03 0. -1.
</event>
<event>
 4    1  0.6239288E+000  0.1000000E+03  0.7546771E-02  0.1280296E+00
         21   -1    0    0  503  502  0.00000000000E+00  0.00000000000E+00  0.22207421350E+03  0.22207421350E+03  0.00000000000E+00 0. -1.
         21   -1    0    0  501  503 -0.00000000000E+00 -0.00000000000E+00 -0.21659850933E+03  0.21659850933E+03  0.00000000000E+00 0.  1.
          6    1    1    2  501    0  0.13111104495E+03  0.29119956509E+02 -0.88330809057E+01  0.21919192799E+03  0.17300000000E+03 0.  1.
         -6    1    1    2    0  502 -0.13111104495E+03 -0.29119956509E+02  0.14308785069E+02  0.21948079485E+03  0.17300000000E+03 0. -1.
</event>
<event>
 4    1  0.6239288E+000  0.1000000E+03  0.7546771E-02  0.1280296E+00
         21   -1    0    0  501  502  0.00000000000E+00  0.00000000000E+00  0.10643441477E+03  0.10643441477E+03  0.00000000000E+00 0.  1.
         21   -1    0    0  502  503 -0.00000000000E+00 -0.00000000000E+00 -0.34649072774E+03  0.34649072774E+03  0.00000000000E+00 0.  1.
          6    1    1    2  501    0 -0.80333405235E+02 -0.17908350803E+02 -0.10441140456E+03  0.21818548629E+03  0.17300000000E+03 0.  1.
         -6    1    1    2    0  503  0.80333405235E+02  0.17908350803E+02 -0.13564490841E+03  0.23473965622E+03  0.17300000000E+03 0.  1.
</event>
<event>
 4    1  0.6239288E+000  0.1000000E+03  0.7546771E-02  0.1280296E+00
         21   -1    0    0  501  502  0.00000000000E+00  0.00000000000E+00  0.90607426002E+02  0.90607426002E+02  0.00000000000E+00 0. -1.
         21   -1    0    0  502  503 -0.00000000000E+00 -0.00000000000E+00 -0.86146733955E+03  0.86146733955E+03  0.00000000000E+00 0. -1.
          6    1    1    2  501    0 -0.13928469865E+01  0.59595363127E+01 -0.11782444888E+02  0.17350873783E+03  0.17300000000E+03 0. -1.
         -6    1    1    2    0  503  0.13928469865E+01 -0.59595363127E+01 -0.75907746866E+03  0.77856602772E+03  0.17300000000E+03 0. -1.
</event>
<event>
 4    1  0.6239288E+000  0.1000000E+03  0.7546771E-02  0.1280296E+00
         21   -1    0    0  501  502  0.00000000000E+00  0.00000000000E+00  0.94203044442E+03  0.94203044442E+03  0.00000000000E+00 0. -1.
         21   -1    0    0  502  503 -0.00000000000E+00 -0.00000000000E+00 -0.11018871206E+03  0.11018871206E+03  0.00000000000E+00 0. -1.
          6    1    1    2  501    0 -0.19082264989E+03 -0.17172982790E+03  0.56168201372E+03  0.64134242183E+03  0.17300000000E+03 0. -1.
         -6    1    1    2    0  503  0.19082264989E+03  0.17172982790E+03  0.27015971864E+03  0.41087673465E+03  0.17300000000E+03 0. -1.
</event>
<event>
 4    1  0.6239288E+000  0.1000000E+03  0.7546771E-02  0.1280296E+00
         21   -1    0    0  501  502  0.00000000000E+00  0.00000000000E+00  0.10774542412E+03  0.10774542412E+03  0.00000000000E+00 0. -1.
         21   -1    0    0  502  503 -0.00000000000E+00 -0.00000000000E+00 -0.19479819047E+04  0.19479819047E+04  0.00000000000E+00 0. -1.
          6    1    1    2  501    0  0.11547820112E+03 -0.32105926297E+02 -0.71363282410E+01  0.21058473976E+03  0.17300000000E+03 0. -1.
         -6    1    1    2    0  503 -0.11547820112E+03  0.32105926297E+02 -0.18331001523E+04  0.18451425890E+04  0.17300000000E+03 0. -1.
</event>
<event>
 4    1  0.6239288E+000  0.1000000E+03  0.7546771E-02  0.1280296E+00
         21   -1    0    0  501  502  0.00000000000E+00  0.00000000000E+00  0.18149611321E+03  0.18149611321E+03  0.00000000000E+00 0. -1.
         21   -1    0    0  502  503 -0.00000000000E+00 -0.00000000000E+00 -0.25640520692E+03  0.25640520692E+03  0.00000000000E+00 0. -1.
          6    1    1    2  501    0  0.12752517230E+03 -0.17362100384E+02 -0.44143773356E+02  0.22009494503E+03  0.17300000000E+03 0. -1.
         -6    1    1    2    0  503 -0.12752517230E+03  0.17362100384E+02 -0.30765320347E+02  0.21780637510E+03  0.17300000000E+03 0. -1.
</event>
<event>
 4    1  0.6239288E+000  0.1000000E+03  0.7546771E-02  0.1280296E+00
         21   -1    0    0  503  502  0.00000000000E+00  0.00000000000E+00  0.19942975882E+04  0.19942975882E+04  0.00000000000E+00 0.  1.
         21   -1    0    0  501  503 -0.00000000000E+00 -0.00000000000E+00 -0.47785951186E+02  0.47785951186E+02  0.00000000000E+00 0. -1.
          6    1    1    2  501    0 -0.36140150411E+02  0.53557190751E+02  0.15505547434E+03  0.24113416032E+03  0.17300000000E+03 0. -1.
         -6    1    1    2    0  502  0.36140150411E+02 -0.53557190751E+02  0.17914561627E+04  0.18009493791E+04  0.17300000000E+03 0.  1.
</event>
<event>
 4    1  0.6239288E+000  0.1000000E+03  0.7546771E-02  0.1280296E+00
         21   -1    0    0  503  502  0.00000000000E+00  0.00000000000E+00  0.97395790715E+02  0.97395790715E+02  0.00000000000E+00 0.  1.
         21   -1    0    0  501  503 -0.00000000000E+00 -0.00000000000E+00 -0.35441199811E+03  0.35441199811E+03  0.00000000000E+00 0. -1.
          6    1    1    2  501    0  0.17846553006E+02 -0.46011270665E+02 -0.72080442309E+02  0.19380435146E+03  0.17300000000E+03 0. -1.
         -6    1    1    2    0  502 -0.17846553006E+02  0.46011270665E+02 -0.18493576509E+03  0.25800343736E+03  0.17300000000E+03 0.  1.
</event>
<event>
 4    1  0.6239288E+000  0.1000000E+03  0.7546771E-02  0.1280296E+00
         21   -1    0    0  501  502  0.00000000000E+00  0.00000000000E+00  0.12840754340E+03  0.12840754340E+03  0.00000000000E+00 0.  1.
         21   -1    0    0  502  503 -0.00000000000E+00 -0.00000000000E+00 -0.29021811811E+03  0.29021811811E+03  0.00000000000E+00 0. -1.
          6    1    1    2  501    0 -0.68126408803E+02 -0.34655730302E+02 -0.38982097022E+02  0.19310834034E+03  0.17300000000E+03 0. -1.
         -6    1    1    2    0  503  0.68126408803E+02  0.34655730302E+02 -0.12282847768E+03  0.22551732117E+03  0.17300000000E+03 0.  1.
</event>
<event>
 4    1  0.6239288E+000  0.1000000E+03  0.7546771E-02  0.1280296E+00
         21   -1    0    0  501  502  0.00000000000E+00  0.00000000000E+00  0.37703572288E+03  0.37703572288E+03  0.00000000000E+00 0.  1.
         21   -1    0    0  502  503 -0.00000000000E+00 -0.00000000000E+00 -0.82250565405E+03  0.82250565405E+03  0.00000000000E+00 0.  1.
          6    1    1    2  501    0 -0.46523259827E+02 -0.34600434168E+01  0.34514124909E+03  0.38888027390E+03  0.17300000000E+03 0.  1.
         -6    1    1    2    0  503  0.46523259827E+02  0.34600434168E+01 -0.79061118026E+03  0.81066110303E+03  0.17300000000E+03 0.  1.
</event>
<event>
 4    1  0.6239288E+000  0.1000000E+03  0.7546771E-02  0.1280296E+00
         21   -1    0    0  501  502  0.00000000000E+00  0.00000000000E+00  0.84002602238E+03  0.84002602238E+03  0.00000000000E+00 0.  1.
         21   -1    0    0  502  503 -0.00000000000E+00 -0.00000000000E+00 -0.61966211357E+02  0.61966211357E+02  0.00000000000E+00 0.  1.
          6    1    1    2  501    0 -0.28455628694E+02 -0.24564106851E+02  0.67350920389E+03  0.69638837288E+03  0.17300000000E+03 0.  1.
         -6    1    1    2    0  503  0.28455628694E+02  0.24564106851E+02  0.10455060713E+03  0.20560386086E+03  0.17300000000E+03 0.  1.
</event>
<event>
 4    1  0.6239288E+000  0.1000000E+03  0.7546771E-02  0.1280296E+00
         21   -1    0    0  501  502  0.00000000000E+00  0.00000000000E+00  0.64889562412E+03  0.64889562412E+03  0.00000000000E+00 0.  1.
         21   -1    0    0  502  503 -0.00000000000E+00 -0.00000000000E+00 -0.86459169387E+02  0.86459169387E+02  0.00000000000E+00 0.  1.
          6    1    1    2  501    0  0.13192428003E+03  0.62174900611E+02  0.38992584032E+03  0.45082246492E+03  0.17300000000E+03 0.  1.
         -6    1    1    2    0  503 -0.13192428003E+03 -0.62174900611E+02  0.17251061441E+03  0.28453232859E+03  0.17300000000E+03 0.  1.
</event>
<event>
 4    1  0.6239288E+000  0.1000000E+03  0.7546771E-02  0.1280296E+00
         21   -1    0    0  501  502  0.00000000000E+00  0.00000000000E+00  0.26160296359E+03  0.26160296359E+03  0.00000000000E+00 0.  1.
         21   -1    0    0  502  503 -0.00000000000E+00 -0.00000000000E+00 -0.15956201716E+03  0.15956201716E+03  0.00000000000E+00 0.  1.
          6    1    1    2  501    0  0.13308344669E+02  0.82900704902E+02  0.12215627085E+03  0.22781745635E+03  0.17300000000E+03 0.  1.
         -6    1    1    2    0  503 -0.13308344669E+02 -0.82900704902E+02 -0.20115324421E+02  0.19334752439E+03  0.17300000000E+03 0.  1.
</event>
<event>
 4    1  0.6239288E+000  0.1000000E+03  0.7546771E-02  0.1280296E+00
         21   -1    0    0  501  502  0.00000000000E+00  0.00000000000E+00  0.10330899196E+03  0.10330899196E+03  0.00000000000E+00 0.  1.
         21   -1    0    0  502  503 -0.00000000000E+00 -0.00000000000E+00 -0.36260207097E+03  0.36260207097E+03  0.00000000000E+00 0.  1.
          6    1    1    2  501    0  0.62773754459E+02 -0.21579588099E+02 -0.62364037742E+02  0.19551085923E+03  0.17300000000E+03 0.  1.
         -6    1    1    2    0  503 -0.62773754459E+02  0.21579588099E+02 -0.19692904127E+03  0.27040020371E+03  0.17300000000E+03 0.  1.
</event>
<event>
 4    1  0.6239288E+000  0.1000000E+03  0.7546771E-02  0.1280296E+00
         21   -1    0    0  501  502  0.00000000000E+00  0.00000000000E+00  0.84180662239E+03  0.84180662239E+03  0.00000000000E+00 0.  1.
         21   -1    0    0  502  503 -0.00000000000E+00 -0.00000000000E+00 -0.55332307163E+02  0.55332307163E+02  0.00000000000E+00 0.  1.
          6    1    1    2  501    0  0.68951075164E+02  0.56104242131E+01  0.61962681400E+03  0.64703331928E+03  0.17300000000E+03 0.  1.
         -6    1    1    2    0  503 -0.68951075164E+02 -0.56104242131E+01  0.16684750123E+03  0.25010561028E+03  0.17300000000E+03 0.  1.
</event>
<event>
 4    1  0.6239288E+000  0.1000000E+03  0.7546771E-02  0.1280296E+00
         21   -1    0    0  501  502  0.00000000000E+00  0.00000000000E+00  0.82230198570E+02  0.82230198570E+02  0.00000000000E+00 0.  1.
         21   -1    0    0  502  503 -0.00000000000E+00 -0.00000000000E+00 -0.64396488434E+03  0.64396488434E+03  0.00000000000E+00 0. -1.
          6    1    1    2  501    0 -0.11416968836E+03 -0.76771456712E+02 -0.17988506224E+03  0.28498457839E+03  0.17300000000E+03 0.  1.
         -6    1    1    2    0  503  0.11416968836E+03  0.76771456712E+02 -0.38184962354E+03  0.44121050452E+03  0.17300000000E+03 0. -1.
</event>
<event>
 4    1  0.6239288E+000  0.1000000E+03  0.7546771E-02  0.1280296E+00
         21   -1    0    0  503  502  0.00000000000E+00  0.00000000000E+00  0.35108899193E+02  0.35108899193E+02  0.00000000000E+00 0. -1.
         21   -1    0    0  501  503 -0.00000000000E+00 -0.00000000000E+00 -0.16584902434E+04  0.16584902434E+04  0.00000000000E+00 0.  1.
          6    1    1    2  501    0 -0.13531338789E+03 -0.73008995521E+02 -0.10512151035E+04  0.10763931531E+04  0.17300000000E+03 0.  1.
         -6    1    1    2    0  502  0.13531338789E+03  0.73008995521E+02 -0.57216624070E+03  0.61720598941E+03  0.17300000000E+03 0. -1.
</event>
<event>
 4    1  0.6239288E+000  0.1000000E+03  0.7546771E-02  0.1280296E+00
         21   -1    0    0  503  502  0.00000000000E+00  0.00000000000E+00  0.26470843277E+03  0.26470843277E+03  0.00000000000E+00 0. -1.
         21   -1    0    0  501  503 -0.00000000000E+00 -0.00000000000E+00 -0.30045257872E+03  0.30045257872E+03  0.00000000000E+00 0. -1.
          6    1    1    2  501    0  0.43156598566E+01 -0.48372459186E+02 -0.23566682063E+03  0.29635514180E+03  0.17300000000E+03 0. -1.
         -6    1    1    2    0  502 -0.43156598566E+01  0.48372459186E+02  0.19992267468E+03  0.26880586969E+03  0.17300000000E+03 0. -1.
</event>
<event>
 4    1  0.6239288E+000  0.1000000E+03  0.7546771E-02  0.1280296E+00
         21   -1    0    0  503  502  0.00000000000E+00  0.00000000000E+00  0.11629527359E+03  0.11629527359E+03  0.00000000000E+00 0. -1.
         21   -1    0    0  501  503 -0.00000000000E+00 -0.00000000000E+00 -0.41741546556E+03  0.41741546556E+03  0.00000000000E+00 0. -1.
          6    1    1    2  501    0 -0.93014755725E+02  0.21363419132E+02 -0.26865102106E+03  0.33348240070E+03  0.17300000000E+03 0. -1.
         -6    1    1    2    0  502  0.93014755725E+02 -0.21363419132E+02 -0.32469170908E+02  0.20022833845E+03  0.17300000000E+03 0. -1.
</event>
<event>
 4    1  0.6239288E+000  0.1000000E+03  0.7546771E-02  0.1280296E+00
         21   -1    0    0  503  502  0.00000000000E+00  0.00000000000E+00  0.10126800769E+03  0.10126800769E+03  0.00000000000E+00 0. -1.
         21   -1    0    0  501  503 -0.00000000000E+00 -0.00000000000E+00 -0.34837003395E+03  0.34837003395E+03  0.00000000000E+00 0. -1.
          6    1    1    2  501    0  0.11299636920E+02 -0.17464006066E+02 -0.20748339372E+03  0.27094470279E+03  0.17300000000E+03 0. -1.
         -6    1    1    2    0  502 -0.11299636920E+02  0.17464006066E+02 -0.39618632546E+02  0.17869333884E+03  0.17300000000E+03 0. -1.
</event>
<event>
 4    1  0.6239288E+000  0.1000000E+03  0.7546771E-02  0.1280296E+00
         21   -1    0    0  503  502  0.00000000000E+00  0.00000000000E+00  0.20465771995E+03  0.20465771995E+03  0.00000000000E+00 0. -1.
         21   -1    0    0  501  503 -0.00000000000E+00 -0.00000000000E+00 -0.35182805704E+03  0.35182805704E+03  0.00000000000E+00 0. -1.
          6    1    1    2  501    0 -0.27172155188E+02 -0.55343084478E+02 -0.27644568235E+03  0.33189214860E+03  0.17300000000E+03 0. -1.
         -6    1    1    2    0  502  0.27172155188E+02  0.55343084478E+02  0.12927534526E+03  0.22459362838E+03  0.17300000000E+03 0. -1.
</event>
<event>
 4    1  0.6239288E+000  0.1000000E+03  0.7546771E-02  0.1280296E+00
         21   -1    0    0  503  502  0.00000000000E+00  0.00000000000E+00  0.20680303446E+04  0.20680303446E+04  0.00000000000E+00 0. -1.
         21   -1    0    0  501  503 -0.00000000000E+00 -0.00000000000E+00 -0.68214469697E+02  0.68214469697E+02  0.00000000000E+00 0. -1.
          6    1    1    2  501    0 -0.18257237228E+03  0.27299400792E+03  0.11628324495E+04  0.12206419234E+04  0.17300000000E+03 0. -1.
         -6    1    1    2    0  502  0.18257237228E+03 -0.27299400792E+03  0.83698342541E+03  0.91560289093E+03  0.17300000000E+03 0. -1.
</event>
<event>
 4    1  0.6239288E+000  0.1000000E+03  0.7546771E-02  0.1280296E+00
         21   -1    0    0  503  502  0.00000000000E+00  0.00000000000E+00  0.43740750399E+02  0.43740750399E+02  0.00000000000E+00 0.  1.
         21   -1    0    0  501  503 -0.00000000000E+00 -0.00000000000E+00 -0.12070598907E+04  0.12070598907E+04  0.00000000000E+00 0. -1.
          6    1    1    2  501    0 -0.80612226721E+02  0.12756283945E+03 -0.55470224068E+03  0.60032839756E+03  0.17300000000E+03 0. -1.
         -6    1    1    2    0  502  0.80612226721E+02 -0.12756283945E+03 -0.60861689963E+03  0.65047224354E+03  0.17300000000E+03 0.  1.
</event>
<event>
 4    1  0.6239288E+000  0.1000000E+03  0.7546771E-02  0.1280296E+00
         21   -1    0    0  503  502  0.00000000000E+00  0.00000000000E+00  0.77729870437E+03  0.77729870437E+03  0.00000000000E+00 0.  1.
         21   -1    0    0  501  503 -0.00000000000E+00 -0.00000000000E+00 -0.41600998060E+02  0.41600998060E+02  0.00000000000E+00 0. -1.
          6    1    1    2  501    0  0.24974950199E+02 -0.41287491510E+02  0.38808648170E+03  0.42763129255E+03  0.17300000000E+03 0.  1.
         -6    1    1    2    0  502 -0.24974950199E+02  0.41287491510E+02  0.34761122460E+03  0.39126840987E+03  0.17300000000E+03 0. -1.
</event>
<event>
 4    1  0.6239288E+000  0.1000000E+03  0.7546771E-02  0.1280296E+00
         21   -1    0    0  503  502  0.00000000000E+00  0.00000000000E+00  0.69157761613E+02  0.69157761613E+02  0.00000000000E+00 0.  1.
         21   -1    0    0  501  503 -0.00000000000E+00 -0.00000000000E+00 -0.54288082681E+03  0.54288082681E+03  0.00000000000E+00 0. -1.
          6    1    1    2  501    0  0.13874092939E+02 -0.84150725677E+00 -0.37292549934E+03  0.41133396000E+03  0.17300000000E+03 0.  1.
         -6    1    1    2    0  502 -0.13874092939E+02  0.84150725677E+00 -0.10079756586E+03  0.20070462843E+03  0.17300000000E+03 0. -1.
</event>
<event>
 4    1  0.6239288E+000  0.1000000E+03  0.7546771E-02  0.1280296E+00
         21   -1    0    0  503  502  0.00000000000E+00  0.00000000000E+00  0.60702828817E+03  0.60702828817E+03  0.00000000000E+00 0.  1.
         21   -1    0    0  501  503 -0.00000000000E+00 -0.00000000000E+00 -0.19344307930E+03  0.19344307930E+03  0.00000000000E+00 0. -1.
          6    1    1    2  501    0  0.14885687175E+03  0.15599584593E+03 -0.29714618200E+02  0.27803782252E+03  0.17300000000E+03 0.  1.
         -6    1    1    2    0  502 -0.14885687175E+03 -0.15599584593E+03  0.44329982707E+03  0.52243354496E+03  0.17300000000E+03 0.  1.
</event>
<event>
 4    1  0.6239288E+000  0.1000000E+03  0.7546771E-02  0.1280296E+00
         21   -1    0    0  503  502  0.00000000000E+00  0.00000000000E+00  0.14134888528E+04  0.14134888528E+04  0.00000000000E+00 0.  1.
         21   -1    0    0  501  503 -0.00000000000E+00 -0.00000000000E+00 -0.39014510181E+02  0.39014510181E+02  0.00000000000E+00 0. -1.
          6    1    1    2  501    0 -0.63934818307E+02  0.49650818386E+02  0.26472569828E+03  0.32643768178E+03  0.17300000000E+03 0.  1.
         -6    1    1    2    0  502  0.63934818307E+02 -0.49650818386E+02  0.11097486443E+04  0.11260656812E+04  0.17300000000E+03 0.  1.
</event>
<event>
 4    1  0.6239288E+000  0.1000000E+03  0.7546771E-02  0.1280296E+00
         21   -1    0    0  503  502  0.00000000000E+00  0.00000000000E+00  0.13528861085E+04  0.13528861085E+04  0.00000000000E+00 0.  1.
         21   -1    0    0  501  503 -0.00000000000E+00 -0.00000000000E+00 -0.58275959813E+02  0.58275959813E+02  0.00000000000E+00 0. -1.
          6    1    1    2  501    0  0.90018097890E+02  0.96937984109E+02  0.20194022191E+03  0.29700014131E+03  0.17300000000E+03 0.  1.
         -6    1    1    2    0  502 -0.90018097890E+02 -0.96937984109E+02  0.10926699268E+04  0.11141619270E+04  0.17300000000E+03 0.  1.
</event>
<event>
 4    1  0.6239288E+000  0.1000000E+03  0.7546771E-02  0.1280296E+00
         21   -1    0    0  501  502  0.00000000000E+00  0.00000000000E+00  0.61085597786E+03  0.61085597786E+03  0.00000000000E+00 0. -1.
         21   -1    0    0  502  503 -0.00000000000E+00 -0.00000000000E+00 -0.59264359391E+02  0.59264359391E+02  0.00000000000E+00 0.  1.
          6    1    1    2  501    0  0.10706449137E+02 -0.68728596395E+02  0.34249848007E+03  0.38996468669E+03  0.17300000000E+03 0. -1.
         -6    1    1    2    0  503 -0.10706449137E+02  0.68728596395E+02  0.20909313840E+03  0.28015565056E+03  0.17300000000E+03 0.  1.
</event>
<event>
 4    1  0.6239288E+000  0.1000000E+03  0.7546771E-02  0.1280296E+00
         21   -1    0    0  503  502  0.00000000000E+00  0.00000000000E+00  0.79378857420E+02  0.79378857420E+02  0.00000000000E+00 0.  1.
         21   -1    0    0  501  503 -0.00000000000E+00 -0.00000000000E+00 -0.73722293506E+03  0.73722293506E+03  0.00000000000E+00 0. -1.
          6    1    1    2  501    0  0.10639693021E+03 -0.43274083421E+02 -0.53836226735E+03  0.57702329585E+03  0.17300000000E+03 0. -1.
         -6    1    1    2    0  502 -0.10639693021E+03  0.43274083421E+02 -0.11948181029E+03  0.23957849663E+03  0.17300000000E+03 0.  1.
</event>
<event>
 4    1  0.6239288E+000  0.1000000E+03  0.7546771E-02  0.1280296E+00
         21   -1    0    0  503  502  0.00000000000E+00  0.00000000000E+00  0.51612629814E+02  0.51612629814E+02  0.00000000000E+00 0.  1.
         21   -1    0    0  501  503 -0.00000000000E+00 -0.00000000000E+00 -0.11451763177E+04  0.11451763177E+04  0.00000000000E+00 0. -1.
          6    1    1    2  501    0  0.27608485060E+02 -0.21660712157E+02 -0.95824087209E+03  0.97436439992E+03  0.17300000000E+03 0. -1.
         -6    1    1    2    0  502 -0.27608485060E+02  0.21660712157E+02 -0.13532281581E+03  0.22242454761E+03  0.17300000000E+03 0.  1.
</event>
<event>
 4    1  0.6239288E+000  0.1000000E+03  0.7546771E-02  0.1280296E+00
         21   -1    0    0  501  502  0.00000000000E+00  0.00000000000E+00  0.22041417361E+03  0.22041417361E+03  0.00000000000E+00 0. -1.
         21   -1    0    0  502  503 -0.00000000000E+00 -0.00000000000E+00 -0.21096563056E+03  0.21096563056E+03  0.00000000000E+00 0. -1.
          6    1    1    2  501    0 -0.13513850058E+02  0.59973161704E+02  0.11785053023E+03  0.21816771471E+03  0.17300000000E+03 0. -1.
         -6    1    1    2    0  503  0.13513850058E+02 -0.59973161704E+02 -0.10840198718E+03  0.21321208946E+03  0.17300000000E+03 0. -1.
</event>
<event>
 4    1  0.6239288E+000  0.1000000E+03  0.7546771E-02  0.1280296E+00
         21   -1    0    0  501  502  0.00000000000E+00  0.00000000000E+00  0.67462394767E+03  0.67462394767E+03  0.00000000000E+00 0. -1.
         21   -1    0    0  502  503 -0.00000000000E+00 -0.00000000000E+00 -0.15842910873E+03  0.15842910873E+03  0.00000000000E+00 0.  1.
          6    1    1    2  501    0 -0.34434788733E+02  0.25749310469E+03  0.38203412112E+03  0.49332294021E+03  0.17300000000E+03 0. -1.
         -6    1    1    2    0  503  0.34434788733E+02 -0.25749310469E+03  0.13416071781E+03  0.33973011618E+03  0.17300000000E+03 0.  1.
</event>
<event>
 4    1  0.6239288E+000  0.1000000E+03  0.7546771E-02  0.1280296E+00
         21   -1    0    0  503  502  0.00000000000E+00  0.00000000000E+00  0.87622343773E+02  0.87622343773E+02  0.00000000000E+00 0. -1.
         21   -1    0    0  501  503 -0.00000000000E+00 -0.00000000000E+00 -0.10959774114E+04  0.10959774114E+04  0.00000000000E+00 0. -1.
          6    1    1    2  501    0 -0.12190486082E+03 -0.64503379854E+01 -0.93629778298E+03  0.95994007123E+03  0.17300000000E+03 0. -1.
         -6    1    1    2    0  502  0.12190486082E+03  0.64503379854E+01 -0.72057284658E+02  0.22365968395E+03  0.17300000000E+03 0. -1.
</event>
<event>
 4    1  0.6239288E+000  0.1000000E+03  0.7546771E-02  0.1280296E+00
         21   -1    0    0  503  502  0.00000000000E+00  0.00000000000E+00  0.21760626311E+03  0.21760626311E+03  0.00000000000E+00 0. -1.
         21   -1    0    0  501  503 -0.00000000000E+00 -0.00000000000E+00 -0.36484439663E+03  0.36484439663E+03  0.00000000000E+00 0. -1.
          6    1    1    2  501    0  0.30652065999E+02  0.80731238427E+01 -0.30114216626E+03  0.34874106265E+03  0.17300000000E+03 0. -1.
         -6    1    1    2    0  502 -0.30652065999E+02 -0.80731238427E+01  0.15390403274E+03  0.23370959709E+03  0.17300000000E+03 0. -1.
</event>
<event>
 4    1  0.6239288E+000  0.1000000E+03  0.7546771E-02  0.1280296E+00
         21   -1    0    0  503  502  0.00000000000E+00  0.00000000000E+00  0.15803805071E+04  0.15803805071E+04  0.00000000000E+00 0. -1.
         21   -1    0    0  501  503 -0.00000000000E+00 -0.00000000000E+00 -0.39023300657E+02  0.39023300657E+02  0.00000000000E+00 0. -1.
          6    1    1    2  501    0 -0.20312660020E+02 -0.56837165513E+02  0.22412549640E+03  0.28948973329E+03  0.17300000000E+03 0. -1.
         -6    1    1    2    0  502  0.20312660020E+02  0.56837165513E+02  0.13172317101E+04  0.13299140745E+04  0.17300000000E+03 0. -1.
</event>
<event>
 4    1  0.6239288E+000  0.1000000E+03  0.7546771E-02  0.1280296E+00
         21   -1    0    0  503  502  0.00000000000E+00  0.00000000000E+00  0.10477372310E+03  0.10477372310E+03  0.00000000000E+00 0.  1.
         21   -1    0    0  501  503 -0.00000000000E+00 -0.00000000000E+00 -0.35808017541E+03  0.35808017541E+03  0.00000000000E+00 0. -1.
          6    1    1    2  501    0 -0.45399149702E+02  0.25897975616E+02 -0.20991851711E+03  0.27699561686E+03  0.17300000000E+03 0.  1.
         -6    1    1    2    0  502  0.45399149702E+02 -0.25897975616E+02 -0.43387935201E+02  0.18585828164E+03  0.17300000000E+03 0.  1.
</event>
<event>
 4    1  0.6239288E+000  0.1000000E+03  0.7546771E-02  0.1280296E+00
         21   -1    0    0  501  502  0.00000000000E+00  0.00000000000E+00  0.14176657708E+03  0.14176657708E+03  0.00000000000E+00 0. -1.
         21   -1    0    0  502  503 -0.00000000000E+00 -0.00000000000E+00 -0.46401932759E+03  0.46401932759E+03  0.00000000000E+00 0.  1.
          6    1    1    2  501    0  0.15873537297E+03 -0.92921081246E+02 -0.10802023545E+03  0.27464270833E+03  0.17300000000E+03 0.  1.
         -6    1    1    2    0  503 -0.15873537297E+03  0.92921081246E+02 -0.21423251506E+03  0.33114319634E+03  0.17300000000E+03 0. -1.
</event>
<event>
 4    1  0.6239288E+000  0.1000000E+03  0.7546771E-02  0.1280296E+00
         21   -1    0    0  501  502  0.00000000000E+00  0.00000000000E+00  0.17226341777E+03  0.17226341777E+03  0.00000000000E+00 0. -1.
         21   -1    0    0  502  503 -0.00000000000E+00 -0.00000000000E+00 -0.22240132728E+03  0.22240132728E+03  0.00000000000E+00 0.  1.
          6    1    1    2  501    0  0.42081104427E+02 -0.79755973372E+02 -0.41034286127E+02  0.19936059610E+03  0.17300000000E+03 0.  1.
         -6    1    1    2    0  503 -0.42081104427E+02  0.79755973372E+02 -0.91036233895E+01  0.19530414895E+03  0.17300000000E+03 0. -1.
</event>
<event>
 4    1  0.6239288E+000  0.1000000E+03  0.7546771E-02  0.1280296E+00
         21   -1    0    0  501  502  0.00000000000E+00  0.00000000000E+00  0.67759841676E+03  0.67759841676E+03  0.00000000000E+00 0. -1.
         21   -1    0    0  502  503 -0.00000000000E+00 -0.00000000000E+00 -0.62497912840E+02  0.62497912840E+02  0.00000000000E+00 0.  1.
          6    1    1    2  501    0  0.15809686042E+02 -0.21467282494E+02  0.50212818202E+03  0.53176357676E+03  0.17300000000E+03 0. -1.
         -6    1    1    2    0  503 -0.15809686042E+02  0.21467282494E+02  0.11297232190E+03  0.20833275284E+03  0.17300000000E+03 0.  1.
</event>
<event>
 4    1  0.6239288E+000  0.1000000E+03  0.7546771E-02  0.1280296E+00
         21   -1    0    0  503  502  0.00000000000E+00  0.00000000000E+00  0.23122879548E+03  0.23122879548E+03  0.00000000000E+00 0.  1.
         21   -1    0    0  501  503 -0.00000000000E+00 -0.00000000000E+00 -0.79240207805E+03  0.79240207805E+03  0.00000000000E+00 0.  1.
          6    1    1    2  501    0 -0.22633296261E+03  0.19432949057E+03 -0.58379938566E+03  0.67804224320E+03  0.17300000000E+03 0.  1.
         -6    1    1    2    0  502  0.22633296261E+03 -0.19432949057E+03  0.22626103095E+02  0.34558863033E+03  0.17300000000E+03 0.  1.
</event>
<event>
 4    1  0.6239288E+000  0.1000000E+03  0.7546771E-02  0.1280296E+00
         21   -1    0    0  503  502  0.00000000000E+00  0.00000000000E+00  0.85377696632E+03  0.85377696632E+03  0.00000000000E+00 0. -1.
         21   -1    0    0  501  503 -0.00000000000E+00 -0.00000000000E+00 -0.56420773933E+02  0.56420773933E+02  0.00000000000E+00 0. -1.
          6    1    1    2  501    0 -0.93453402141E+02 -0.56263306815E+02  0.23353907464E+03  0.31043291940E+03  0.17300000000E+03 0. -1.
         -6    1    1    2    0  502  0.93453402141E+02  0.56263306815E+02  0.56381711775E+03  0.59976482085E+03  0.17300000000E+03 0. -1.
</event>
<event>
 4    1  0.6239288E+000  0.1000000E+03  0.7546771E-02  0.1280296E+00
         21   -1    0    0  501  502  0.00000000000E+00  0.00000000000E+00  0.89854579108E+03  0.89854579108E+03  0.00000000000E+00 0.  1.
         21   -1    0    0  502  503 -0.00000000000E+00 -0.00000000000E+00 -0.81104608705E+02  0.81104608705E+02  0.00000000000E+00 0.  1.
          6    1    1    2  501    0 -0.59806446231E+02 -0.13065674402E+03  0.67967297721E+03  0.71591364823E+03  0.17300000000E+03 0.  1.
         -6    1    1    2    0  503  0.59806446231E+02  0.13065674402E+03  0.13776820516E+03  0.26373675156E+03  0.17300000000E+03 0.  1.
</event>
<event>
 4    1  0.6239288E+000  0.1000000E+03  0.7546771E-02  0.1280296E+00
         21   -1    0    0  501  502  0.00000000000E+00  0.00000000000E+00  0.14391173747E+04  0.14391173747E+04  0.00000000000E+00 0.  1.
         21   -1    0    0  502  503 -0.00000000000E+00 -0.00000000000E+00 -0.74806706000E+02  0.74806706000E+02  0.00000000000E+00 0.  1.
          6    1    1    2  501    0 -0.22890263155E+03  0.10778872121E+02  0.10484890349E+04  0.10870928456E+04  0.17300000000E+03 0.  1.
         -6    1    1    2    0  503  0.22890263155E+03 -0.10778872121E+02  0.31582163380E+03  0.42683123502E+03  0.17300000000E+03 0.  1.
</event>
<event>
 4    1  0.6239288E+000  0.1000000E+03  0.7546771E-02  0.1280296E+00
         21   -1    0    0  501  502  0.00000000000E+00  0.00000000000E+00  0.56144333878E+02  0.56144333878E+02  0.00000000000E+00 0.  1.
         21   -1    0    0  502  503 -0.00000000000E+00 -0.00000000000E+00 -0.11026208379E+04  0.11026208379E+04  0.00000000000E+00 0. -1.
          6    1    1    2  501    0  0.15581316327E+03 -0.55166934087E+02 -0.68212789829E+03  0.72287523273E+03  0.17300000000E+03 0.  1.
         -6    1    1    2    0  503 -0.15581316327E+03  0.55166934087E+02 -0.36434860571E+03  0.43588993903E+03  0.17300000000E+03 0. -1.
</event>
<event>
 4    1  0.6239288E+000  0.1000000E+03  0.7546771E-02  0.1280296E+00
         21   -1    0    0  501  502  0.00000000000E+00  0.00000000000E+00  0.21383417387E+03  0.21383417387E+03  0.00000000000E+00 0.  1.
         21   -1    0    0  502  503 -0.00000000000E+00 -0.00000000000E+00 -0.92837764395E+03  0.92837764395E+03  0.00000000000E+00 0. -1.
          6    1    1    2  501    0  0.15899578453E+02 -0.21066990497E+03  0.94010504912E+02  0.28879331795E+03  0.17300000000E+03 0.  1.
         -6    1    1    2    0  503 -0.15899578453E+02  0.21066990497E+03 -0.80855397499E+03  0.85341849987E+03  0.17300000000E+03 0. -1.
</event>
<event>
 4    1  0.6239288E+000  0.1000000E+03  0.7546771E-02  0.1280296E+00
         21   -1    0    0  503  502  0.00000000000E+00  0.00000000000E+00  0.17103012622E+03  0.17103012622E+03  0.00000000000E+00 0. -1.
         21   -1    0    0  501  503 -0.00000000000E+00 -0.00000000000E+00 -0.10235834657E+04  0.10235834657E+04  0.00000000000E+00 0. -1.
          6    1    1    2  501    0 -0.13172437080E+02 -0.30997272460E+03 -0.74189066887E+03  0.82254931017E+03  0.17300000000E+03 0. -1.
         -6    1    1    2    0  502  0.13172437080E+02  0.30997272460E+03 -0.11066267061E+03  0.37206428176E+03  0.17300000000E+03 0. -1.
</event>
<event>
 4    1  0.6239288E+000  0.1000000E+03  0.7546771E-02  0.1280296E+00
         21   -1    0    0  503  502  0.00000000000E+00  0.00000000000E+00  0.18072693192E+03  0.18072693192E+03  0.00000000000E+00 0.  1.
         21   -1    0    0  501  503 -0.00000000000E+00 -0.00000000000E+00 -0.25087202941E+03  0.25087202941E+03  0.00000000000E+00 0. -1.
          6    1    1    2  501    0  0.35140098656E+02  0.92570393361E+02 -0.11095619846E+03  0.22813237875E+03  0.17300000000E+03 0. -1.
         -6    1    1    2    0  502 -0.35140098656E+02 -0.92570393361E+02  0.40811100968E+02  0.20346658257E+03  0.17300000000E+03 0.  1.
</event>
<event>
 4    1  0.6239288E+000  0.1000000E+03  0.7546771E-02  0.1280296E+00
         21   -1    0    0  503  502  0.00000000000E+00  0.00000000000E+00  0.32769556331E+02  0.32769556331E+02  0.00000000000E+00 0.  1.
         21   -1    0    0  501  503 -0.00000000000E+00 -0.00000000000E+00 -0.11653589128E+04  0.11653589128E+04  0.00000000000E+00 0.  1.
          6    1    1    2  501    0 -0.50147112664E+02  0.26736312464E+02 -0.34888411086E+03  0.39354629476E+03  0.17300000000E+03 0.  1.
         -6    1    1    2    0  502  0.50147112664E+02 -0.26736312464E+02 -0.78370524564E+03  0.80458217440E+03  0.17300000000E+03 0.  1.
</event>
<event>
 4    1  0.6239288E+000  0.1000000E+03  0.7546771E-02  0.1280296E+00
         21   -1    0    0  503  502  0.00000000000E+00  0.00000000000E+00  0.14191690553E+03  0.14191690553E+03  0.00000000000E+00 0.  1.
         21   -1    0    0  501  503 -0.00000000000E+00 -0.00000000000E+00 -0.12889763521E+04  0.12889763521E+04  0.00000000000E+00 0.  1.
          6    1    1    2  501    0  0.22040627203E+02  0.84910659353E+01 -0.12266423694E+04  0.12390070177E+04  0.17300000000E+03 0.  1.
         -6    1    1    2    0  502 -0.22040627203E+02 -0.84910659353E+01  0.79582922878E+02  0.19188623990E+03  0.17300000000E+03 0.  1.
</event>
<event>
 4    1  0.6239288E+000  0.1000000E+03  0.7546771E-02  0.1280296E+00
         21   -1    0    0  503  502  0.00000000000E+00  0.00000000000E+00  0.53707266266E+03  0.53707266266E+03  0.00000000000E+00 0. -1.
         21   -1    0    0  501  503 -0.00000000000E+00 -0.00000000000E+00 -0.14269681476E+03  0.14269681476E+03  0.00000000000E+00 0.  1.
          6    1    1    2  501    0  0.18930594898E+02 -0.20992687333E+03  0.25583632560E+03  0.37391026339E+03  0.17300000000E+03 0.  1.
         -6    1    1    2    0  502 -0.18930594898E+02  0.20992687333E+03  0.13853952230E+03  0.30585921403E+03  0.17300000000E+03 0. -1.
</event>
<event>
 4    1  0.6239288E+000  0.1000000E+03  0.7546771E-02  0.1280296E+00
         21   -1    0    0  503  502  0.00000000000E+00  0.00000000000E+00  0.39816519316E+03  0.39816519316E+03  0.00000000000E+00 0. -1.
         21   -1    0    0  501  503 -0.00000000000E+00 -0.00000000000E+00 -0.92411596980E+02  0.92411596980E+02  0.00000000000E+00 0.  1.
          6    1    1    2  501    0 -0.13411482464E+02 -0.79464850524E+02  0.12822824939E+03  0.22992610611E+03  0.17300000000E+03 0.  1.
         -6    1    1    2    0  502  0.13411482464E+02  0.79464850524E+02  0.17752534679E+03  0.26065068403E+03  0.17300000000E+03 0. -1.
</event>
<event>
 4    1  0.6239288E+000  0.1000000E+03  0.7546771E-02  0.1280296E+00
         21   -1    0    0  503  502  0.00000000000E+00  0.00000000000E+00  0.10796393610E+03  0.10796393610E+03  0.00000000000E+00 0. -1.
         21   -1    0    0  501  503 -0.00000000000E+00 -0.00000000000E+00 -0.74615211970E+03  0.74615211970E+03  0.00000000000E+00 0.  1.
          6    1    1    2  501    0  0.42412452190E+02  0.63868199984E+02 -0.63739147493E+03  0.66488709973E+03  0.17300000000E+03 0.  1.
         -6    1    1    2    0  502 -0.42412452190E+02 -0.63868199984E+02 -0.79670866702E+00  0.18922895607E+03  0.17300000000E+03 0. -1.
</event>
<event>
 4    1  0.6239288E+000  0.1000000E+03  0.7546771E-02  0.1280296E+00
         21   -1    0    0  503  502  0.00000000000E+00  0.00000000000E+00  0.10461156420E+03  0.10461156420E+03  0.00000000000E+00 0.  1.
         21   -1    0    0  501  503 -0.00000000000E+00 -0.00000000000E+00 -0.32872852027E+03  0.32872852027E+03  0.00000000000E+00 0.  1.
          6    1    1    2  501    0  0.53865414952E+02  0.12243959497E+02 -0.15590694870E+03  0.23934780994E+03  0.17300000000E+03 0.  1.
         -6    1    1    2    0  502 -0.53865414952E+02 -0.12243959497E+02 -0.68210007364E+02  0.19399227453E+03  0.17300000000E+03 0.  1.
</event>
<event>
 4    1  0.6239288E+000  0.1000000E+03  0.7546771E-02  0.1280296E+00
         21   -1    0    0  501  502  0.00000000000E+00  0.00000000000E+00  0.48135989887E+02  0.48135989887E+02  0.00000000000E+00 0.  1.
         21   -1    0    0  502  503 -0.00000000000E+00 -0.00000000000E+00 -0.26766222176E+04  0.26766222176E+04  0.00000000000E+00 0. -1.
          6    1    1    2  501    0  0.30372801701E+02 -0.36620303325E+02 -0.13427885834E+03  0.22410570161E+03  0.17300000000E+03 0. -1.
         -6    1    1    2    0  503 -0.30372801701E+02  0.36620303325E+02 -0.24942073693E+04  0.25006525058E+04  0.17300000000E+03 0.  1.
</event>
<event>
 4    1  0.6239288E+000  0.1000000E+03  0.7546771E-02  0.1280296E+00
         21   -1    0    0  501  502  0.00000000000E+00  0.00000000000E+00  0.19864923614E+04  0.19864923614E+04  0.00000000000E+00 0.  1.
         21   -1    0    0  502  503 -0.00000000000E+00 -0.00000000000E+00 -0.61901816576E+02  0.61901816576E+02  0.00000000000E+00 0. -1.
          6    1    1    2  501    0  0.90917395915E+02  0.20156842349E+03  0.15759410585E+04  0.16007545165E+04  0.17300000000E+03 0. -1.
         -6    1    1    2    0  503 -0.90917395915E+02 -0.20156842349E+03  0.34864948640E+03  0.44763966155E+03  0.17300000000E+03 0.  1.
</event>
<event>
 4    1  0.6239288E+000  0.1000000E+03  0.7546771E-02  0.1280296E+00
         21   -1    0    0  501  502  0.00000000000E+00  0.00000000000E+00  0.13320631243E+03  0.13320631243E+03  0.00000000000E+00 0.  1.
         21   -1    0    0  502  503 -0.00000000000E+00 -0.00000000000E+00 -0.41984171639E+03  0.41984171639E+03  0.00000000000E+00 0. -1.
          6    1    1    2  501    0 -0.67488699714E+02  0.47556319456E+02  0.18622493807E+02  0.19259316028E+03  0.17300000000E+03 0.  1.
         -6    1    1    2    0  503  0.67488699714E+02 -0.47556319456E+02 -0.30525789777E+03  0.36045486855E+03  0.17300000000E+03 0. -1.
</event>
<event>
 4    1  0.6239288E+000  0.1000000E+03  0.7546771E-02  0.1280296E+00
         21   -1    0    0  501  502  0.00000000000E+00  0.00000000000E+00  0.23532561248E+03  0.23532561248E+03  0.00000000000E+00 0.  1.
         21   -1    0    0  502  503 -0.00000000000E+00 -0.00000000000E+00 -0.17301689604E+03  0.17301689604E+03  0.00000000000E+00 0. -1.
          6    1    1    2  501    0 -0.65368260478E+02  0.80299320641E+02  0.39331993050E+02  0.20541907421E+03  0.17300000000E+03 0.  1.
         -6    1    1    2    0  503  0.65368260478E+02 -0.80299320641E+02  0.22976723381E+02  0.20292343431E+03  0.17300000000E+03 0. -1.
</event>
<event>
 4    1  0.6239288E+000  0.1000000E+03  0.7546771E-02  0.1280296E+00
         21   -1    0    0  501  502  0.00000000000E+00  0.00000000000E+00  0.12212037436E+03  0.12212037436E+03  0.00000000000E+00 0.  1.
         21   -1    0    0  502  503 -0.00000000000E+00 -0.00000000000E+00 -0.73817313604E+03  0.73817313604E+03  0.00000000000E+00 0. -1.
          6    1    1    2  501    0 -0.36881163614E+02 -0.10589559388E+02  0.39211839491E+02  0.18149084647E+03  0.17300000000E+03 0.  1.
         -6    1    1    2    0  503  0.36881163614E+02  0.10589559388E+02 -0.65526460118E+03  0.67880266393E+03  0.17300000000E+03 0. -1.
</event>
<event>
 4    1  0.6239288E+000  0.1000000E+03  0.7546771E-02  0.1280296E+00
         21   -1    0    0  503  502  0.00000000000E+00  0.00000000000E+00  0.63170820115E+03  0.63170820115E+03  0.00000000000E+00 0.  1.
         21   -1    0    0  501  503 -0.00000000000E+00 -0.00000000000E+00 -0.13834841829E+03  0.13834841829E+03  0.00000000000E+00 0. -1.
          6    1    1    2  501    0  0.23420247641E+02 -0.97113797753E+01 -0.63785540036E+02  0.18611935422E+03  0.17300000000E+03 0.  1.
         -6    1    1    2    0  502 -0.23420247641E+02  0.97113797753E+01  0.55714532289E+03  0.58393726522E+03  0.17300000000E+03 0. -1.
</event>
<event>
 4    1  0.6239288E+000  0.1000000E+03  0.7546771E-02  0.1280296E+00
         21   -1    0    0  501  502  0.00000000000E+00  0.00000000000E+00  0.15066768240E+03  0.15066768240E+03  0.00000000000E+00 0. -1.
         21   -1    0    0  502  503 -0.00000000000E+00 -0.00000000000E+00 -0.33831554529E+03  0.33831554529E+03  0.00000000000E+00 0. -1.
          6    1    1    2  501    0 -0.18586618115E+02  0.11303906046E+03  0.25547448718E+01  0.20750618854E+03  0.17300000000E+03 0. -1.
         -6    1    1    2    0  503  0.18586618115E+02 -0.11303906046E+03 -0.19020260776E+03  0.28147703914E+03  0.17300000000E+03 0. -1.
</event>
<event>
 4    1  0.6239288E+000  0.1000000E+03  0.7546771E-02  0.1280296E+00
         21   -1    0    0  501  502  0.00000000000E+00  0.00000000000E+00  0.56996117276E+03  0.56996117276E+03  0.00000000000E+00 0. -1.
         21   -1    0    0  502  503 -0.00000000000E+00 -0.00000000000E+00 -0.12895288664E+03  0.12895288664E+03  0.00000000000E+00 0. -1.
          6    1    1    2  501    0  0.89229609007E+02 -0.15970782641E+03  0.35005185508E+03  0.43120043389E+03  0.17300000000E+03 0. -1.
         -6    1    1    2    0  503 -0.89229609007E+02  0.15970782641E+03  0.90956431034E+02  0.26771362552E+03  0.17300000000E+03 0. -1.
</event>
<event>
 4    1  0.6239288E+000  0.1000000E+03  0.7546771E-02  0.1280296E+00
         21   -1    0    0  501  502  0.00000000000E+00  0.00000000000E+00  0.17663161243E+04  0.17663161243E+04  0.00000000000E+00 0. -1.
         21   -1    0    0  502  503 -0.00000000000E+00 -0.00000000000E+00 -0.11717556511E+03  0.11717556511E+03  0.00000000000E+00 0. -1.
          6    1    1    2  501    0  0.92757960266E+02 -0.12672032930E+03  0.16326274992E+04  0.16492615415E+04  0.17300000000E+03 0. -1.
         -6    1    1    2    0  503 -0.92757960266E+02  0.12672032930E+03  0.16513059982E+02  0.23423014793E+03  0.17300000000E+03 0. -1.
</event>
<event>
 4    1  0.6239288E+000  0.1000000E+03  0.7546771E-02  0.1280296E+00
         21   -1    0    0  501  502  0.00000000000E+00  0.00000000000E+00  0.26838235133E+03  0.26838235133E+03  0.00000000000E+00 0. -1.
         21   -1    0    0  502  503 -0.00000000000E+00 -0.00000000000E+00 -0.11473013061E+03  0.11473013061E+03  0.00000000000E+00 0. -1.
          6    1    1    2  501    0  0.15722472969E+02  0.93853152239E+00  0.10388620055E+03  0.20240904046E+03  0.17300000000E+03 0. -1.
         -6    1    1    2    0  503 -0.15722472969E+02 -0.93853152239E+00  0.49766020173E+02  0.18070344148E+03  0.17300000000E+03 0. -1.
</event>
<event>
 4    1  0.6239288E+000  0.1000000E+03  0.7546771E-02  0.1280296E+00
         21   -1    0    0  503  502  0.00000000000E+00  0.00000000000E+00  0.43217747370E+02  0.43217747370E+02  0.00000000000E+00 0.  1.
         21   -1    0    0  501  503 -0.00000000000E+00 -0.00000000000E+00 -0.15709016662E+04  0.15709016662E+04  0.00000000000E+00 0.  1.
          6    1    1    2  501    0  0.17664209179E+03 -0.72598897780E+02 -0.88335593427E+03  0.92017375270E+03  0.17300000000E+03 0.  1.
         -6    1    1    2    0  502 -0.17664209179E+03  0.72598897780E+02 -0.64432798454E+03  0.69394566085E+03  0.17300000000E+03 0.  1.
</event>
<event>
 4    1  0.6239288E+000  0.1000000E+03  0.7546771E-02  0.1280296E+00
         21   -1    0    0  501  502  0.00000000000E+00  0.00000000000E+00  0.57592135689E+03  0.57592135689E+03  0.00000000000E+00 0.  1.
         21   -1    0    0  502  503 -0.00000000000E+00 -0.00000000000E+00 -0.10772861107E+03  0.10772861107E+03  0.00000000000E+00 0.  1.
          6    1    1    2  501    0  0.14845847223E+03  0.88006418187E+01  0.37130708553E+03  0.43579275010E+03  0.17300000000E+03 0.  1.
         -6    1    1    2    0  503 -0.14845847223E+03 -0.88006418187E+01  0.96885660299E+02  0.24785721786E+03  0.17300000000E+03 0.  1.
</event>
<event>
 4    1  0.6239288E+000  0.1000000E+03  0.7546771E-02  0.1280296E+00
         21   -1    0    0  503  502  0.00000000000E+00  0.00000000000E+00  0.70845855174E+02  0.70845855174E+02  0.00000000000E+00 0.  1.
         21   -1    0    0  501  503 -0.00000000000E+00 -0.00000000000E+00 -0.12450298054E+04  0.12450298054E+04  0.00000000000E+00 0.  1.
          6    1    1    2  501    0  0.10092227163E+03 -0.68749437593E+02 -0.10484143166E+04  0.10695856063E+04  0.17300000000E+03 0.  1.
         -6    1    1    2    0  502 -0.10092227163E+03  0.68749437593E+02 -0.12576963370E+03  0.24629005428E+03  0.17300000000E+03 0.  1.
</event>
<event>
 4    1  0.6239288E+000  0.1000000E+03  0.7546771E-02  0.1280296E+00
         21   -1    0    0  503  502  0.00000000000E+00  0.00000000000E+00  0.10980434490E+04  0.10980434490E+04  0.00000000000E+00 0.  1.
         21   -1    0    0  501  503 -0.00000000000E+00 -0.00000000000E+00 -0.32054897685E+02  0.32054897685E+02  0.00000000000E+00 0.  1.
          6    1    1    2  501    0  0.56361433333E+02  0.45638809149E+02  0.52387967323E+03  0.55645163679E+03  0.17300000000E+03 0.  1.
         -6    1    1    2    0  502 -0.56361433333E+02 -0.45638809149E+02  0.54210887805E+03  0.57364670986E+03  0.17300000000E+03 0.  1.
</event>
<event>
 4    1  0.6239288E+000  0.1000000E+03  0.7546771E-02  0.1280296E+00
         21   -1    0    0  503  502  0.00000000000E+00  0.00000000000E+00  0.11198116204E+03  0.11198116204E+03  0.00000000000E+00 0.  1.
         21   -1    0    0  501  503 -0.00000000000E+00 -0.00000000000E+00 -0.47652160389E+03  0.47652160389E+03  0.00000000000E+00 0.  1.
          6    1    1    2  501    0  0.13122152547E+03  0.12810654129E+02 -0.83197250123E+02  0.23288191006E+03  0.17300000000E+03 0.  1.
         -6    1    1    2    0  502 -0.13122152547E+03 -0.12810654129E+02 -0.28134319173E+03  0.35562085588E+03  0.17300000000E+03 0.  1.
</event>
<event>
 4    1  0.6239288E+000  0.1000000E+03  0.7546771E-02  0.1280296E+00
         21   -1    0    0  503  502  0.00000000000E+00  0.00000000000E+00  0.50025153447E+03  0.50025153447E+03  0.00000000000E+00 0.  1.
         21   -1    0    0  501  503 -0.00000000000E+00 -0.00000000000E+00 -0.78274262702E+02  0.78274262702E+02  0.00000000000E+00 0.  1.
          6    1    1    2  501    0  0.40219876911E+02  0.85706110713E+02  0.18720818165E+03  0.27191741244E+03  0.17300000000E+03 0.  1.
         -6    1    1    2    0  502 -0.40219876911E+02 -0.85706110713E+02  0.23476909012E+03  0.30660838473E+03  0.17300000000E+03 0.  1.
</event>
<event>
 4    1  0.6239288E+000  0.1000000E+03  0.7546771E-02  0.1280296E+00
         21   -1    0    0  503  502  0.00000000000E+00  0.00000000000E+00  0.17963941456E+03  0.17963941456E+03  0.00000000000E+00 0.  1.
         21   -1    0    0  501  503 -0.00000000000E+00 -0.00000000000E+00 -0.25480051744E+03  0.25480051744E+03  0.00000000000E+00 0.  1.
          6    1    1    2  501    0 -0.29870366726E+02  0.88686565155E+02 -0.12304573668E+03  0.23200603217E+03  0.17300000000E+03 0.  1.
         -6    1    1    2    0  502  0.29870366726E+02 -0.88686565155E+02  0.47884633800E+02  0.20243389983E+03  0.17300000000E+03 0.  1.
</event>
<event>
 4    1  0.6239288E+000  0.1000000E+03  0.7546771E-02  0.1280296E+00
         21   -1    0    0  503  502  0.00000000000E+00  0.00000000000E+00  0.32001631771E+03  0.32001631771E+03  0.00000000000E+00 0.  1.
         21   -1    0    0  501  503 -0.00000000000E+00 -0.00000000000E+00 -0.12339858266E+03  0.12339858266E+03  0.00000000000E+00 0.  1.
          6    1    1    2  501    0  0.42338945337E+02  0.31736921116E+02  0.65736051013E+01  0.18103046909E+03  0.17300000000E+03 0.  1.
         -6    1    1    2    0  502 -0.42338945337E+02 -0.31736921116E+02  0.19004412995E+03  0.26238443129E+03  0.17300000000E+03 0.  1.
</event>
<event>
 4    1  0.6239288E+000  0.1000000E+03  0.7546771E-02  0.1280296E+00
         21   -1    0    0  503  502  0.00000000000E+00  0.00000000000E+00  0.25294734311E+03  0.25294734311E+03  0.00000000000E+00 0.  1.
         21   -1    0    0  501  503 -0.00000000000E+00 -0.00000000000E+00 -0.22773145751E+03  0.22773145751E+03  0.00000000000E+00 0.  1.
          6    1    1    2  501    0 -0.13567690386E+03  0.36738472579E+02 -0.76492994769E+02  0.23566526231E+03  0.17300000000E+03 0.  1.
         -6    1    1    2    0  502  0.13567690386E+03 -0.36738472579E+02  0.10170888037E+03  0.24501353831E+03  0.17300000000E+03 0.  1.
</event>
<event>
 4    1  0.6239288E+000  0.1000000E+03  0.7546771E-02  0.1280296E+00
         21   -1    0    0  501  502  0.00000000000E+00  0.00000000000E+00  0.16900478465E+04  0.16900478465E+04  0.00000000000E+00 0. -1.
         21   -1    0    0  502  503 -0.00000000000E+00 -0.00000000000E+00 -0.21728424753E+02  0.21728424753E+02  0.00000000000E+00 0. -1.
          6    1    1    2  501    0 -0.27585505816E+01 -0.49314374577E+02  0.11288566792E+04  0.11431036345E+04  0.17300000000E+03 0. -1.
         -6    1    1    2    0  503  0.27585505816E+01  0.49314374577E+02  0.53946274256E+03  0.56867263672E+03  0.17300000000E+03 0. -1.
</event>
<event>
 4    1  0.6239288E+000  0.1000000E+03  0.7546771E-02  0.1280296E+00
         21   -1    0    0  503  502  0.00000000000E+00  0.00000000000E+00  0.68648168732E+02  0.68648168732E+02  0.00000000000E+00 0.  1.
         21   -1    0    0  501  503 -0.00000000000E+00 -0.00000000000E+00 -0.91312245554E+03  0.91312245554E+03  0.00000000000E+00 0.  1.
          6    1    1    2  501    0  0.14664977733E+03  0.10710047467E+02 -0.62912401766E+03  0.66883995986E+03  0.17300000000E+03 0. -1.
         -6    1    1    2    0  502 -0.14664977733E+03 -0.10710047467E+02 -0.21535026915E+03  0.31293066441E+03  0.17300000000E+03 0. -1.
</event>
<event>
 4    1  0.6239288E+000  0.1000000E+03  0.7546771E-02  0.1280296E+00
         21   -1    0    0  501  502  0.00000000000E+00  0.00000000000E+00  0.16258817229E+03  0.16258817229E+03  0.00000000000E+00 0.  1.
         21   -1    0    0  502  503 -0.00000000000E+00 -0.00000000000E+00 -0.26538271489E+03  0.26538271489E+03  0.00000000000E+00 0. -1.
          6    1    1    2  501    0 -0.76230029389E+02  0.75432322460E+02 -0.94096478652E+02  0.22424138768E+03  0.17300000000E+03 0.  1.
         -6    1    1    2    0  503  0.76230029389E+02 -0.75432322460E+02 -0.86980639478E+01  0.20372949951E+03  0.17300000000E+03 0. -1.
</event>
<event>
 4    1  0.6239288E+000  0.1000000E+03  0.7546771E-02  0.1280296E+00
         21   -1    0    0  501  502  0.00000000000E+00  0.00000000000E+00  0.39875850123E+03  0.39875850123E+03  0.00000000000E+00 0.  1.
         21   -1    0    0  502  503 -0.00000000000E+00 -0.00000000000E+00 -0.25528230585E+03  0.25528230585E+03  0.00000000000E+00 0. -1.
          6    1    1    2  501    0  0.16176639257E+03  0.40860031352E+02  0.28680784739E+03  0.37420001236E+03  0.17300000000E+03 0.  1.
         -6    1    1    2    0  503 -0.16176639257E+03 -0.40860031352E+02 -0.14333165201E+03  0.27984079473E+03  0.17300000000E+03 0. -1.
</event>
<event>
 4    1  0.6239288E+000  0.1000000E+03  0.7546771E-02  0.1280296E+00
         21   -1    0    0  501  502  0.00000000000E+00  0.00000000000E+00  0.52550041435E+02  0.52550041435E+02  0.00000000000E+00 0.  1.
         21   -1    0    0  502  503 -0.00000000000E+00 -0.00000000000E+00 -0.90701527684E+03  0.90701527684E+03  0.00000000000E+00 0. -1.
          6    1    1    2  501    0 -0.27248384614E+01 -0.10466628098E+03 -0.24638335892E+03  0.31874161114E+03  0.17300000000E+03 0.  1.
         -6    1    1    2    0  503  0.27248384614E+01  0.10466628098E+03 -0.60808187648E+03  0.64082370713E+03  0.17300000000E+03 0. -1.
</event>
<event>
 4    1  0.6239288E+000  0.1000000E+03  0.7546771E-02  0.1280296E+00
         21   -1    0    0  501  502  0.00000000000E+00  0.00000000000E+00  0.11780213945E+03  0.11780213945E+03  0.00000000000E+00 0. -1.
         21   -1    0    0  502  503 -0.00000000000E+00 -0.00000000000E+00 -0.59414696459E+03  0.59414696459E+03  0.00000000000E+00 0. -1.
          6    1    1    2  501    0  0.55771767295E+02 -0.99442675384E+02 -0.16818611465E+02  0.20787304156E+03  0.17300000000E+03 0. -1.
         -6    1    1    2    0  503 -0.55771767295E+02  0.99442675384E+02 -0.45952621368E+03  0.50407606249E+03  0.17300000000E+03 0. -1.
</event>
<event>
 4    1  0.6239288E+000  0.1000000E+03  0.7546771E-02  0.1280296E+00
         21   -1    0    0  501  502  0.00000000000E+00  0.00000000000E+00  0.26215871219E+02  0.26215871219E+02  0.00000000000E+00 0. -1.
         21   -1    0    0  502  503 -0.00000000000E+00 -0.00000000000E+00 -0.16607188440E+04  0.16607188440E+04  0.00000000000E+00 0. -1.
          6    1    1    2  501    0  0.29258822892E+02  0.19217420981E+02 -0.36742236902E+03  0.40761941225E+03  0.17300000000E+03 0. -1.
         -6    1    1    2    0  503 -0.29258822892E+02 -0.19217420981E+02 -0.12670806038E+04  0.12793153030E+04  0.17300000000E+03 0. -1.
</event>
<event>
 4    1  0.6239288E+000  0.1000000E+03  0.7546771E-02  0.1280296E+00
         21   -1    0    0  503  502  0.00000000000E+00  0.00000000000E+00  0.21332726855E+03  0.21332726855E+03  0.00000000000E+00 0. -1.
         21   -1    0    0  501  503 -0.00000000000E+00 -0.00000000000E+00 -0.27827003508E+03  0.27827003508E+03  0.00000000000E+00 0.  1.
          6    1    1    2  501    0  0.77551559235E+02 -0.27087967457E+02 -0.18442046240E+03  0.26587197910E+03  0.17300000000E+03 0. -1.
         -6    1    1    2    0  502 -0.77551559235E+02  0.27087967457E+02  0.11947769587E+03  0.22572532452E+03  0.17300000000E+03 0.  1.
</event>
<event>
 4    1  0.6239288E+000  0.1000000E+03  0.7546771E-02  0.1280296E+00
         21   -1    0    0  501  502  0.00000000000E+00  0.00000000000E+00  0.38061575825E+03  0.38061575825E+03  0.00000000000E+00 0. -1.
         21   -1    0    0  502  503 -0.00000000000E+00 -0.00000000000E+00 -0.23145591213E+03  0.23145591213E+03  0.00000000000E+00 0. -1.
          6    1    1    2  501    0  0.22078910724E+03  0.84531476934E+02  0.12374192276E+03  0.31801645227E+03  0.17300000000E+03 0. -1.
         -6    1    1    2    0  503 -0.22078910724E+03 -0.84531476934E+02  0.25417923357E+02  0.29405521811E+03  0.17300000000E+03 0. -1.
</event>
<event>
 4    1  0.6239288E+000  0.1000000E+03  0.7546771E-02  0.1280296E+00
         21   -1    0    0  501  502  0.00000000000E+00  0.00000000000E+00  0.47435008835E+02  0.47435008835E+02  0.00000000000E+00 0. -1.
         21   -1    0    0  502  503 -0.00000000000E+00 -0.00000000000E+00 -0.10491852546E+04  0.10491852546E+04  0.00000000000E+00 0. -1.
          6    1    1    2  501    0  0.32650701044E+02 -0.13522822527E+03 -0.55507950035E+03  0.59782521936E+03  0.17300000000E+03 0. -1.
         -6    1    1    2    0  503 -0.32650701044E+02  0.13522822527E+03 -0.44667074538E+03  0.49879504405E+03  0.17300000000E+03 0. -1.
</event>
<event>
 4    1  0.6239288E+000  0.1000000E+03  0.7546771E-02  0.1280296E+00
         21   -1    0    0  501  502  0.00000000000E+00  0.00000000000E+00  0.76728202056E+03  0.76728202056E+03  0.00000000000E+00 0. -1.
         21   -1    0    0  502  503 -0.00000000000E+00 -0.00000000000E+00 -0.30879458460E+03  0.30879458460E+03  0.00000000000E+00 0. -1.
          6    1    1    2  501    0  0.40747900631E+02  0.71888281990E+02  0.72378892663E+03  0.74875077750E+03  0.17300000000E+03 0. -1.
         -6    1    1    2    0  503 -0.40747900631E+02 -0.71888281990E+02 -0.26530149067E+03  0.32732582765E+03  0.17300000000E+03 0. -1.
</event>
<event>
 4    1  0.6239288E+000  0.1000000E+03  0.7546771E-02  0.1280296E+00
         21   -1    0    0  501  502  0.00000000000E+00  0.00000000000E+00  0.11901038768E+04  0.11901038768E+04  0.00000000000E+00 0. -1.
         21   -1    0    0  502  503 -0.00000000000E+00 -0.00000000000E+00 -0.93632667955E+02  0.93632667955E+02  0.00000000000E+00 0.  1.
          6    1    1    2  501    0  0.77000504413E+02  0.19662473374E+03  0.91766448468E+03  0.95740663777E+03  0.17300000000E+03 0.  1.
         -6    1    1    2    0  503 -0.77000504413E+02 -0.19662473374E+03  0.17880672420E+03  0.32632990702E+03  0.17300000000E+03 0. -1.
</event>
<event>
 4    1  0.6239288E+000  0.1000000E+03  0.7546771E-02  0.1280296E+00
         21   -1    0    0  501  502  0.00000000000E+00  0.00000000000E+00  0.87717210887E+02  0.87717210887E+02  0.00000000000E+00 0. -1.
         21   -1    0    0  502  503 -0.00000000000E+00 -0.00000000000E+00 -0.81784447865E+03  0.81784447865E+03  0.00000000000E+00 0.  1.
          6    1    1    2  501    0  0.78344968700E+02 -0.94138224833E+02 -0.88267851176E+02  0.22960869549E+03  0.17300000000E+03 0.  1.
         -6    1    1    2    0  503 -0.78344968700E+02  0.94138224833E+02 -0.64185941659E+03  0.67595299404E+03  0.17300000000E+03 0. -1.
</event>
<event>
 4    1  0.6239288E+000  0.1000000E+03  0.7546771E-02  0.1280296E+00
         21   -1    0    0  501  502  0.00000000000E+00  0.00000000000E+00  0.31241034128E+03  0.31241034128E+03  0.00000000000E+00 0. -1.
         21   -1    0    0  502  503 -0.00000000000E+00 -0.00000000000E+00 -0.12846837235E+03  0.12846837235E+03  0.00000000000E+00 0. -1.
          6    1    1    2  501    0 -0.39936353892E+02 -0.53846390214E+02  0.17512887964E+03  0.25513422072E+03  0.17300000000E+03 0. -1.
         -6    1    1    2    0  503  0.39936353892E+02  0.53846390214E+02  0.88130892918E+01  0.18574449290E+03  0.17300000000E+03 0. -1.
</event>
<event>
 4    1  0.6239288E+000  0.1000000E+03  0.7546771E-02  0.1280296E+00
         21   -1    0    0  501  502  0.00000000000E+00  0.00000000000E+00  0.30218080169E+02  0.30218080169E+02  0.00000000000E+00 0. -1.
         21   -1    0    0  502  503 -0.00000000000E+00 -0.00000000000E+00 -0.15829008358E+04  0.15829008358E+04  0.00000000000E+00 0.  1.
          6    1    1    2  501    0 -0.89994797550E+02  0.16894597440E+02 -0.41653763233E+03  0.46023590707E+03  0.17300000000E+03 0. -1.
         -6    1    1    2    0  503  0.89994797550E+02 -0.16894597440E+02 -0.11361451233E+04  0.11528830089E+04  0.17300000000E+03 0.  1.
</event>
<event>
 4    1  0.6239288E+000  0.1000000E+03  0.7546771E-02  0.1280296E+00
         21   -1    0    0  503  502  0.00000000000E+00  0.00000000000E+00  0.31450280723E+03  0.31450280723E+03  0.00000000000E+00 0.  1.
         21   -1    0    0  501  503 -0.00000000000E+00 -0.00000000000E+00 -0.16341818369E+03  0.16341818369E+03  0.00000000000E+00 0.  1.
          6    1    1    2  501    0 -0.83171902361E+02  0.99355737710E+02  0.34542130251E+01  0.21617136616E+03  0.17300000000E+03 0. -1.
         -6    1    1    2    0  502  0.83171902361E+02 -0.99355737710E+02  0.14763041052E+03  0.26174962477E+03  0.17300000000E+03 0. -1.
</event>
<event>
 4    1  0.6239288E+000  0.1000000E+03  0.7546771E-02  0.1280296E+00
         21   -1    0    0  503  502  0.00000000000E+00  0.00000000000E+00  0.96065163521E+03  0.96065163521E+03  0.00000000000E+00 0.  1.
         21   -1    0    0  501  503 -0.00000000000E+00 -0.00000000000E+00 -0.10120059696E+03  0.10120059696E+03  0.00000000000E+00 0.  1.
          6    1    1    2  501    0 -0.22464417625E+03  0.23155116829E+02  0.21240627655E+03  0.35503040951E+03  0.17300000000E+03 0. -1.
         -6    1    1    2    0  502  0.22464417625E+03 -0.23155116829E+02  0.64704476170E+03  0.70682182267E+03  0.17300000000E+03 0. -1.
</event>
<event>
 4    1  0.6239288E+000  0.1000000E+03  0.7546771E-02  0.1280296E+00
         21   -1    0    0  503  502  0.00000000000E+00  0.00000000000E+00  0.12288050130E+04  0.12288050130E+04  0.00000000000E+00 0.  1.
         21   -1    0    0  501  503 -0.00000000000E+00 -0.00000000000E+00 -0.15524180536E+03  0.15524180536E+03  0.00000000000E+00 0.  1.
          6    1    1    2  501    0 -0.48320862142E+00 -0.19596432469E+03 -0.17614346194E+02  0.26199525804E+03  0.17300000000E+03 0. -1.
         -6    1    1    2    0  502  0.48320862142E+00  0.19596432469E+03  0.10911775538E+04  0.11220515603E+04  0.17300000000E+03 0. -1.
</event>
<event>
 4    1  0.6239288E+000  0.1000000E+03  0.7546771E-02  0.1280296E+00
         21   -1    0    0  501  502  0.00000000000E+00  0.00000000000E+00  0.26360742712E+03  0.26360742712E+03  0.00000000000E+00 0. -1.
         21   -1    0    0  502  503 -0.00000000000E+00 -0.00000000000E+00 -0.18540478036E+03  0.18540478036E+03  0.00000000000E+00 0.  1.
          6    1    1    2  501    0 -0.89016056781E+02 -0.12259519566E+02  0.14498330886E+03  0.24294714247E+03  0.17300000000E+03 0.  1.
         -6    1    1    2    0  503  0.89016056781E+02  0.12259519566E+02 -0.66780662105E+02  0.20606506501E+03  0.17300000000E+03 0. -1.
</event>
<event>
 4    1  0.6239288E+000  0.1000000E+03  0.7546771E-02  0.1280296E+00
         21   -1    0    0  503  502  0.00000000000E+00  0.00000000000E+00  0.43868891603E+02  0.43868891603E+02  0.00000000000E+00 0.  1.
         21   -1    0    0  501  503 -0.00000000000E+00 -0.00000000000E+00 -0.11817681870E+04  0.11817681870E+04  0.00000000000E+00 0.  1.
          6    1    1    2  501    0 -0.97618252688E+02  0.41660403026E+02 -0.84669114435E+03  0.87067778561E+03  0.17300000000E+03 0.  1.
         -6    1    1    2    0  502  0.97618252688E+02 -0.41660403026E+02 -0.29120815100E+03  0.35495929295E+03  0.17300000000E+03 0.  1.
</event>
<event>
 4    1  0.6239288E+000  0.1000000E+03  0.7546771E-02  0.1280296E+00
         21   -1    0    0  503  502  0.00000000000E+00  0.00000000000E+00  0.48579537215E+03  0.48579537215E+03  0.00000000000E+00 0.  1.
         21   -1    0    0  501  503 -0.00000000000E+00 -0.00000000000E+00 -0.75485959843E+02  0.75485959843E+02  0.00000000000E+00 0.  1.
          6    1    1    2  501    0 -0.79655561988E+02 -0.19630776109E+02  0.20021653891E+03  0.27703075349E+03  0.17300000000E+03 0.  1.
         -6    1    1    2    0  502  0.79655561988E+02  0.19630776109E+02  0.21009287339E+03  0.28425057850E+03  0.17300000000E+03 0.  1.
</event>
<event>
 4    1  0.6239288E+000  0.1000000E+03  0.7546771E-02  0.1280296E+00
         21   -1    0    0  501  502  0.00000000000E+00  0.00000000000E+00  0.53045644656E+03  0.53045644656E+03  0.00000000000E+00 0. -1.
         21   -1    0    0  502  503 -0.00000000000E+00 -0.00000000000E+00 -0.78277980432E+02  0.78277980432E+02  0.00000000000E+00 0. -1.
          6    1    1    2  501    0  0.22376305790E+02 -0.88316523164E+02  0.31180988392E+03  0.36804199629E+03  0.17300000000E+03 0. -1.
         -6    1    1    2    0  503 -0.22376305790E+02  0.88316523164E+02  0.14036858221E+03  0.24069243070E+03  0.17300000000E+03 0. -1.
</event>
<event>
 4    1  0.6239288E+000  0.1000000E+03  0.7546771E-02  0.1280296E+00
         21   -1    0    0  501  502  0.00000000000E+00  0.00000000000E+00  0.65287112866E+02  0.65287112866E+02  0.00000000000E+00 0. -1.
         21   -1    0    0  502  503 -0.00000000000E+00 -0.00000000000E+00 -0.59140039333E+03  0.59140039333E+03  0.00000000000E+00 0. -1.
          6    1    1    2  501    0 -0.14260611189E+02 -0.52849145256E+02 -0.13706092763E+03  0.22740073674E+03  0.17300000000E+03 0. -1.
         -6    1    1    2    0  503  0.14260611189E+02  0.52849145256E+02 -0.38905235283E+03  0.42928676946E+03  0.17300000000E+03 0. -1.
</event>
<event>
 4    1  0.6239288E+000  0.1000000E+03  0.7546771E-02  0.1280296E+00
         21   -1    0    0  501  502  0.00000000000E+00  0.00000000000E+00  0.19801773596E+03  0.19801773596E+03  0.00000000000E+00 0. -1.
         21   -1    0    0  502  503 -0.00000000000E+00 -0.00000000000E+00 -0.50181242811E+03  0.50181242811E+03  0.00000000000E+00 0. -1.
          6    1    1    2  501    0  0.22372883589E+03 -0.13871656822E+03 -0.16511956834E+03  0.35565481883E+03  0.17300000000E+03 0. -1.
         -6    1    1    2    0  503 -0.22372883589E+03  0.13871656822E+03 -0.13867512381E+03  0.34417534524E+03  0.17300000000E+03 0. -1.
</event>
<event>
 4    1  0.6239288E+000  0.1000000E+03  0.7546771E-02  0.1280296E+00
         21   -1    0    0  501  502  0.00000000000E+00  0.00000000000E+00  0.14593914552E+04  0.14593914552E+04  0.00000000000E+00 0. -1.
         21   -1    0    0  502  503 -0.00000000000E+00 -0.00000000000E+00 -0.37986059080E+02  0.37986059080E+02  0.00000000000E+00 0. -1.
          6    1    1    2  501    0 -0.11113928193E+03 -0.86636937034E+02  0.47169420088E+03  0.52180678224E+03  0.17300000000E+03 0. -1.
         -6    1    1    2    0  503  0.11113928193E+03  0.86636937034E+02  0.94971119522E+03  0.97557073202E+03  0.17300000000E+03 0. -1.
</event>
<event>
 4    1  0.6239288E+000  0.1000000E+03  0.7546771E-02  0.1280296E+00
         21   -1    0    0  501  502  0.00000000000E+00  0.00000000000E+00  0.17698251230E+03  0.17698251230E+03  0.00000000000E+00 0. -1.
         21   -1    0    0  502  503 -0.00000000000E+00 -0.00000000000E+00 -0.44262718471E+03  0.44262718471E+03  0.00000000000E+00 0. -1.
          6    1    1    2  501    0 -0.11833121524E+03 -0.14586467175E+01  0.72486490390E+02  0.22178299177E+03  0.17300000000E+03 0. -1.
         -6    1    1    2    0  503  0.11833121524E+03  0.14586467175E+01 -0.33813116280E+03  0.39782670524E+03  0.17300000000E+03 0. -1.
</event>
<event>
 4    1  0.6239288E+000  0.1000000E+03  0.7546771E-02  0.1280296E+00
         21   -1    0    0  503  502  0.00000000000E+00  0.00000000000E+00  0.10460526686E+03  0.10460526686E+03  0.00000000000E+00 0.  1.
         21   -1    0    0  501  503 -0.00000000000E+00 -0.00000000000E+00 -0.34489725389E+03  0.34489725389E+03  0.00000000000E+00 0.  1.
          6    1    1    2  501    0  0.19773186219E+02  0.61679318870E+02 -0.17244762194E+03  0.25271030763E+03  0.17300000000E+03 0.  1.
         -6    1    1    2    0  502 -0.19773186219E+02 -0.61679318870E+02 -0.67844365095E+02  0.19679221312E+03  0.17300000000E+03 0.  1.
</event>
<event>
 4    1  0.6239288E+000  0.1000000E+03  0.7546771E-02  0.1280296E+00
         21   -1    0    0  503  502  0.00000000000E+00  0.00000000000E+00  0.55213252692E+03  0.55213252692E+03  0.00000000000E+00 0.  1.
         21   -1    0    0  501  503 -0.00000000000E+00 -0.00000000000E+00 -0.13474990684E+03  0.13474990684E+03  0.00000000000E+00 0.  1.
          6    1    1    2  501    0  0.11277291764E+03  0.50793984944E+02 -0.63675823426E+01  0.21276114769E+03  0.17300000000E+03 0.  1.
         -6    1    1    2    0  502 -0.11277291764E+03 -0.50793984944E+02  0.42375020242E+03  0.47412128607E+03  0.17300000000E+03 0.  1.
</event>
<event>
 4    1  0.6239288E+000  0.1000000E+03  0.7546771E-02  0.1280296E+00
         21   -1    0    0  503  502  0.00000000000E+00  0.00000000000E+00  0.12243557807E+04  0.12243557807E+04  0.00000000000E+00 0.  1.
         21   -1    0    0  501  503 -0.00000000000E+00 -0.00000000000E+00 -0.41043273486E+02  0.41043273486E+02  0.00000000000E+00 0.  1.
          6    1    1    2  501    0 -0.53726780871E+02 -0.54209235131E+02  0.25182198336E+03  0.31491033559E+03  0.17300000000E+03 0.  1.
         -6    1    1    2    0  502  0.53726780871E+02  0.54209235131E+02  0.93149052388E+03  0.95048871862E+03  0.17300000000E+03 0.  1.
</event>
<event>
 4    1  0.6239288E+000  0.1000000E+03  0.7546771E-02  0.1280296E+00
         21   -1    0    0  501  502  0.00000000000E+00  0.00000000000E+00  0.37561597604E+02  0.37561597604E+02  0.00000000000E+00 0. -1.
         21   -1    0    0  502  503 -0.00000000000E+00 -0.00000000000E+00 -0.12343964716E+04  0.12343964716E+04  0.00000000000E+00 0. -1.
          6    1    1    2  501    0 -0.43606443162E+02  0.20087433272E+01 -0.24237942579E+03  0.30096900668E+03  0.17300000000E+03 0. -1.
         -6    1    1    2    0  503  0.43606443162E+02 -0.20087433272E+01 -0.95445544820E+03  0.97098906252E+03  0.17300000000E+03 0. -1.
</event>
<event>
 4    1  0.6239288E+000  0.1000000E+03  0.7546771E-02  0.1280296E+00
         21   -1    0    0  501  502  0.00000000000E+00  0.00000000000E+00  0.32348590441E+02  0.32348590441E+02  0.00000000000E+00 0. -1.
         21   -1    0    0  502  503 -0.00000000000E+00 -0.00000000000E+00 -0.22217638689E+04  0.22217638689E+04  0.00000000000E+00 0. -1.
          6    1    1    2  501    0  0.42212744673E+02 -0.20300069034E+02 -0.25654912450E+03  0.31295440866E+03  0.17300000000E+03 0. -1.
         -6    1    1    2    0  503 -0.42212744673E+02  0.20300069034E+02 -0.19328661539E+04  0.19411580507E+04  0.17300000000E+03 0. -1.
</event>
<event>
 4    1  0.6239288E+000  0.1000000E+03  0.7546771E-02  0.1280296E+00
         21   -1    0    0  501  502  0.00000000000E+00  0.00000000000E+00  0.28591372565E+02  0.28591372565E+02  0.00000000000E+00 0. -1.
         21   -1    0    0  502  503 -0.00000000000E+00 -0.00000000000E+00 -0.12322052207E+04  0.12322052207E+04  0.00000000000E+00 0.  1.
          6    1    1    2  501    0  0.15194055137E+02  0.66444954511E+02 -0.51580837413E+03  0.54830016424E+03  0.17300000000E+03 0. -1.
         -6    1    1    2    0  503 -0.15194055137E+02 -0.66444954511E+02 -0.68780547402E+03  0.71249642903E+03  0.17300000000E+03 0.  1.
</event>
<event>
 4    1  0.6239288E+000  0.1000000E+03  0.7546771E-02  0.1280296E+00
         21   -1    0    0  501  502  0.00000000000E+00  0.00000000000E+00  0.26306203415E+04  0.26306203415E+04  0.00000000000E+00 0. -1.
         21   -1    0    0  502  503 -0.00000000000E+00 -0.00000000000E+00 -0.43154114257E+02  0.43154114257E+02  0.00000000000E+00 0.  1.
          6    1    1    2  501    0 -0.10512061176E+03 -0.10581136830E+03  0.22764992741E+04  0.22879301418E+04  0.17300000000E+03 0. -1.
         -6    1    1    2    0  503  0.10512061176E+03  0.10581136830E+03  0.31096695311E+03  0.38584431395E+03  0.17300000000E+03 0.  1.
</event>
<event>
 4    1  0.6239288E+000  0.1000000E+03  0.7546771E-02  0.1280296E+00
         21   -1    0    0  501  502  0.00000000000E+00  0.00000000000E+00  0.14879717508E+04  0.14879717508E+04  0.00000000000E+00 0. -1.
         21   -1    0    0  502  503 -0.00000000000E+00 -0.00000000000E+00 -0.11593435478E+03  0.11593435478E+03  0.00000000000E+00 0.  1.
          6    1    1    2  501    0  0.22759950840E+03  0.17844754247E+03  0.11547508455E+04  0.12029229305E+04  0.17300000000E+03 0. -1.
         -6    1    1    2    0  503 -0.22759950840E+03 -0.17844754247E+03  0.21728655054E+03  0.40098317506E+03  0.17300000000E+03 0.  1.
</event>
<event>
 4    1  0.6239288E+000  0.1000000E+03  0.7546771E-02  0.1280296E+00
         21   -1    0    0  503  502  0.00000000000E+00  0.00000000000E+00  0.46794433694E+03  0.46794433694E+03  0.00000000000E+00 0.  1.
         21   -1    0    0  501  503 -0.00000000000E+00 -0.00000000000E+00 -0.24846864091E+03  0.24846864091E+03  0.00000000000E+00 0.  1.
          6    1    1    2  501    0  0.13667278672E+03  0.14573223305E+02 -0.16308908093E+03  0.27462497662E+03  0.17300000000E+03 0.  1.
         -6    1    1    2    0  502 -0.13667278672E+03 -0.14573223305E+02  0.38256477696E+03  0.44178800124E+03  0.17300000000E+03 0.  1.
</event>
<event>
 4    1  0.6239288E+000  0.1000000E+03  0.7546771E-02  0.1280296E+00
         21   -1    0    0  503  502  0.00000000000E+00  0.00000000000E+00  0.49797418275E+02  0.49797418275E+02  0.00000000000E+00 0.  1.
         21   -1    0    0  501  503 -0.00000000000E+00 -0.00000000000E+00 -0.92570769536E+03  0.92570769536E+03  0.00000000000E+00 0.  1.
          6    1    1    2  501    0  0.38703428979E+02  0.37430224824E+02 -0.69964845967E+03  0.72272812611E+03  0.17300000000E+03 0.  1.
         -6    1    1    2    0  502 -0.38703428979E+02 -0.37430224824E+02 -0.17626181741E+03  0.25277698752E+03  0.17300000000E+03 0.  1.
</event>
<event>
 4    1  0.6239288E+000  0.1000000E+03  0.7546771E-02  0.1280296E+00
         21   -1    0    0  503  502  0.00000000000E+00  0.00000000000E+00  0.61068212024E+02  0.61068212024E+02  0.00000000000E+00 0.  1.
         21   -1    0    0  501  503 -0.00000000000E+00 -0.00000000000E+00 -0.77914370677E+03  0.77914370677E+03  0.00000000000E+00 0.  1.
          6    1    1    2  501    0  0.96142179376E+02 -0.54470691024E+02 -0.50110804794E+03  0.54152437669E+03  0.17300000000E+03 0.  1.
         -6    1    1    2    0  502 -0.96142179376E+02  0.54470691024E+02 -0.21696744680E+03  0.29868754211E+03  0.17300000000E+03 0.  1.
</event>
<event>
 4    1  0.6239288E+000  0.1000000E+03  0.7546771E-02  0.1280296E+00
         21   -1    0    0  503  502  0.00000000000E+00  0.00000000000E+00  0.71198815339E+03  0.71198815339E+03  0.00000000000E+00 0.  1.
         21   -1    0    0  501  503 -0.00000000000E+00 -0.00000000000E+00 -0.47153492593E+02  0.47153492593E+02  0.00000000000E+00 0.  1.
          6    1    1    2  501    0  0.18323691125E+02  0.29481783473E+02  0.23011461901E+03  0.28997701822E+03  0.17300000000E+03 0.  1.
         -6    1    1    2    0  502 -0.18323691125E+02 -0.29481783473E+02  0.43472004178E+03  0.46916462776E+03  0.17300000000E+03 0.  1.
</event>
<event>
 4    1  0.6239288E+000  0.1000000E+03  0.7546771E-02  0.1280296E+00
         21   -1    0    0  503  502  0.00000000000E+00  0.00000000000E+00  0.21662832948E+02  0.21662832948E+02  0.00000000000E+00 0.  1.
         21   -1    0    0  501  503 -0.00000000000E+00 -0.00000000000E+00 -0.15997938747E+04  0.15997938747E+04  0.00000000000E+00 0.  1.
          6    1    1    2  501    0 -0.10415625416E+02 -0.52182295849E+02 -0.97867408521E+03  0.99527053725E+03  0.17300000000E+03 0.  1.
         -6    1    1    2    0  502  0.10415625416E+02  0.52182295849E+02 -0.59945695654E+03  0.62618617040E+03  0.17300000000E+03 0.  1.
</event>
<event>
 4    1  0.6239288E+000  0.1000000E+03  0.7546771E-02  0.1280296E+00
         21   -1    0    0  501  502  0.00000000000E+00  0.00000000000E+00  0.59339191795E+03  0.59339191795E+03  0.00000000000E+00 0. -1.
         21   -1    0    0  502  503 -0.00000000000E+00 -0.00000000000E+00 -0.12285962326E+03  0.12285962326E+03  0.00000000000E+00 0. -1.
          6    1    1    2  501    0 -0.56102958790E+02 -0.15967678591E+03  0.39404538577E+03  0.46243376173E+03  0.17300000000E+03 0. -1.
         -6    1    1    2    0  503  0.56102958790E+02  0.15967678591E+03  0.76486908917E+02  0.25381777948E+03  0.17300000000E+03 0. -1.
</event>
<event>
 4    1  0.6239288E+000  0.1000000E+03  0.7546771E-02  0.1280296E+00
         21   -1    0    0  501  502  0.00000000000E+00  0.00000000000E+00  0.43738437272E+02  0.43738437272E+02  0.00000000000E+00 0. -1.
         21   -1    0    0  502  503 -0.00000000000E+00 -0.00000000000E+00 -0.80270037793E+03  0.80270037793E+03  0.00000000000E+00 0. -1.
          6    1    1    2  501    0  0.41830033531E+02 -0.28317422638E+02 -0.26368616968E+03  0.31939164706E+03  0.17300000000E+03 0. -1.
         -6    1    1    2    0  503 -0.41830033531E+02  0.28317422638E+02 -0.49527577098E+03  0.52704716815E+03  0.17300000000E+03 0. -1.
</event>
<event>
 4    1  0.6239288E+000  0.1000000E+03  0.7546771E-02  0.1280296E+00
         21   -1    0    0  501  502  0.00000000000E+00  0.00000000000E+00  0.92309878268E+03  0.92309878268E+03  0.00000000000E+00 0. -1.
         21   -1    0    0  502  503 -0.00000000000E+00 -0.00000000000E+00 -0.77693716789E+02  0.77693716789E+02  0.00000000000E+00 0. -1.
          6    1    1    2  501    0 -0.77799975003E+02 -0.13051534535E+03  0.67823806499E+03  0.71625621414E+03  0.17300000000E+03 0. -1.
         -6    1    1    2    0  503  0.77799975003E+02  0.13051534535E+03  0.16716700089E+03  0.28453628533E+03  0.17300000000E+03 0. -1.
</event>
<event>
 4    1  0.6239288E+000  0.1000000E+03  0.7546771E-02  0.1280296E+00
         21   -1    0    0  503  502  0.00000000000E+00  0.00000000000E+00  0.62671430332E+02  0.62671430332E+02  0.00000000000E+00 0. -1.
         21   -1    0    0  501  503 -0.00000000000E+00 -0.00000000000E+00 -0.66942984400E+03  0.66942984400E+03  0.00000000000E+00 0.  1.
          6    1    1    2  501    0  0.61412716199E+02 -0.77948221909E+02 -0.38677626720E+03  0.43516930944E+03  0.17300000000E+03 0.  1.
         -6    1    1    2    0  502 -0.61412716199E+02  0.77948221909E+02 -0.21998214647E+03  0.29693196489E+03  0.17300000000E+03 0. -1.
</event>
<event>
 4    1  0.6239288E+000  0.1000000E+03  0.7546771E-02  0.1280296E+00
         21   -1    0    0  503  502  0.00000000000E+00  0.00000000000E+00  0.62353834658E+03  0.62353834658E+03  0.00000000000E+00 0. -1.
         21   -1    0    0  501  503 -0.00000000000E+00 -0.00000000000E+00 -0.72127666366E+02  0.72127666366E+02  0.00000000000E+00 0.  1.
          6    1    1    2  501    0  0.62109015157E+02  0.33577764839E+02  0.11119422796E+03  0.21743539819E+03  0.17300000000E+03 0.  1.
         -6    1    1    2    0  502 -0.62109015157E+02 -0.33577764839E+02  0.44021645225E+03  0.47823061475E+03  0.17300000000E+03 0. -1.
</event>
<event>
 4    1  0.6239288E+000  0.1000000E+03  0.7546771E-02  0.1280296E+00
         21   -1    0    0  501  502  0.00000000000E+00  0.00000000000E+00  0.32573417778E+03  0.32573417778E+03  0.00000000000E+00 0. -1.
         21   -1    0    0  502  503 -0.00000000000E+00 -0.00000000000E+00 -0.11082208868E+03  0.11082208868E+03  0.00000000000E+00 0.  1.
          6    1    1    2  501    0 -0.12324890678E+02 -0.34831737852E+02  0.18708746903E+03  0.25747985156E+03  0.17300000000E+03 0.  1.
         -6    1    1    2    0  503  0.12324890678E+02  0.34831737852E+02  0.27824620064E+02  0.17907641490E+03  0.17300000000E+03 0.  1.
</event>
<event>
 4    1  0.6239288E+000  0.1000000E+03  0.7546771E-02  0.1280296E+00
         21   -1    0    0  501  502  0.00000000000E+00  0.00000000000E+00  0.10386121759E+03  0.10386121759E+03  0.00000000000E+00 0. -1.
         21   -1    0    0  502  503 -0.00000000000E+00 -0.00000000000E+00 -0.35836062013E+03  0.35836062013E+03  0.00000000000E+00 0.  1.
          6    1    1    2  501    0  0.61255866680E+02 -0.52097213931E+02 -0.16164464172E+03  0.25004877744E+03  0.17300000000E+03 0.  1.
         -6    1    1    2    0  503 -0.61255866680E+02  0.52097213931E+02 -0.92854760824E+02  0.21217306028E+03  0.17300000000E+03 0.  1.
</event>
<event>
 4    1  0.6239288E+000  0.1000000E+03  0.7546771E-02  0.1280296E+00
         21   -1    0    0  501  502  0.00000000000E+00  0.00000000000E+00  0.13015302572E+02  0.13015302572E+02  0.00000000000E+00 0. -1.
         21   -1    0    0  502  503 -0.00000000000E+00 -0.00000000000E+00 -0.27228179483E+04  0.27228179483E+04  0.00000000000E+00 0. -1.
          6    1    1    2  501    0 -0.11404427955E+02 -0.70828767055E+02 -0.12165473264E+04  0.12308790244E+04  0.17300000000E+03 0.  1.
         -6    1    1    2    0  503  0.11404427955E+02  0.70828767055E+02 -0.14932553193E+04  0.15049542265E+04  0.17300000000E+03 0.  1.
</event>
<event>
 4    1  0.6239288E+000  0.1000000E+03  0.7546771E-02  0.1280296E+00
         21   -1    0    0  501  502  0.00000000000E+00  0.00000000000E+00  0.12398306752E+04  0.12398306752E+04  0.00000000000E+00 0. -1.
         21   -1    0    0  502  503 -0.00000000000E+00 -0.00000000000E+00 -0.58620718470E+02  0.58620718470E+02  0.00000000000E+00 0. -1.
          6    1    1    2  501    0 -0.86447217577E+02 -0.18274198323E+03  0.48610519643E+03  0.55416154311E+03  0.17300000000E+03 0.  1.
         -6    1    1    2    0  503  0.86447217577E+02  0.18274198323E+03  0.69510476031E+03  0.74428985057E+03  0.17300000000E+03 0.  1.
</event>
<event>
 4    1  0.6239288E+000  0.1000000E+03  0.7546771E-02  0.1280296E+00
         21   -1    0    0  501  502  0.00000000000E+00  0.00000000000E+00  0.24868995576E+03  0.24868995576E+03  0.00000000000E+00 0. -1.
         21   -1    0    0  502  503 -0.00000000000E+00 -0.00000000000E+00 -0.36229570972E+03  0.36229570972E+03  0.00000000000E+00 0.  1.
          6    1    1    2  501    0 -0.21463874006E+03 -0.20002589999E+01  0.64033076933E+02  0.28302477756E+03  0.17300000000E+03 0. -1.
         -6    1    1    2    0  503  0.21463874006E+03  0.20002589999E+01 -0.17763883089E+03  0.32796088793E+03  0.17300000000E+03 0. -1.
</event>
<event>
 4    1  0.6239288E+000  0.1000000E+03  0.7546771E-02  0.1280296E+00
         21   -1    0    0  503  502  0.00000000000E+00  0.00000000000E+00  0.69215257974E+02  0.69215257974E+02  0.00000000000E+00 0. -1.
         21   -1    0    0  501  503 -0.00000000000E+00 -0.00000000000E+00 -0.65578363080E+03  0.65578363080E+03  0.00000000000E+00 0. -1.
          6    1    1    2  501    0  0.59615419569E+02  0.39095228275E+02 -0.46662453646E+03  0.50274237255E+03  0.17300000000E+03 0. -1.
         -6    1    1    2    0  502 -0.59615419569E+02 -0.39095228275E+02 -0.11994383636E+03  0.22225651623E+03  0.17300000000E+03 0. -1.
</event>
<event>
 4    1  0.6239288E+000  0.1000000E+03  0.7546771E-02  0.1280296E+00
         21   -1    0    0  501  502  0.00000000000E+00  0.00000000000E+00  0.21699316058E+03  0.21699316058E+03  0.00000000000E+00 0. -1.
         21   -1    0    0  502  503 -0.00000000000E+00 -0.00000000000E+00 -0.24670621999E+03  0.24670621999E+03  0.00000000000E+00 0. -1.
          6    1    1    2  501    0  0.63285761593E+02 -0.38484082327E+02  0.12002546226E+03  0.22320668405E+03  0.17300000000E+03 0. -1.
         -6    1    1    2    0  503 -0.63285761593E+02  0.38484082327E+02 -0.14973852167E+03  0.24049269653E+03  0.17300000000E+03 0. -1.
</event>
<event>
 4    1  0.6239288E+000  0.1000000E+03  0.7546771E-02  0.1280296E+00
         21   -1    0    0  501  502  0.00000000000E+00  0.00000000000E+00  0.11634701209E+03  0.11634701209E+03  0.00000000000E+00 0. -1.
         21   -1    0    0  502  503 -0.00000000000E+00 -0.00000000000E+00 -0.42140022071E+03  0.42140022071E+03  0.00000000000E+00 0. -1.
          6    1    1    2  501    0  0.37342765724E+02  0.55973977687E+02 -0.59434415126E+01  0.18571993115E+03  0.17300000000E+03 0. -1.
         -6    1    1    2    0  503 -0.37342765724E+02 -0.55973977687E+02 -0.29910976710E+03  0.35202730165E+03  0.17300000000E+03 0. -1.
</event>
<event>
 4    1  0.6239288E+000  0.1000000E+03  0.7546771E-02  0.1280296E+00
         21   -1    0    0  501  502  0.00000000000E+00  0.00000000000E+00  0.38942020056E+03  0.38942020056E+03  0.00000000000E+00 0. -1.
         21   -1    0    0  502  503 -0.00000000000E+00 -0.00000000000E+00 -0.14419181490E+03  0.14419181490E+03  0.00000000000E+00 0. -1.
          6    1    1    2  501    0 -0.15887777614E+03  0.25511362386E+02  0.14304401187E+03  0.27619479846E+03  0.17300000000E+03 0. -1.
         -6    1    1    2    0  503  0.15887777614E+03 -0.25511362386E+02  0.10218437379E+03  0.25741721700E+03  0.17300000000E+03 0. -1.
</event>
<event>
 4    1  0.6239288E+000  0.1000000E+03  0.7546771E-02  0.1280296E+00
         21   -1    0    0  501  502  0.00000000000E+00  0.00000000000E+00  0.15395591256E+02  0.15395591256E+02  0.00000000000E+00 0. -1.
         21   -1    0    0  502  503 -0.00000000000E+00 -0.00000000000E+00 -0.30625615644E+04  0.30625615644E+04  0.00000000000E+00 0. -1.
          6    1    1    2  501    0  0.12463764416E+02  0.54054916792E+02 -0.68068895317E+03  0.70451666440E+03  0.17300000000E+03 0. -1.
         -6    1    1    2    0  503 -0.12463764416E+02 -0.54054916792E+02 -0.23664770200E+04  0.23734404913E+04  0.17300000000E+03 0. -1.
</event>
<event>
 4    1  0.6239288E+000  0.1000000E+03  0.7546771E-02  0.1280296E+00
         21   -1    0    0  503  502  0.00000000000E+00  0.00000000000E+00  0.10632003095E+03  0.10632003095E+03  0.00000000000E+00 0.  1.
         21   -1    0    0  501  503 -0.00000000000E+00 -0.00000000000E+00 -0.49834577691E+03  0.49834577691E+03  0.00000000000E+00 0.  1.
          6    1    1    2  501    0  0.13365283157E+03 -0.26841032815E+02 -0.28384326575E+03  0.35927638378E+03  0.17300000000E+03 0.  1.
         -6    1    1    2    0  502 -0.13365283157E+03  0.26841032815E+02 -0.10818248021E+03  0.24538942409E+03  0.17300000000E+03 0.  1.
</event>
<event>
 4    1  0.6239288E+000  0.1000000E+03  0.7546771E-02  0.1280296E+00
         21   -1    0    0  503  502  0.00000000000E+00  0.00000000000E+00  0.13866954416E+03  0.13866954416E+03  0.00000000000E+00 0.  1.
         21   -1    0    0  501  503 -0.00000000000E+00 -0.00000000000E+00 -0.49251142395E+03  0.49251142395E+03  0.00000000000E+00 0.  1.
          6    1    1    2  501    0  0.14310436761E+03 -0.74651575626E+02 -0.31093590154E+03  0.39071965991E+03  0.17300000000E+03 0.  1.
         -6    1    1    2    0  502 -0.14310436761E+03  0.74651575626E+02 -0.42905978256E+02  0.24046130820E+03  0.17300000000E+03 0.  1.
</event>
<event>
 4    1  0.6239288E+000  0.1000000E+03  0.7546771E-02  0.1280296E+00
         21   -1    0    0  503  502  0.00000000000E+00  0.00000000000E+00  0.10149542310E+04  0.10149542310E+04  0.00000000000E+00 0. -1.
         21   -1    0    0  501  503 -0.00000000000E+00 -0.00000000000E+00 -0.12176882200E+03  0.12176882200E+03  0.00000000000E+00 0. -1.
          6    1    1    2  501    0  0.25174453358E+03  0.17306219863E+03  0.47618107105E+03  0.59161072269E+03  0.17300000000E+03 0. -1.
         -6    1    1    2    0  502 -0.25174453358E+03 -0.17306219863E+03  0.41700433799E+03  0.54511233034E+03  0.17300000000E+03 0. -1.
</event>
<event>
 4    1  0.6239288E+000  0.1000000E+03  0.7546771E-02  0.1280296E+00
         21   -1    0    0  503  502  0.00000000000E+00  0.00000000000E+00  0.37587486816E+03  0.37587486816E+03  0.00000000000E+00 0.  1.
         21   -1    0    0  501  503 -0.00000000000E+00 -0.00000000000E+00 -0.14264871633E+03  0.14264871633E+03  0.00000000000E+00 0. -1.
          6    1    1    2  501    0 -0.54807938882E+02  0.78029804738E+00 -0.44416616184E+02  0.18683242444E+03  0.17300000000E+03 0. -1.
         -6    1    1    2    0  502  0.54807938882E+02 -0.78029804738E+00  0.27764276801E+03  0.33169116005E+03  0.17300000000E+03 0.  1.
</event>
<event>
 4    1  0.6239288E+000  0.1000000E+03  0.7546771E-02  0.1280296E+00
         21   -1    0    0  501  502  0.00000000000E+00  0.00000000000E+00  0.32955693818E+02  0.32955693818E+02  0.00000000000E+00 0.  1.
         21   -1    0    0  502  503 -0.00000000000E+00 -0.00000000000E+00 -0.15823146889E+04  0.15823146889E+04  0.00000000000E+00 0.  1.
          6    1    1    2  501    0  0.12876833096E+03 -0.33638081920E+02 -0.53730959279E+03  0.57995120667E+03  0.17300000000E+03 0.  1.
         -6    1    1    2    0  503 -0.12876833096E+03  0.33638081920E+02 -0.10120494023E+04  0.10353191761E+04  0.17300000000E+03 0.  1.
</event>
<event>
 4    1  0.6239288E+000  0.1000000E+03  0.7546771E-02  0.1280296E+00
         21   -1    0    0  501  502  0.00000000000E+00  0.00000000000E+00  0.13030677058E+04  0.13030677058E+04  0.00000000000E+00 0.  1.
         21   -1    0    0  502  503 -0.00000000000E+00 -0.00000000000E+00 -0.95481165299E+02  0.95481165299E+02  0.00000000000E+00 0.  1.
          6    1    1    2  501    0 -0.86886731217E+02 -0.64895611500E+02  0.11740013263E+04  0.11916244620E+04  0.17300000000E+03 0.  1.
         -6    1    1    2    0  503  0.86886731217E+02  0.64895611500E+02  0.33585214245E+02  0.20692440907E+03  0.17300000000E+03 0.  1.
</event>
<event>
 4    1  0.6239288E+000  0.1000000E+03  0.7546771E-02  0.1280296E+00
         21   -1    0    0  501  502  0.00000000000E+00  0.00000000000E+00  0.22256893244E+04  0.22256893244E+04  0.00000000000E+00 0.  1.
         21   -1    0    0  502  503 -0.00000000000E+00 -0.00000000000E+00 -0.49556189048E+02  0.49556189048E+02  0.00000000000E+00 0.  1.
          6    1    1    2  501    0 -0.15067655436E+03  0.46147596076E+02  0.18952999124E+04  0.19096920648E+04  0.17300000000E+03 0.  1.
         -6    1    1    2    0  503  0.15067655436E+03 -0.46147596076E+02  0.28083322294E+03  0.36555344857E+03  0.17300000000E+03 0.  1.
</event>
<event>
 4    1  0.6239288E+000  0.1000000E+03  0.7546771E-02  0.1280296E+00
         21   -1    0    0  501  502  0.00000000000E+00  0.00000000000E+00  0.16628872029E+04  0.16628872029E+04  0.00000000000E+00 0.  1.
         21   -1    0    0  502  503 -0.00000000000E+00 -0.00000000000E+00 -0.36738890946E+02  0.36738890946E+02  0.00000000000E+00 0.  1.
          6    1    1    2  501    0  0.52444756387E+02  0.16079886727E+03  0.98692873737E+03  0.10161515934E+04  0.17300000000E+03 0.  1.
         -6    1    1    2    0  503 -0.52444756387E+02 -0.16079886727E+03  0.63921957458E+03  0.68347450042E+03  0.17300000000E+03 0.  1.
</event>
<event>
 4    1  0.6239288E+000  0.1000000E+03  0.7546771E-02  0.1280296E+00
         21   -1    0    0  501  502  0.00000000000E+00  0.00000000000E+00  0.17528400344E+03  0.17528400344E+03  0.00000000000E+00 0. -1.
         21   -1    0    0  502  503 -0.00000000000E+00 -0.00000000000E+00 -0.27011281406E+03  0.27011281406E+03  0.00000000000E+00 0.  1.
          6    1    1    2  501    0  0.85429717512E+02 -0.11536730146E+02 -0.14968995591E+03  0.24447375253E+03  0.17300000000E+03 0. -1.
         -6    1    1    2    0  503 -0.85429717512E+02  0.11536730146E+02  0.54861145278E+02  0.20092306497E+03  0.17300000000E+03 0.  1.
</event>
<event>
 4    1  0.6239288E+000  0.1000000E+03  0.7546771E-02  0.1280296E+00
         21   -1    0    0  501  502  0.00000000000E+00  0.00000000000E+00  0.13052589256E+03  0.13052589256E+03  0.00000000000E+00 0. -1.
         21   -1    0    0  502  503 -0.00000000000E+00 -0.00000000000E+00 -0.12229722407E+04  0.12229722407E+04  0.00000000000E+00 0.  1.
          6    1    1    2  501    0 -0.72611616075E+02  0.19686033404E+02  0.50335113007E+02  0.19525012241E+03  0.17300000000E+03 0. -1.
         -6    1    1    2    0  503  0.72611616075E+02 -0.19686033404E+02 -0.11427814611E+04  0.11582480108E+04  0.17300000000E+03 0.  1.
</event>
<event>
 4    1  0.6239288E+000  0.1000000E+03  0.7546771E-02  0.1280296E+00
         21   -1    0    0  501  502  0.00000000000E+00  0.00000000000E+00  0.10124998683E+03  0.10124998683E+03  0.00000000000E+00 0.  1.
         21   -1    0    0  502  503 -0.00000000000E+00 -0.00000000000E+00 -0.40823574008E+03  0.40823574008E+03  0.00000000000E+00 0.  1.
          6    1    1    2  501    0 -0.85796022575E+02 -0.20877375187E+02 -0.78229316061E+02  0.20939352467E+03  0.17300000000E+03 0.  1.
         -6    1    1    2    0  503  0.85796022575E+02  0.20877375187E+02 -0.22875643719E+03  0.30009220223E+03  0.17300000000E+03 0.  1.
</event>
<event>
 4    1  0.6239288E+000  0.1000000E+03  0.7546771E-02  0.1280296E+00
         21   -1    0    0  503  502  0.00000000000E+00  0.00000000000E+00  0.18153282949E+04  0.18153282949E+04  0.00000000000E+00 0. -1.
         21   -1    0    0  501  503 -0.00000000000E+00 -0.00000000000E+00 -0.26404789958E+02  0.26404789958E+02  0.00000000000E+00 0. -1.
          6    1    1    2  501    0 -0.10412725089E+03 -0.27978869990E+02  0.55852608455E+03  0.59456344377E+03  0.17300000000E+03 0. -1.
         -6    1    1    2    0  502  0.10412725089E+03  0.27978869990E+02  0.12303974204E+04  0.12471696411E+04  0.17300000000E+03 0. -1.
</event>
<event>
 4    1  0.6239288E+000  0.1000000E+03  0.7546771E-02  0.1280296E+00
         21   -1    0    0  503  502  0.00000000000E+00  0.00000000000E+00  0.38700565830E+02  0.38700565830E+02  0.00000000000E+00 0. -1.
         21   -1    0    0  501  503 -0.00000000000E+00 -0.00000000000E+00 -0.91133766916E+03  0.91133766916E+03  0.00000000000E+00 0. -1.
          6    1    1    2  501    0  0.69613457932E+02  0.11872695646E+01 -0.49247063678E+03  0.52659640260E+03  0.17300000000E+03 0. -1.
         -6    1    1    2    0  502 -0.69613457932E+02 -0.11872695646E+01 -0.38016646654E+03  0.42344183239E+03  0.17300000000E+03 0. -1.
</event>
<event>
 4    1  0.6239288E+000  0.1000000E+03  0.7546771E-02  0.1280296E+00
         21   -1    0    0  501  502  0.00000000000E+00  0.00000000000E+00  0.43707453586E+03  0.43707453586E+03  0.00000000000E+00 0. -1.
         21   -1    0    0  502  503 -0.00000000000E+00 -0.00000000000E+00 -0.93869002145E+02  0.93869002145E+02  0.00000000000E+00 0. -1.
          6    1    1    2  501    0  0.45654658753E+02  0.10516965906E+01  0.29603168418E+03  0.34590347204E+03  0.17300000000E+03 0. -1.
         -6    1    1    2    0  503 -0.45654658753E+02 -0.10516965906E+01  0.47173849532E+02  0.18504006596E+03  0.17300000000E+03 0. -1.
</event>
<event>
 4    1  0.6239288E+000  0.1000000E+03  0.7546771E-02  0.1280296E+00
         21   -1    0    0  501  502  0.00000000000E+00  0.00000000000E+00  0.43721606728E+03  0.43721606728E+03  0.00000000000E+00 0. -1.
         21   -1    0    0  502  503 -0.00000000000E+00 -0.00000000000E+00 -0.16090313857E+03  0.16090313857E+03  0.00000000000E+00 0. -1.
          6    1    1    2  501    0 -0.11250955963E+03  0.63896692979E+02  0.31166122709E+03  0.37921353991E+03  0.17300000000E+03 0. -1.
         -6    1    1    2    0  503  0.11250955963E+03 -0.63896692979E+02 -0.35348298371E+02  0.21890566594E+03  0.17300000000E+03 0. -1.
</event>
<event>
 4    1  0.6239288E+000  0.1000000E+03  0.7546771E-02  0.1280296E+00
         21   -1    0    0  501  502  0.00000000000E+00  0.00000000000E+00  0.11773575452E+03  0.11773575452E+03  0.00000000000E+00 0. -1.
         21   -1    0    0  502  503 -0.00000000000E+00 -0.00000000000E+00 -0.20127485532E+04  0.20127485532E+04  0.00000000000E+00 0.  1.
          6    1    1    2  501    0  0.75960722444E+02  0.95602221650E+02  0.11675815078E+02  0.21207343256E+03  0.17300000000E+03 0.  1.
         -6    1    1    2    0  503 -0.75960722444E+02 -0.95602221650E+02 -0.19066886137E+04  0.19184108751E+04  0.17300000000E+03 0. -1.
</event>
<event>
 4    1  0.6239288E+000  0.1000000E+03  0.7546771E-02  0.1280296E+00
         21   -1    0    0  501  502  0.00000000000E+00  0.00000000000E+00  0.28841675788E+03  0.28841675788E+03  0.00000000000E+00 0. -1.
         21   -1    0    0  502  503 -0.00000000000E+00 -0.00000000000E+00 -0.23183048941E+03  0.23183048941E+03  0.00000000000E+00 0.  1.
          6    1    1    2  501    0  0.38966351892E+02 -0.21614651402E+02  0.21635600874E+03  0.28057885212E+03  0.17300000000E+03 0.  1.
         -6    1    1    2    0  503 -0.38966351892E+02  0.21614651402E+02 -0.15976974028E+03  0.23966839517E+03  0.17300000000E+03 0. -1.
</event>
<event>
 4    1  0.6239288E+000  0.1000000E+03  0.7546771E-02  0.1280296E+00
         21   -1    0    0  503  502  0.00000000000E+00  0.00000000000E+00  0.12717175463E+04  0.12717175463E+04  0.00000000000E+00 0. -1.
         21   -1    0    0  501  503 -0.00000000000E+00 -0.00000000000E+00 -0.51909589582E+02  0.51909589582E+02  0.00000000000E+00 0.  1.
          6    1    1    2  501    0  0.74919749311E+02 -0.15566063943E+03  0.40639525737E+03  0.47426712801E+03  0.17300000000E+03 0.  1.
         -6    1    1    2    0  502 -0.74919749311E+02  0.15566063943E+03  0.81341269936E+03  0.84936000788E+03  0.17300000000E+03 0.  1.
</event>
<event>
 4    1  0.6239288E+000  0.1000000E+03  0.7546771E-02  0.1280296E+00
         21   -1    0    0  501  502  0.00000000000E+00  0.00000000000E+00  0.39001852749E+03  0.39001852749E+03  0.00000000000E+00 0. -1.
         21   -1    0    0  502  503 -0.00000000000E+00 -0.00000000000E+00 -0.57544393168E+03  0.57544393168E+03  0.00000000000E+00 0. -1.
          6    1    1    2  501    0 -0.69825275720E+02  0.30013069911E+03  0.22878925649E+03  0.42098400155E+03  0.17300000000E+03 0. -1.
         -6    1    1    2    0  503  0.69825275720E+02 -0.30013069911E+03 -0.41421466068E+03  0.54447845761E+03  0.17300000000E+03 0. -1.
</event>
<event>
 4    1  0.6239288E+000  0.1000000E+03  0.7546771E-02  0.1280296E+00
         21   -1    0    0  501  502  0.00000000000E+00  0.00000000000E+00  0.11859280757E+03  0.11859280757E+03  0.00000000000E+00 0. -1.
         21   -1    0    0  502  503 -0.00000000000E+00 -0.00000000000E+00 -0.53138522855E+03  0.53138522855E+03  0.00000000000E+00 0. -1.
          6    1    1    2  501    0 -0.15004309556E+03  0.10273372732E+03 -0.21251198919E+03  0.32887306792E+03  0.17300000000E+03 0. -1.
         -6    1    1    2    0  503  0.15004309556E+03 -0.10273372732E+03 -0.20028043179E+03  0.32110496821E+03  0.17300000000E+03 0. -1.
</event>
<event>
 4    1  0.6239288E+000  0.1000000E+03  0.7546771E-02  0.1280296E+00
         21   -1    0    0  501  502  0.00000000000E+00  0.00000000000E+00  0.36267627352E+03  0.36267627352E+03  0.00000000000E+00 0. -1.
         21   -1    0    0  502  503 -0.00000000000E+00 -0.00000000000E+00 -0.10685233150E+03  0.10685233150E+03  0.00000000000E+00 0. -1.
          6    1    1    2  501    0 -0.39055294120E+02 -0.67322089447E+02  0.65189336630E+02  0.20058970396E+03  0.17300000000E+03 0. -1.
         -6    1    1    2    0  503  0.39055294120E+02  0.67322089447E+02  0.19063460540E+03  0.26893890106E+03  0.17300000000E+03 0. -1.
</event>
<event>
 4    1  0.6239288E+000  0.1000000E+03  0.7546771E-02  0.1280296E+00
         21   -1    0    0  503  502  0.00000000000E+00  0.00000000000E+00  0.11826417706E+03  0.11826417706E+03  0.00000000000E+00 0. -1.
         21   -1    0    0  501  503 -0.00000000000E+00 -0.00000000000E+00 -0.50635455246E+03  0.50635455246E+03  0.00000000000E+00 0. -1.
          6    1    1    2  501    0 -0.51467099325E+02 -0.30387858076E+02 -0.40133957061E+03  0.44110626290E+03  0.17300000000E+03 0. -1.
         -6    1    1    2    0  502  0.51467099325E+02  0.30387858076E+02  0.13249195217E+02  0.18351246662E+03  0.17300000000E+03 0. -1.
</event>
<event>
 4    1  0.6239288E+000  0.1000000E+03  0.7546771E-02  0.1280296E+00
         21   -1    0    0  503  502  0.00000000000E+00  0.00000000000E+00  0.10592998171E+03  0.10592998171E+03  0.00000000000E+00 0.  1.
         21   -1    0    0  501  503 -0.00000000000E+00 -0.00000000000E+00 -0.94861651621E+03  0.94861651621E+03  0.00000000000E+00 0. -1.
          6    1    1    2  501    0  0.72441747223E+02  0.11986389889E+03 -0.79676743194E+03  0.82727413933E+03  0.17300000000E+03 0.  1.
         -6    1    1    2    0  502 -0.72441747223E+02 -0.11986389889E+03 -0.45919102562E+02  0.22727235859E+03  0.17300000000E+03 0. -1.
</event>
<event>
 4    1  0.6239288E+000  0.1000000E+03  0.7546771E-02  0.1280296E+00
         21   -1    0    0  503  502  0.00000000000E+00  0.00000000000E+00  0.25020844992E+03  0.25020844992E+03  0.00000000000E+00 0.  1.
         21   -1    0    0  501  503 -0.00000000000E+00 -0.00000000000E+00 -0.79807505226E+03  0.79807505226E+03  0.00000000000E+00 0. -1.
          6    1    1    2  501    0 -0.15792412838E+03 -0.15640040667E+03 -0.68085230983E+03  0.73681068486E+03  0.17300000000E+03 0.  1.
         -6    1    1    2    0  502  0.15792412838E+03  0.15640040667E+03  0.13298570749E+03  0.31147281732E+03  0.17300000000E+03 0. -1.
</event>
<event>
 4    1  0.6239288E+000  0.1000000E+03  0.7546771E-02  0.1280296E+00
         21   -1    0    0  503  502  0.00000000000E+00  0.00000000000E+00  0.16731159758E+03  0.16731159758E+03  0.00000000000E+00 0.  1.
         21   -1    0    0  501  503 -0.00000000000E+00 -0.00000000000E+00 -0.52109891283E+03  0.52109891283E+03  0.00000000000E+00 0. -1.
          6    1    1    2  501    0  0.16633880270E+03 -0.46726434826E+02 -0.36987209044E+03  0.44338055920E+03  0.17300000000E+03 0. -1.
         -6    1    1    2    0  502 -0.16633880270E+03  0.46726434826E+02  0.16084775184E+02  0.24502995121E+03  0.17300000000E+03 0.  1.
</event>
<event>
 4    1  0.6239288E+000  0.1000000E+03  0.7546771E-02  0.1280296E+00
         21   -1    0    0  501  502  0.00000000000E+00  0.00000000000E+00  0.21027562312E+03  0.21027562312E+03  0.00000000000E+00 0.  1.
         21   -1    0    0  502  503 -0.00000000000E+00 -0.00000000000E+00 -0.51869919255E+03  0.51869919255E+03  0.00000000000E+00 0. -1.
          6    1    1    2  501    0 -0.73043555541E+02 -0.10052291731E+03  0.12433744728E+03  0.24663539629E+03  0.17300000000E+03 0. -1.
         -6    1    1    2    0  503  0.73043555541E+02  0.10052291731E+03 -0.43276101670E+03  0.48233941938E+03  0.17300000000E+03 0. -1.
</event>
<event>
 4    1  0.6239288E+000  0.1000000E+03  0.7546771E-02  0.1280296E+00
         21   -1    0    0  501  502  0.00000000000E+00  0.00000000000E+00  0.81729752903E+03  0.81729752903E+03  0.00000000000E+00 0.  1.
         21   -1    0    0  502  503 -0.00000000000E+00 -0.00000000000E+00 -0.15287265868E+03  0.15287265868E+03  0.00000000000E+00 0. -1.
          6    1    1    2  501    0 -0.94934175077E+02  0.18232294679E+03  0.64743144846E+03  0.70096407539E+03  0.17300000000E+03 0. -1.
         -6    1    1    2    0  503  0.94934175077E+02 -0.18232294679E+03  0.16993421884E+02  0.26920611232E+03  0.17300000000E+03 0. -1.
</event>
<event>
 4    1  0.6239288E+000  0.1000000E+03  0.7546771E-02  0.1280296E+00
         21   -1    0    0  503  502  0.00000000000E+00  0.00000000000E+00  0.88240348528E+02  0.88240348528E+02  0.00000000000E+00 0. -1.
         21   -1    0    0  501  503 -0.00000000000E+00 -0.00000000000E+00 -0.62752920197E+03  0.62752920197E+03  0.00000000000E+00 0. -1.
          6    1    1    2  501    0  0.66089153816E+02  0.69402817415E+02 -0.46357717679E+03  0.50400131563E+03  0.17300000000E+03 0. -1.
         -6    1    1    2    0  502 -0.66089153816E+02 -0.69402817415E+02 -0.75711676653E+02  0.21176823487E+03  0.17300000000E+03 0. -1.
</event>
<event>
 4    1  0.6239288E+000  0.1000000E+03  0.7546771E-02  0.1280296E+00
         21   -1    0    0  501  502  0.00000000000E+00  0.00000000000E+00  0.25248416366E+03  0.25248416366E+03  0.00000000000E+00 0. -1.
         21   -1    0    0  502  503 -0.00000000000E+00 -0.00000000000E+00 -0.38971064323E+03  0.38971064323E+03  0.00000000000E+00 0.  1.
          6    1    1    2  501    0  0.10647134168E+03  0.95502900730E+02  0.15567866831E+03  0.27316990759E+03  0.17300000000E+03 0. -1.
         -6    1    1    2    0  503 -0.10647134168E+03 -0.95502900730E+02 -0.29290514788E+03  0.36902489929E+03  0.17300000000E+03 0.  1.
</event>
<event>
 4    1  0.6239288E+000  0.1000000E+03  0.7546771E-02  0.1280296E+00
         21   -1    0    0  501  502  0.00000000000E+00  0.00000000000E+00  0.17269994750E+03  0.17269994750E+03  0.00000000000E+00 0. -1.
         21   -1    0    0  502  503 -0.00000000000E+00 -0.00000000000E+00 -0.43792369485E+03  0.43792369485E+03  0.00000000000E+00 0.  1.
          6    1    1    2  501    0  0.18544609671E+03  0.63113728013E+02 -0.37583015194E+02  0.26403613480E+03  0.17300000000E+03 0. -1.
         -6    1    1    2    0  503 -0.18544609671E+03 -0.63113728013E+02 -0.22764073216E+03  0.34658750755E+03  0.17300000000E+03 0.  1.
</event>
<event>
 4    1  0.6239288E+000  0.1000000E+03  0.7546771E-02  0.1280296E+00
         21   -1    0    0  503  502  0.00000000000E+00  0.00000000000E+00  0.33667036366E+03  0.33667036366E+03  0.00000000000E+00 0. -1.
         21   -1    0    0  501  503 -0.00000000000E+00 -0.00000000000E+00 -0.21210718943E+03  0.21210718943E+03  0.00000000000E+00 0. -1.
          6    1    1    2  501    0 -0.34394933862E+02  0.96206073571E+02 -0.11862948226E+03  0.23332503965E+03  0.17300000000E+03 0. -1.
         -6    1    1    2    0  502  0.34394933862E+02 -0.96206073571E+02  0.24319265649E+03  0.31545251344E+03  0.17300000000E+03 0. -1.
</event>
<event>
 4    1  0.6239288E+000  0.1000000E+03  0.7546771E-02  0.1280296E+00
         21   -1    0    0  501  502  0.00000000000E+00  0.00000000000E+00  0.38952974637E+03  0.38952974637E+03  0.00000000000E+00 0. -1.
         21   -1    0    0  502  503 -0.00000000000E+00 -0.00000000000E+00 -0.15279949337E+03  0.15279949337E+03  0.00000000000E+00 0. -1.
          6    1    1    2  501    0 -0.12935550566E+03  0.51957829334E+02  0.23039045487E+03  0.32006440691E+03  0.17300000000E+03 0. -1.
         -6    1    1    2    0  503  0.12935550566E+03 -0.51957829334E+02  0.63397981290E+01  0.22226483283E+03  0.17300000000E+03 0. -1.
</event>
<event>
 4    1  0.6239288E+000  0.1000000E+03  0.7546771E-02  0.1280296E+00
         21   -1    0    0  501  502  0.00000000000E+00  0.00000000000E+00  0.11164625090E+03  0.11164625090E+03  0.00000000000E+00 0. -1.
         21   -1    0    0  502  503 -0.00000000000E+00 -0.00000000000E+00 -0.41864516583E+03  0.41864516583E+03  0.00000000000E+00 0. -1.
          6    1    1    2  501    0 -0.90469880982E+02 -0.51430653825E+02 -0.58649851908E+02  0.21023490825E+03  0.17300000000E+03 0. -1.
         -6    1    1    2    0  503  0.90469880982E+02  0.51430653825E+02 -0.24834906302E+03  0.32005650848E+03  0.17300000000E+03 0. -1.
</event>
<event>
 4    1  0.6239288E+000  0.1000000E+03  0.7546771E-02  0.1280296E+00
         21   -1    0    0  503  502  0.00000000000E+00  0.00000000000E+00  0.15663638114E+03  0.15663638114E+03  0.00000000000E+00 0. -1.
         21   -1    0    0  501  503 -0.00000000000E+00 -0.00000000000E+00 -0.20745641371E+03  0.20745641371E+03  0.00000000000E+00 0. -1.
          6    1    1    2  501    0 -0.98300465474E+01 -0.42715344818E+02 -0.51057767593E+02  0.18562630775E+03  0.17300000000E+03 0.  1.
         -6    1    1    2    0  502  0.98300465474E+01  0.42715344818E+02  0.23773502858E+00  0.17846648709E+03  0.17300000000E+03 0.  1.
</event>
<event>
 4    1  0.6239288E+000  0.1000000E+03  0.7546771E-02  0.1280296E+00
         21   -1    0    0  503  502  0.00000000000E+00  0.00000000000E+00  0.57645219429E+03  0.57645219429E+03  0.00000000000E+00 0. -1.
         21   -1    0    0  501  503 -0.00000000000E+00 -0.00000000000E+00 -0.16989743968E+03  0.16989743968E+03  0.00000000000E+00 0. -1.
          6    1    1    2  501    0 -0.84944150835E+02 -0.16961203331E+03 -0.10116444285E+02  0.25693402471E+03  0.17300000000E+03 0.  1.
         -6    1    1    2    0  502  0.84944150835E+02  0.16961203331E+03  0.41667119889E+03  0.48941560927E+03  0.17300000000E+03 0.  1.
</event>
<event>
 4    1  0.6239288E+000  0.1000000E+03  0.7546771E-02  0.1280296E+00
         21   -1    0    0  503  502  0.00000000000E+00  0.00000000000E+00  0.19136217954E+04  0.19136217954E+04  0.00000000000E+00 0. -1.
         21   -1    0    0  501  503 -0.00000000000E+00 -0.00000000000E+00 -0.40717616225E+02  0.40717616225E+02  0.00000000000E+00 0. -1.
          6    1    1    2  501    0  0.20047703619E+03 -0.76549797830E+02  0.78233509138E+03  0.82947459804E+03  0.17300000000E+03 0.  1.
         -6    1    1    2    0  502 -0.20047703619E+03  0.76549797830E+02  0.10905690878E+04  0.11248648136E+04  0.17300000000E+03 0.  1.
</event>
<event>
 4    1  0.6239288E+000  0.1000000E+03  0.7546771E-02  0.1280296E+00
         21   -1    0    0  503  502  0.00000000000E+00  0.00000000000E+00  0.14207297312E+04  0.14207297312E+04  0.00000000000E+00 0. -1.
         21   -1    0    0  501  503 -0.00000000000E+00 -0.00000000000E+00 -0.22822522450E+03  0.22822522450E+03  0.00000000000E+00 0. -1.
          6    1    1    2  501    0 -0.24816572423E+03  0.25435176102E+03  0.27220589645E+01  0.39524353837E+03  0.17300000000E+03 0.  1.
         -6    1    1    2    0  502  0.24816572423E+03 -0.25435176102E+03  0.11897824478E+04  0.12537114174E+04  0.17300000000E+03 0.  1.
</event>
<event>
 4    1  0.6239288E+000  0.1000000E+03  0.7546771E-02  0.1280296E+00
         21   -1    0    0  501  502  0.00000000000E+00  0.00000000000E+00  0.20863034944E+02  0.20863034944E+02  0.00000000000E+00 0.  1.
         21   -1    0    0  502  503 -0.00000000000E+00 -0.00000000000E+00 -0.17319832527E+04  0.17319832527E+04  0.00000000000E+00 0. -1.
          6    1    1    2  501    0  0.39842758566E+02  0.58335851384E+02 -0.69485661013E+03  0.71954515189E+03  0.17300000000E+03 0.  1.
         -6    1    1    2    0  503 -0.39842758566E+02 -0.58335851384E+02 -0.10162636077E+04  0.10333011358E+04  0.17300000000E+03 0. -1.
</event>
<event>
 4    1  0.6239288E+000  0.1000000E+03  0.7546771E-02  0.1280296E+00
         21   -1    0    0  503  502  0.00000000000E+00  0.00000000000E+00  0.78270950259E+03  0.78270950259E+03  0.00000000000E+00 0.  1.
         21   -1    0    0  501  503 -0.00000000000E+00 -0.00000000000E+00 -0.18147401440E+03  0.18147401440E+03  0.00000000000E+00 0.  1.
          6    1    1    2  501    0  0.13970604215E+03  0.10373519465E+03 -0.65303973878E+02  0.25391411506E+03  0.17300000000E+03 0.  1.
         -6    1    1    2    0  502 -0.13970604215E+03 -0.10373519465E+03  0.66653946207E+03  0.71026940193E+03  0.17300000000E+03 0.  1.
</event>
<event>
 4    1  0.6239288E+000  0.1000000E+03  0.7546771E-02  0.1280296E+00
         21   -1    0    0  503  502  0.00000000000E+00  0.00000000000E+00  0.81402753160E+03  0.81402753160E+03  0.00000000000E+00 0.  1.
         21   -1    0    0  501  503 -0.00000000000E+00 -0.00000000000E+00 -0.54924353430E+02  0.54924353430E+02  0.00000000000E+00 0.  1.
          6    1    1    2  501    0  0.25135639596E+02  0.10685904754E+03  0.27218546903E+03  0.34068252959E+03  0.17300000000E+03 0.  1.
         -6    1    1    2    0  502 -0.25135639596E+02 -0.10685904754E+03  0.48691770914E+03  0.52826935544E+03  0.17300000000E+03 0.  1.
</event>
<event>
 4    1  0.6239288E+000  0.1000000E+03  0.7546771E-02  0.1280296E+00
         21   -1    0    0  503  502  0.00000000000E+00  0.00000000000E+00  0.21396774583E+03  0.21396774583E+03  0.00000000000E+00 0.  1.
         21   -1    0    0  501  503 -0.00000000000E+00 -0.00000000000E+00 -0.19289808946E+03  0.19289808946E+03  0.00000000000E+00 0.  1.
          6    1    1    2  501    0 -0.18769180547E+02  0.10247350555E+03 -0.11673064422E+02  0.20228287597E+03  0.17300000000E+03 0.  1.
         -6    1    1    2    0  502  0.18769180547E+02 -0.10247350555E+03  0.32742720791E+02  0.20458295932E+03  0.17300000000E+03 0.  1.
</event>
<event>
 4    1  0.6239288E+000  0.1000000E+03  0.7546771E-02  0.1280296E+00
         21   -1    0    0  503  502  0.00000000000E+00  0.00000000000E+00  0.31424286669E+03  0.31424286669E+03  0.00000000000E+00 0.  1.
         21   -1    0    0  501  503 -0.00000000000E+00 -0.00000000000E+00 -0.20936269747E+03  0.20936269747E+03  0.00000000000E+00 0.  1.
          6    1    1    2  501    0  0.15561220542E+02  0.32729202293E+02 -0.13727669629E+03  0.22380179537E+03  0.17300000000E+03 0.  1.
         -6    1    1    2    0  502 -0.15561220542E+02 -0.32729202293E+02  0.24215686551E+03  0.29980376879E+03  0.17300000000E+03 0.  1.
</event>
<event>
 4    1  0.6239288E+000  0.1000000E+03  0.7546771E-02  0.1280296E+00
         21   -1    0    0  501  502  0.00000000000E+00  0.00000000000E+00  0.86676686729E+03  0.86676686729E+03  0.00000000000E+00 0. -1.
         21   -1    0    0  502  503 -0.00000000000E+00 -0.00000000000E+00 -0.10459077007E+03  0.10459077007E+03  0.00000000000E+00 0.  1.
          6    1    1    2  501    0  0.14833935829E+03  0.19253734090E+03  0.44664316082E+03  0.53711665955E+03  0.17300000000E+03 0.  1.
         -6    1    1    2    0  503 -0.14833935829E+03 -0.19253734090E+03  0.31553293640E+03  0.43424097781E+03  0.17300000000E+03 0. -1.
</event>
<event>
 4    1  0.6239288E+000  0.1000000E+03  0.7546771E-02  0.1280296E+00
         21   -1    0    0  503  502  0.00000000000E+00  0.00000000000E+00  0.38176519771E+03  0.38176519771E+03  0.00000000000E+00 0. -1.
         21   -1    0    0  501  503 -0.00000000000E+00 -0.00000000000E+00 -0.17005936893E+03  0.17005936893E+03  0.00000000000E+00 0.  1.
          6    1    1    2  501    0  0.89138292113E+02  0.27107181408E+02 -0.69802023127E+02  0.20852279692E+03  0.17300000000E+03 0.  1.
         -6    1    1    2    0  502 -0.89138292113E+02 -0.27107181408E+02  0.28150785190E+03  0.34330176971E+03  0.17300000000E+03 0. -1.
</event>
<event>
 4    1  0.6239288E+000  0.1000000E+03  0.7546771E-02  0.1280296E+00
         21   -1    0    0  503  502  0.00000000000E+00  0.00000000000E+00  0.32193124014E+03  0.32193124014E+03  0.00000000000E+00 0. -1.
         21   -1    0    0  501  503 -0.00000000000E+00 -0.00000000000E+00 -0.14139242808E+03  0.14139242808E+03  0.00000000000E+00 0.  1.
          6    1    1    2  501    0  0.16618186077E+02  0.36870382134E+02 -0.37996135351E+02  0.18168185239E+03  0.17300000000E+03 0.  1.
         -6    1    1    2    0  502 -0.16618186077E+02 -0.36870382134E+02  0.21853494741E+03  0.28164181583E+03  0.17300000000E+03 0. -1.
</event>
<event>
 4    1  0.6239288E+000  0.1000000E+03  0.7546771E-02  0.1280296E+00
         21   -1    0    0  503  502  0.00000000000E+00  0.00000000000E+00  0.20982492876E+03  0.20982492876E+03  0.00000000000E+00 0. -1.
         21   -1    0    0  501  503 -0.00000000000E+00 -0.00000000000E+00 -0.25508375048E+03  0.25508375048E+03  0.00000000000E+00 0.  1.
          6    1    1    2  501    0 -0.98959271113E+02  0.46968429297E+01 -0.14057331493E+03  0.24393616899E+03  0.17300000000E+03 0.  1.
         -6    1    1    2    0  502  0.98959271113E+02 -0.46968429297E+01  0.95314493208E+02  0.22097251025E+03  0.17300000000E+03 0. -1.
</event>
<event>
 4    1  0.6239288E+000  0.1000000E+03  0.7546771E-02  0.1280296E+00
         21   -1    0    0  501  502  0.00000000000E+00  0.00000000000E+00  0.53650933005E+03  0.53650933005E+03  0.00000000000E+00 0.  1.
         21   -1    0    0  502  503 -0.00000000000E+00 -0.00000000000E+00 -0.82964004778E+02  0.82964004778E+02  0.00000000000E+00 0.  1.
          6    1    1    2  501    0 -0.43285296827E+02 -0.61526843833E+02  0.36545129227E+03  0.41126976117E+03  0.17300000000E+03 0.  1.
         -6    1    1    2    0  503  0.43285296827E+02  0.61526843833E+02  0.88094033007E+02  0.20820357366E+03  0.17300000000E+03 0.  1.
</event>
<event>
 4    1  0.6239288E+000  0.1000000E+03  0.7546771E-02  0.1280296E+00
         21   -1    0    0  501  502  0.00000000000E+00  0.00000000000E+00  0.14396949704E+04  0.14396949704E+04  0.00000000000E+00 0.  1.
         21   -1    0    0  502  503 -0.00000000000E+00 -0.00000000000E+00 -0.43445083995E+02  0.43445083995E+02  0.00000000000E+00 0.  1.
          6    1    1    2  501    0 -0.15415936307E+03  0.94036026805E+02  0.68838707599E+03  0.73240265562E+03  0.17300000000E+03 0.  1.
         -6    1    1    2    0  503  0.15415936307E+03 -0.94036026805E+02  0.70786281042E+03  0.75073739879E+03  0.17300000000E+03 0.  1.
</event>
<event>
 4    1  0.6239288E+000  0.1000000E+03  0.7546771E-02  0.1280296E+00
         21   -1    0    0  501  502  0.00000000000E+00  0.00000000000E+00  0.28301629547E+03  0.28301629547E+03  0.00000000000E+00 0.  1.
         21   -1    0    0  502  503 -0.00000000000E+00 -0.00000000000E+00 -0.45173814164E+03  0.45173814164E+03  0.00000000000E+00 0. -1.
          6    1    1    2  501    0 -0.66801402869E+02 -0.17727024372E+03  0.17154175029E+03  0.30861422331E+03  0.17300000000E+03 0. -1.
         -6    1    1    2    0  503  0.66801402869E+02  0.17727024372E+03 -0.34026359647E+03  0.42614021380E+03  0.17300000000E+03 0. -1.
</event>
<event>
 4    1  0.6239288E+000  0.1000000E+03  0.7546771E-02  0.1280296E+00
         21   -1    0    0  501  502  0.00000000000E+00  0.00000000000E+00  0.33510412262E+02  0.33510412262E+02  0.00000000000E+00 0.  1.
         21   -1    0    0  502  503 -0.00000000000E+00 -0.00000000000E+00 -0.92494403882E+03  0.92494403882E+03  0.00000000000E+00 0. -1.
          6    1    1    2  501    0  0.18134380388E+02 -0.16390896015E+02 -0.38678370642E+03  0.42441507133E+03  0.17300000000E+03 0. -1.
         -6    1    1    2    0  503 -0.18134380388E+02  0.16390896015E+02 -0.50464992015E+03  0.53403937975E+03  0.17300000000E+03 0. -1.
</event>
<event>
 4    1  0.6239288E+000  0.1000000E+03  0.7546771E-02  0.1280296E+00
         21   -1    0    0  503  502  0.00000000000E+00  0.00000000000E+00  0.60690086008E+03  0.60690086008E+03  0.00000000000E+00 0.  1.
         21   -1    0    0  501  503 -0.00000000000E+00 -0.00000000000E+00 -0.69032888113E+02  0.69032888113E+02  0.00000000000E+00 0.  1.
          6    1    1    2  501    0  0.90600399254E+02  0.46949698077E+02  0.33403239898E+03  0.38976832871E+03  0.17300000000E+03 0.  1.
         -6    1    1    2    0  502 -0.90600399254E+02 -0.46949698077E+02  0.20383557299E+03  0.28616541949E+03  0.17300000000E+03 0.  1.
</event>
<event>
 4    1  0.6239288E+000  0.1000000E+03  0.7546771E-02  0.1280296E+00
         21   -1    0    0  503  502  0.00000000000E+00  0.00000000000E+00  0.92550923648E+02  0.92550923648E+02  0.00000000000E+00 0.  1.
         21   -1    0    0  501  503 -0.00000000000E+00 -0.00000000000E+00 -0.93304611001E+03  0.93304611001E+03  0.00000000000E+00 0.  1.
          6    1    1    2  501    0  0.48746428162E+02 -0.80051233165E+02 -0.80113327584E+03  0.82494117356E+03  0.17300000000E+03 0.  1.
         -6    1    1    2    0  502 -0.48746428162E+02  0.80051233165E+02 -0.39361910525E+02  0.20065586009E+03  0.17300000000E+03 0.  1.
</event>
<event>
 4    1  0.6239288E+000  0.1000000E+03  0.7546771E-02  0.1280296E+00
         21   -1    0    0  501  502  0.00000000000E+00  0.00000000000E+00  0.35499429240E+03  0.35499429240E+03  0.00000000000E+00 0. -1.
         21   -1    0    0  502  503 -0.00000000000E+00 -0.00000000000E+00 -0.93164155854E+02  0.93164155854E+02  0.00000000000E+00 0.  1.
          6    1    1    2  501    0  0.38076127731E+02 -0.40874872817E+02  0.12498061088E+03  0.22061210263E+03  0.17300000000E+03 0. -1.
         -6    1    1    2    0  503 -0.38076127731E+02  0.40874872817E+02  0.13684952566E+03  0.22754634562E+03  0.17300000000E+03 0.  1.
</event>
<event>
 4    1  0.6239288E+000  0.1000000E+03  0.7546771E-02  0.1280296E+00
         21   -1    0    0  503  502  0.00000000000E+00  0.00000000000E+00  0.39864403566E+03  0.39864403566E+03  0.00000000000E+00 0.  1.
         21   -1    0    0  501  503 -0.00000000000E+00 -0.00000000000E+00 -0.30021073419E+03  0.30021073419E+03  0.00000000000E+00 0.  1.
          6    1    1    2  501    0  0.17777077843E+03 -0.16245843701E+03 -0.13077143101E+03  0.32407616479E+03  0.17300000000E+03 0.  1.
         -6    1    1    2    0  502 -0.17777077843E+03  0.16245843701E+03  0.22920473247E+03  0.37477860506E+03  0.17300000000E+03 0.  1.
</event>
<event>
 4    1  0.6239288E+000  0.1000000E+03  0.7546771E-02  0.1280296E+00
         21   -1    0    0  503  502  0.00000000000E+00  0.00000000000E+00  0.97484908577E+03  0.97484908577E+03  0.00000000000E+00 0.  1.
         21   -1    0    0  501  503 -0.00000000000E+00 -0.00000000000E+00 -0.58077132982E+02  0.58077132982E+02  0.00000000000E+00 0.  1.
          6    1    1    2  501    0 -0.26853508008E+02  0.62679756222E+02  0.13616786288E+03  0.23047895699E+03  0.17300000000E+03 0.  1.
         -6    1    1    2    0  502  0.26853508008E+02 -0.62679756222E+02  0.78060408991E+03  0.80244726177E+03  0.17300000000E+03 0.  1.
</event>
<event>
 4    1  0.6239288E+000  0.1000000E+03  0.7546771E-02  0.1280296E+00
         21   -1    0    0  501  502  0.00000000000E+00  0.00000000000E+00  0.41038354104E+03  0.41038354104E+03  0.00000000000E+00 0.  1.
         21   -1    0    0  502  503 -0.00000000000E+00 -0.00000000000E+00 -0.19788871936E+03  0.19788871936E+03  0.00000000000E+00 0.  1.
          6    1    1    2  501    0 -0.82691454524E+02  0.20982243292E+03  0.12806572815E+03  0.31175817669E+03  0.17300000000E+03 0.  1.
         -6    1    1    2    0  503  0.82691454524E+02 -0.20982243292E+03  0.84429093527E+02  0.29651408371E+03  0.17300000000E+03 0.  1.
</event>
<event>
 4    1  0.6239288E+000  0.1000000E+03  0.7546771E-02  0.1280296E+00
         21   -1    0    0  501  502  0.00000000000E+00  0.00000000000E+00  0.13486073489E+03  0.13486073489E+03  0.00000000000E+00 0.  1.
         21   -1    0    0  502  503 -0.00000000000E+00 -0.00000000000E+00 -0.85490653518E+03  0.85490653518E+03  0.00000000000E+00 0.  1.
          6    1    1    2  501    0 -0.25511796916E+03 -0.97211860825E+02 -0.20835447385E+03  0.38454637022E+03  0.17300000000E+03 0.  1.
         -6    1    1    2    0  503  0.25511796916E+03  0.97211860825E+02 -0.51169132643E+03  0.60522089986E+03  0.17300000000E+03 0.  1.
</event>
<event>
 4    1  0.6239288E+000  0.1000000E+03  0.7546771E-02  0.1280296E+00
         21   -1    0    0  501  502  0.00000000000E+00  0.00000000000E+00  0.26349931259E+03  0.26349931259E+03  0.00000000000E+00 0. -1.
         21   -1    0    0  502  503 -0.00000000000E+00 -0.00000000000E+00 -0.16250739418E+03  0.16250739418E+03  0.00000000000E+00 0. -1.
          6    1    1    2  501    0  0.37055659190E+02  0.59491684055E+01  0.16079943086E+03  0.23915261121E+03  0.17300000000E+03 0. -1.
         -6    1    1    2    0  503 -0.37055659190E+02 -0.59491684055E+01 -0.59807512451E+02  0.18685409556E+03  0.17300000000E+03 0. -1.
</event>
<event>
 4    1  0.6239288E+000  0.1000000E+03  0.7546771E-02  0.1280296E+00
         21   -1    0    0  501  502  0.00000000000E+00  0.00000000000E+00  0.43137847665E+03  0.43137847665E+03  0.00000000000E+00 0. -1.
         21   -1    0    0  502  503 -0.00000000000E+00 -0.00000000000E+00 -0.12303881538E+03  0.12303881538E+03  0.00000000000E+00 0. -1.
          6    1    1    2  501    0 -0.10909863564E+01  0.67254452400E+02  0.31837266398E+03  0.36853019522E+03  0.17300000000E+03 0. -1.
         -6    1    1    2    0  503  0.10909863564E+01 -0.67254452400E+02 -0.10033002713E+02  0.18588709682E+03  0.17300000000E+03 0. -1.
</event>
<event>
 4    1  0.6239288E+000  0.1000000E+03  0.7546771E-02  0.1280296E+00
         21   -1    0    0  501  502  0.00000000000E+00  0.00000000000E+00  0.65081856780E+03  0.65081856780E+03  0.00000000000E+00 0. -1.
         21   -1    0    0  502  503 -0.00000000000E+00 -0.00000000000E+00 -0.13695990335E+03  0.13695990335E+03  0.00000000000E+00 0. -1.
          6    1    1    2  501    0 -0.13900164974E+03  0.38895626729E+02  0.51536872702E+03  0.56246622405E+03  0.17300000000E+03 0. -1.
         -6    1    1    2    0  503  0.13900164974E+03 -0.38895626729E+02 -0.15100625697E+01  0.22531224711E+03  0.17300000000E+03 0. -1.
</event>
<event>
 4    1  0.6239288E+000  0.1000000E+03  0.7546771E-02  0.1280296E+00
         21   -1    0    0  501  502  0.00000000000E+00  0.00000000000E+00  0.40184563473E+03  0.40184563473E+03  0.00000000000E+00 0.  1.
         21   -1    0    0  502  503 -0.00000000000E+00 -0.00000000000E+00 -0.10020379286E+03  0.10020379286E+03  0.00000000000E+00 0. -1.
          6    1    1    2  501    0 -0.13395323931E+02 -0.11206707081E+02  0.27612000029E+03  0.32630703263E+03  0.17300000000E+03 0.  1.
         -6    1    1    2    0  503  0.13395323931E+02  0.11206707081E+02  0.25521841585E+02  0.17574239496E+03  0.17300000000E+03 0. -1.
</event>
<event>
 4    1  0.6239288E+000  0.1000000E+03  0.7546771E-02  0.1280296E+00
         21   -1    0    0  503  502  0.00000000000E+00  0.00000000000E+00  0.47939306395E+02  0.47939306395E+02  0.00000000000E+00 0.  1.
         21   -1    0    0  501  503 -0.00000000000E+00 -0.00000000000E+00 -0.25629765883E+04  0.25629765883E+04  0.00000000000E+00 0. -1.
          6    1    1    2  501    0 -0.71829082169E+02 -0.25320811837E+03 -0.18304384449E+04  0.18573388675E+04  0.17300000000E+03 0. -1.
         -6    1    1    2    0  502  0.71829082169E+02  0.25320811837E+03 -0.68459883703E+03  0.75357702719E+03  0.17300000000E+03 0.  1.
</event>
<event>
 4    1  0.6239288E+000  0.1000000E+03  0.7546771E-02  0.1280296E+00
         21   -1    0    0  503  502  0.00000000000E+00  0.00000000000E+00  0.20173159718E+03  0.20173159718E+03  0.00000000000E+00 0.  1.
         21   -1    0    0  501  503 -0.00000000000E+00 -0.00000000000E+00 -0.38408756093E+03  0.38408756093E+03  0.00000000000E+00 0. -1.
          6    1    1    2  501    0 -0.13162507451E+03 -0.96804958746E+02 -0.24314868627E+03  0.34021558446E+03  0.17300000000E+03 0. -1.
         -6    1    1    2    0  502  0.13162507451E+03  0.96804958746E+02  0.60792722527E+02  0.24560357365E+03  0.17300000000E+03 0.  1.
</event>
<event>
 4    1  0.6239288E+000  0.1000000E+03  0.7546771E-02  0.1280296E+00
         21   -1    0    0  501  502  0.00000000000E+00  0.00000000000E+00  0.26758596453E+03  0.26758596453E+03  0.00000000000E+00 0.  1.
         21   -1    0    0  502  503 -0.00000000000E+00 -0.00000000000E+00 -0.35265225130E+03  0.35265225130E+03  0.00000000000E+00 0. -1.
          6    1    1    2  501    0 -0.20668337530E+03  0.14732584565E+03 -0.46154900203E+02  0.31061583546E+03  0.17300000000E+03 0.  1.
         -6    1    1    2    0  503  0.20668337530E+03 -0.14732584565E+03 -0.38911386562E+02  0.30962238037E+03  0.17300000000E+03 0. -1.
</event>
<event>
 4    1  0.6239288E+000  0.1000000E+03  0.7546771E-02  0.1280296E+00
         21   -1    0    0  501  502  0.00000000000E+00  0.00000000000E+00  0.63699059354E+03  0.63699059354E+03  0.00000000000E+00 0.  1.
         21   -1    0    0  502  503 -0.00000000000E+00 -0.00000000000E+00 -0.15291637849E+03  0.15291637849E+03  0.00000000000E+00 0. -1.
          6    1    1    2  501    0  0.69464472403E+02  0.17548275859E+03  0.46790797307E+03  0.53337264905E+03  0.17300000000E+03 0.  1.
         -6    1    1    2    0  503 -0.69464472403E+02 -0.17548275859E+03  0.16166241973E+02  0.25653432298E+03  0.17300000000E+03 0. -1.
</event>
<event>
 4    1  0.6239288E+000  0.1000000E+03  0.7546771E-02  0.1280296E+00
         21   -1    0    0  503  502  0.00000000000E+00  0.00000000000E+00  0.19040463772E+04  0.19040463772E+04  0.00000000000E+00 0. -1.
         21   -1    0    0  501  503 -0.00000000000E+00 -0.00000000000E+00 -0.43500361153E+02  0.43500361153E+02  0.00000000000E+00 0.  1.
          6    1    1    2  501    0  0.95847597134E+02 -0.90487066076E+02  0.29255640085E+03  0.36454481025E+03  0.17300000000E+03 0.  1.
         -6    1    1    2    0  502 -0.95847597134E+02  0.90487066076E+02  0.15679896152E+04  0.15830019281E+04  0.17300000000E+03 0. -1.
</event>
<event>
 4    1  0.6239288E+000  0.1000000E+03  0.7546771E-02  0.1280296E+00
         21   -1    0    0  503  502  0.00000000000E+00  0.00000000000E+00  0.97600956132E+02  0.97600956132E+02  0.00000000000E+00 0. -1.
         21   -1    0    0  501  503 -0.00000000000E+00 -0.00000000000E+00 -0.49808706234E+03  0.49808706234E+03  0.00000000000E+00 0.  1.
          6    1    1    2  501    0 -0.39903560232E+02 -0.14681186668E+01 -0.37684047170E+03  0.41657195129E+03  0.17300000000E+03 0.  1.
         -6    1    1    2    0  502  0.39903560232E+02  0.14681186668E+01 -0.23645634510E+02  0.17911606718E+03  0.17300000000E+03 0. -1.
</event>
<event>
 4    1  0.6239288E+000  0.1000000E+03  0.7546771E-02  0.1280296E+00
         21   -1    0    0  503  502  0.00000000000E+00  0.00000000000E+00  0.31641403505E+02  0.31641403505E+02  0.00000000000E+00 0.  1.
         21   -1    0    0  501  503 -0.00000000000E+00 -0.00000000000E+00 -0.12370600151E+04  0.12370600151E+04  0.00000000000E+00 0.  1.
          6    1    1    2  501    0 -0.41007886726E+02  0.20774492803E+02 -0.87287989183E+03  0.89104519071E+03  0.17300000000E+03 0. -1.
         -6    1    1    2    0  502  0.41007886726E+02 -0.20774492803E+02 -0.33253871975E+03  0.37765622788E+03  0.17300000000E+03 0. -1.
</event>
<event>
 4    1  0.6239288E+000  0.1000000E+03  0.7546771E-02  0.1280296E+00
         21   -1    0    0  503  502  0.00000000000E+00  0.00000000000E+00  0.62454186288E+02  0.62454186288E+02  0.00000000000E+00 0.  1.
         21   -1    0    0  501  503 -0.00000000000E+00 -0.00000000000E+00 -0.59078846533E+03  0.59078846533E+03  0.00000000000E+00 0.  1.
          6    1    1    2  501    0 -0.65404894334E+02  0.19390211703E+02 -0.34597028486E+03  0.39278266066E+03  0.17300000000E+03 0. -1.
         -6    1    1    2    0  502  0.65404894334E+02 -0.19390211703E+02 -0.18236399418E+03  0.26045999095E+03  0.17300000000E+03 0. -1.
</event>
<event>
 4    1  0.6239288E+000  0.1000000E+03  0.7546771E-02  0.1280296E+00
         21   -1    0    0  503  502  0.00000000000E+00  0.00000000000E+00  0.13259658480E+03  0.13259658480E+03  0.00000000000E+00 0.  1.
         21   -1    0    0  501  503 -0.00000000000E+00 -0.00000000000E+00 -0.32878210686E+03  0.32878210686E+03  0.00000000000E+00 0.  1.
          6    1    1    2  501    0 -0.53509928796E+02  0.93484109749E+02 -0.14828543996E+03  0.25203206732E+03  0.17300000000E+03 0. -1.
         -6    1    1    2    0  502  0.53509928796E+02 -0.93484109749E+02 -0.47900082104E+02  0.20934662434E+03  0.17300000000E+03 0. -1.
</event>
<event>
 4    1  0.6239288E+000  0.1000000E+03  0.7546771E-02  0.1280296E+00
         21   -1    0    0  503  502  0.00000000000E+00  0.00000000000E+00  0.21234344435E+03  0.21234344435E+03  0.00000000000E+00 0.  1.
         21   -1    0    0  501  503 -0.00000000000E+00 -0.00000000000E+00 -0.35810227642E+03  0.35810227642E+03  0.00000000000E+00 0.  1.
          6    1    1    2  501    0  0.10954726727E+03 -0.20789878400E+02 -0.26269854454E+03  0.33372495878E+03  0.17300000000E+03 0. -1.
         -6    1    1    2    0  502 -0.10954726727E+03  0.20789878400E+02  0.11693971247E+03  0.23672076200E+03  0.17300000000E+03 0. -1.
</event>
<event>
 4    1  0.6239288E+000  0.1000000E+03  0.7546771E-02  0.1280296E+00
         21   -1    0    0  501  502  0.00000000000E+00  0.00000000000E+00  0.15245455835E+03  0.15245455835E+03  0.00000000000E+00 0.  1.
         21   -1    0    0  502  503 -0.00000000000E+00 -0.00000000000E+00 -0.23389721187E+03  0.23389721187E+03  0.00000000000E+00 0. -1.
          6    1    1    2  501    0  0.33504815777E+02 -0.45805683433E+02  0.10519637540E+02  0.18237432958E+03  0.17300000000E+03 0.  1.
         -6    1    1    2    0  503 -0.33504815777E+02  0.45805683433E+02 -0.91962291054E+02  0.20397744064E+03  0.17300000000E+03 0. -1.
</event>
<event>
 4    1  0.6239288E+000  0.1000000E+03  0.7546771E-02  0.1280296E+00
         21   -1    0    0  501  502  0.00000000000E+00  0.00000000000E+00  0.32155867386E+03  0.32155867386E+03  0.00000000000E+00 0.  1.
         21   -1    0    0  502  503 -0.00000000000E+00 -0.00000000000E+00 -0.58551836553E+03  0.58551836553E+03  0.00000000000E+00 0. -1.
          6    1    1    2  501    0  0.15783221224E+03  0.13488843012E+03  0.22285171057E+03  0.35028242991E+03  0.17300000000E+03 0.  1.
         -6    1    1    2    0  503 -0.15783221224E+03 -0.13488843012E+03 -0.48681140224E+03  0.55679460949E+03  0.17300000000E+03 0. -1.
</event>
<event>
 4    1  0.6239288E+000  0.1000000E+03  0.7546771E-02  0.1280296E+00
         21   -1    0    0  501  502  0.00000000000E+00  0.00000000000E+00  0.38511858779E+03  0.38511858779E+03  0.00000000000E+00 0.  1.
         21   -1    0    0  502  503 -0.00000000000E+00 -0.00000000000E+00 -0.10087141505E+03  0.10087141505E+03  0.00000000000E+00 0. -1.
          6    1    1    2  501    0 -0.55644259258E+00 -0.89951653907E+02  0.10667257053E+03  0.22226031354E+03  0.17300000000E+03 0.  1.
         -6    1    1    2    0  503  0.55644259258E+00  0.89951653907E+02  0.17757460221E+03  0.26372968930E+03  0.17300000000E+03 0. -1.
</event>
<event>
 4    1  0.6239288E+000  0.1000000E+03  0.7546771E-02  0.1280296E+00
         21   -1    0    0  501  502  0.00000000000E+00  0.00000000000E+00  0.58982888694E+02  0.58982888694E+02  0.00000000000E+00 0.  1.
         21   -1    0    0  502  503 -0.00000000000E+00 -0.00000000000E+00 -0.68155401580E+03  0.68155401580E+03  0.00000000000E+00 0. -1.
          6    1    1    2  501    0  0.20547253498E+02 -0.99195258826E+02 -0.30570377542E+03  0.36557582976E+03  0.17300000000E+03 0.  1.
         -6    1    1    2    0  503 -0.20547253498E+02  0.99195258826E+02 -0.31686735169E+03  0.37496107473E+03  0.17300000000E+03 0. -1.
</event>
<event>
 4    1  0.6239288E+000  0.1000000E+03  0.7546771E-02  0.1280296E+00
         21   -1    0    0  501  502  0.00000000000E+00  0.00000000000E+00  0.49378697421E+02  0.49378697421E+02  0.00000000000E+00 0.  1.
         21   -1    0    0  502  503 -0.00000000000E+00 -0.00000000000E+00 -0.12171395594E+04  0.12171395594E+04  0.00000000000E+00 0. -1.
          6    1    1    2  501    0  0.13835884342E+03  0.72301596135E+02 -0.38713904785E+03  0.45185875307E+03  0.17300000000E+03 0.  1.
         -6    1    1    2    0  503 -0.13835884342E+03 -0.72301596135E+02 -0.78062181408E+03  0.81465950370E+03  0.17300000000E+03 0. -1.
</event>
<event>
 4    1  0.6239288E+000  0.1000000E+03  0.7546771E-02  0.1280296E+00
         21   -1    0    0  501  502  0.00000000000E+00  0.00000000000E+00  0.13885271671E+03  0.13885271671E+03  0.00000000000E+00 0.  1.
         21   -1    0    0  502  503 -0.00000000000E+00 -0.00000000000E+00 -0.39644342242E+03  0.39644342242E+03  0.00000000000E+00 0. -1.
          6    1    1    2  501    0 -0.11050495997E+03  0.55272755654E+02 -0.15567152080E+02  0.21316134715E+03  0.17300000000E+03 0. -1.
         -6    1    1    2    0  503  0.11050495997E+03 -0.55272755654E+02 -0.24202355363E+03  0.32213479198E+03  0.17300000000E+03 0.  1.
</event>
<event>
 4    1  0.6239288E+000  0.1000000E+03  0.7546771E-02  0.1280296E+00
         21   -1    0    0  501  502  0.00000000000E+00  0.00000000000E+00  0.46661756576E+03  0.46661756576E+03  0.00000000000E+00 0.  1.
         21   -1    0    0  502  503 -0.00000000000E+00 -0.00000000000E+00 -0.21189362350E+03  0.21189362350E+03  0.00000000000E+00 0. -1.
          6    1    1    2  501    0 -0.13328186559E+03  0.17456057635E+03  0.28262404399E+03  0.39754345769E+03  0.17300000000E+03 0. -1.
         -6    1    1    2    0  503  0.13328186559E+03 -0.17456057635E+03 -0.27900101721E+02  0.28096773157E+03  0.17300000000E+03 0.  1.
</event>
<event>
 4    1  0.6239288E+000  0.1000000E+03  0.7546771E-02  0.1280296E+00
         21   -1    0    0  503  502  0.00000000000E+00  0.00000000000E+00  0.60544864814E+03  0.60544864814E+03  0.00000000000E+00 0.  1.
         21   -1    0    0  501  503 -0.00000000000E+00 -0.00000000000E+00 -0.11199062148E+03  0.11199062148E+03  0.00000000000E+00 0.  1.
          6    1    1    2  501    0 -0.17476680137E+03  0.38660888252E+01  0.12888763942E+03  0.27766779629E+03  0.17300000000E+03 0.  1.
         -6    1    1    2    0  502  0.17476680137E+03 -0.38660888252E+01  0.36457038724E+03  0.43977147333E+03  0.17300000000E+03 0.  1.
</event>
<event>
 4    1  0.6239288E+000  0.1000000E+03  0.7546771E-02  0.1280296E+00
         21   -1    0    0  503  502  0.00000000000E+00  0.00000000000E+00  0.34309504441E+03  0.34309504441E+03  0.00000000000E+00 0.  1.
         21   -1    0    0  501  503 -0.00000000000E+00 -0.00000000000E+00 -0.31910125728E+03  0.31910125728E+03  0.00000000000E+00 0.  1.
          6    1    1    2  501    0  0.14322877383E+02 -0.79554959677E+01 -0.26976338241E+03  0.32088894842E+03  0.17300000000E+03 0.  1.
         -6    1    1    2    0  502 -0.14322877383E+02  0.79554959677E+01  0.29375716954E+03  0.34130735326E+03  0.17300000000E+03 0.  1.
</event>
<event>
 4    1  0.6239288E+000  0.1000000E+03  0.7546771E-02  0.1280296E+00
         21   -1    0    0  503  502  0.00000000000E+00  0.00000000000E+00  0.16781403262E+03  0.16781403262E+03  0.00000000000E+00 0.  1.
         21   -1    0    0  501  503 -0.00000000000E+00 -0.00000000000E+00 -0.24033607567E+03  0.24033607567E+03  0.00000000000E+00 0.  1.
          6    1    1    2  501    0 -0.28973615365E+01 -0.86441426024E+02 -0.91192978847E+02  0.21383562432E+03  0.17300000000E+03 0.  1.
         -6    1    1    2    0  502  0.28973615365E+01  0.86441426024E+02  0.18670935793E+02  0.19431448397E+03  0.17300000000E+03 0.  1.
</event>
<event>
 4    1  0.6239288E+000  0.1000000E+03  0.7546771E-02  0.1280296E+00
         21   -1    0    0  503  502  0.00000000000E+00  0.00000000000E+00  0.16091515503E+03  0.16091515503E+03  0.00000000000E+00 0.  1.
         21   -1    0    0  501  503 -0.00000000000E+00 -0.00000000000E+00 -0.51633656429E+03  0.51633656429E+03  0.00000000000E+00 0.  1.
          6    1    1    2  501    0 -0.10449021328E+03  0.59940108617E+01 -0.41905005042E+03  0.46528064390E+03  0.17300000000E+03 0.  1.
         -6    1    1    2    0  502  0.10449021328E+03 -0.59940108617E+01  0.63628641150E+02  0.21197107541E+03  0.17300000000E+03 0.  1.
</event>
<event>
 4    1  0.6239288E+000  0.1000000E+03  0.7546771E-02  0.1280296E+00
         21   -1    0    0  503  502  0.00000000000E+00  0.00000000000E+00  0.19758315228E+04  0.19758315228E+04  0.00000000000E+00 0.  1.
         21   -1    0    0  501  503 -0.00000000000E+00 -0.00000000000E+00 -0.46317760042E+02  0.46317760042E+02  0.00000000000E+00 0.  1.
          6    1    1    2  501    0 -0.29744439972E+02  0.72704910446E+02  0.17797660195E+03  0.26033710176E+03  0.17300000000E+03 0.  1.
         -6    1    1    2    0  502  0.29744439972E+02 -0.72704910446E+02  0.17515371608E+04  0.17618121810E+04  0.17300000000E+03 0.  1.
</event>
<event>
 4    1  0.6239288E+000  0.1000000E+03  0.7546771E-02  0.1280296E+00
         21   -1    0    0  501  502  0.00000000000E+00  0.00000000000E+00  0.17867773532E+03  0.17867773532E+03  0.00000000000E+00 0.  1.
         21   -1    0    0  502  503 -0.00000000000E+00 -0.00000000000E+00 -0.77028091410E+03  0.77028091410E+03  0.00000000000E+00 0.  1.
          6    1    1    2  501    0  0.17097945139E+03 -0.52209831458E+02  0.56187626543E+02  0.25504095490E+03  0.17300000000E+03 0.  1.
         -6    1    1    2    0  503 -0.17097945139E+03  0.52209831458E+02 -0.64779080532E+03  0.69391769452E+03  0.17300000000E+03 0.  1.
</event>
<event>
 4    1  0.6239288E+000  0.1000000E+03  0.7546771E-02  0.1280296E+00
         21   -1    0    0  501  502  0.00000000000E+00  0.00000000000E+00  0.34357204610E+03  0.34357204610E+03  0.00000000000E+00 0.  1.
         21   -1    0    0  502  503 -0.00000000000E+00 -0.00000000000E+00 -0.18402989203E+03  0.18402989203E+03  0.00000000000E+00 0.  1.
          6    1    1    2  501    0 -0.58015656063E+02 -0.83496086548E+02  0.23874275751E+03  0.31187259752E+03  0.17300000000E+03 0.  1.
         -6    1    1    2    0  503  0.58015656063E+02  0.83496086548E+02 -0.79200603445E+02  0.21572934062E+03  0.17300000000E+03 0.  1.
</event>
<event>
 4    1  0.6239288E+000  0.1000000E+03  0.7546771E-02  0.1280296E+00
         21   -1    0    0  501  502  0.00000000000E+00  0.00000000000E+00  0.30856168656E+03  0.30856168656E+03  0.00000000000E+00 0.  1.
         21   -1    0    0  502  503 -0.00000000000E+00 -0.00000000000E+00 -0.17146754176E+03  0.17146754176E+03  0.00000000000E+00 0. -1.
          6    1    1    2  501    0 -0.11685375261E+03  0.93941048262E+02  0.91870064101E+02  0.24667555356E+03  0.17300000000E+03 0.  1.
         -6    1    1    2    0  503  0.11685375261E+03 -0.93941048262E+02  0.45224080695E+02  0.23335367476E+03  0.17300000000E+03 0. -1.
</event>
<event>
 4    1  0.6239288E+000  0.1000000E+03  0.7546771E-02  0.1280296E+00
         21   -1    0    0  503  502  0.00000000000E+00  0.00000000000E+00  0.11563149312E+04  0.11563149312E+04  0.00000000000E+00 0.  1.
         21   -1    0    0  501  503 -0.00000000000E+00 -0.00000000000E+00 -0.88599352012E+02  0.88599352012E+02  0.00000000000E+00 0. -1.
          6    1    1    2  501    0  0.11784656927E+03  0.82565291581E+02  0.91184316008E+02  0.24279295861E+03  0.17300000000E+03 0.  1.
         -6    1    1    2    0  502 -0.11784656927E+03 -0.82565291581E+02  0.97653126317E+03  0.10021213246E+04  0.17300000000E+03 0.  1.
</event>
<event>
 4    1  0.6239288E+000  0.1000000E+03  0.7546771E-02  0.1280296E+00
         21   -1    0    0  503  502  0.00000000000E+00  0.00000000000E+00  0.15451163703E+03  0.15451163703E+03  0.00000000000E+00 0.  1.
         21   -1    0    0  501  503 -0.00000000000E+00 -0.00000000000E+00 -0.25059379459E+03  0.25059379459E+03  0.00000000000E+00 0. -1.
          6    1    1    2  501    0  0.49234980463E+02  0.76358849039E+02 -0.24211612256E+02  0.19690088699E+03  0.17300000000E+03 0.  1.
         -6    1    1    2    0  502 -0.49234980463E+02 -0.76358849039E+02 -0.71870545304E+02  0.20820454464E+03  0.17300000000E+03 0.  1.
</event>
<event>
 4    1  0.6239288E+000  0.1000000E+03  0.7546771E-02  0.1280296E+00
         21   -1    0    0  503  502  0.00000000000E+00  0.00000000000E+00  0.15363818917E+04  0.15363818917E+04  0.00000000000E+00 0.  1.
         21   -1    0    0  501  503 -0.00000000000E+00 -0.00000000000E+00 -0.20032786880E+02  0.20032786880E+02  0.00000000000E+00 0. -1.
          6    1    1    2  501    0  0.25529224944E+02  0.12640578984E+02  0.73101601677E+03  0.75174792473E+03  0.17300000000E+03 0.  1.
         -6    1    1    2    0  502 -0.25529224944E+02 -0.12640578984E+02  0.78533308803E+03  0.80466675383E+03  0.17300000000E+03 0.  1.
</event>
<event>
 4    1  0.6239288E+000  0.1000000E+03  0.7546771E-02  0.1280296E+00
         21   -1    0    0  503  502  0.00000000000E+00  0.00000000000E+00  0.82201120947E+02  0.82201120947E+02  0.00000000000E+00 0. -1.
         21   -1    0    0  501  503 -0.00000000000E+00 -0.00000000000E+00 -0.84459834062E+03  0.84459834062E+03  0.00000000000E+00 0.  1.
          6    1    1    2  501    0 -0.19237153259E+01  0.19566399127E+03 -0.44237084688E+03  0.51372080387E+03  0.17300000000E+03 0. -1.
         -6    1    1    2    0  502  0.19237153259E+01 -0.19566399127E+03 -0.32002637280E+03  0.41307865770E+03  0.17300000000E+03 0. -1.
</event>
<event>
 4    1  0.6239288E+000  0.1000000E+03  0.7546771E-02  0.1280296E+00
         21   -1    0    0  503  502  0.00000000000E+00  0.00000000000E+00  0.34572141180E+03  0.34572141180E+03  0.00000000000E+00 0. -1.
         21   -1    0    0  501  503 -0.00000000000E+00 -0.00000000000E+00 -0.68255787363E+03  0.68255787363E+03  0.00000000000E+00 0.  1.
          6    1    1    2  501    0  0.24404918970E+02  0.10203044554E+03 -0.63584127867E+03  0.66725478159E+03  0.17300000000E+03 0. -1.
         -6    1    1    2    0  502 -0.24404918970E+02 -0.10203044554E+03  0.29900481684E+03  0.36102450385E+03  0.17300000000E+03 0. -1.
</event>
<event>
 4    1  0.6239288E+000  0.1000000E+03  0.7546771E-02  0.1280296E+00
         21   -1    0    0  501  502  0.00000000000E+00  0.00000000000E+00  0.11458632624E+03  0.11458632624E+03  0.00000000000E+00 0. -1.
         21   -1    0    0  502  503 -0.00000000000E+00 -0.00000000000E+00 -0.73083935423E+03  0.73083935423E+03  0.00000000000E+00 0. -1.
          6    1    1    2  501    0 -0.18919649113E+03  0.76150797787E+02 -0.14664589970E+03  0.30500537070E+03  0.17300000000E+03 0. -1.
         -6    1    1    2    0  503  0.18919649113E+03 -0.76150797787E+02 -0.46960712829E+03  0.54042030976E+03  0.17300000000E+03 0. -1.
</event>
<event>
 4    1  0.6239288E+000  0.1000000E+03  0.7546771E-02  0.1280296E+00
         21   -1    0    0  501  502  0.00000000000E+00  0.00000000000E+00  0.64165238638E+03  0.64165238638E+03  0.00000000000E+00 0. -1.
         21   -1    0    0  502  503 -0.00000000000E+00 -0.00000000000E+00 -0.93745390133E+02  0.93745390133E+02  0.00000000000E+00 0. -1.
          6    1    1    2  501    0  0.92139966534E+01 -0.59731324319E+01  0.53406996505E+03  0.56149826680E+03  0.17300000000E+03 0. -1.
         -6    1    1    2    0  503 -0.92139966534E+01  0.59731324319E+01  0.13837031190E+02  0.17389950971E+03  0.17300000000E+03 0. -1.
</event>
<event>
 4    1  0.6239288E+000  0.1000000E+03  0.7546771E-02  0.1280296E+00
         21   -1    0    0  503  502  0.00000000000E+00  0.00000000000E+00  0.51096469669E+03  0.51096469669E+03  0.00000000000E+00 0. -1.
         21   -1    0    0  501  503 -0.00000000000E+00 -0.00000000000E+00 -0.10603821428E+03  0.10603821428E+03  0.00000000000E+00 0. -1.
          6    1    1    2  501    0 -0.25789987464E+01  0.10337545666E+03  0.48131672569E+02  0.20721678064E+03  0.17300000000E+03 0.  1.
         -6    1    1    2    0  502  0.25789987464E+01 -0.10337545666E+03  0.35679480985E+03  0.40978613033E+03  0.17300000000E+03 0.  1.
</event>
<event>
 4    1  0.6239288E+000  0.1000000E+03  0.7546771E-02  0.1280296E+00
         21   -1    0    0  503  502  0.00000000000E+00  0.00000000000E+00  0.36241065564E+02  0.36241065564E+02  0.00000000000E+00 0. -1.
         21   -1    0    0  501  503 -0.00000000000E+00 -0.00000000000E+00 -0.10965693903E+04  0.10965693903E+04  0.00000000000E+00 0. -1.
          6    1    1    2  501    0  0.67610773376E+02 -0.33596019108E+02 -0.71235720219E+03  0.73694076606E+03  0.17300000000E+03 0.  1.
         -6    1    1    2    0  502 -0.67610773376E+02  0.33596019108E+02 -0.34797112256E+03  0.39586968981E+03  0.17300000000E+03 0.  1.
</event>
<event>
 4    1  0.6239288E+000  0.1000000E+03  0.7546771E-02  0.1280296E+00
         21   -1    0    0  501  502  0.00000000000E+00  0.00000000000E+00  0.63523057384E+03  0.63523057384E+03  0.00000000000E+00 0. -1.
         21   -1    0    0  502  503 -0.00000000000E+00 -0.00000000000E+00 -0.89842337271E+02  0.89842337271E+02  0.00000000000E+00 0. -1.
          6    1    1    2  501    0 -0.15653091819E+03 -0.51015529852E+02  0.26345234556E+03  0.35558494206E+03  0.17300000000E+03 0. -1.
         -6    1    1    2    0  503  0.15653091819E+03  0.51015529852E+02  0.28193589100E+03  0.36948796905E+03  0.17300000000E+03 0. -1.
</event>
<event>
 4    1  0.6239288E+000  0.1000000E+03  0.7546771E-02  0.1280296E+00
         21   -1    0    0  501  502  0.00000000000E+00  0.00000000000E+00  0.10424243040E+03  0.10424243040E+03  0.00000000000E+00 0. -1.
         21   -1    0    0  502  503 -0.00000000000E+00 -0.00000000000E+00 -0.43257321427E+03  0.43257321427E+03  0.00000000000E+00 0. -1.
          6    1    1    2  501    0 -0.62665579133E+02  0.94220844113E+02 -0.10277482793E+03  0.23085971396E+03  0.17300000000E+03 0. -1.
         -6    1    1    2    0  503  0.62665579133E+02 -0.94220844113E+02 -0.22555595594E+03  0.30595593070E+03  0.17300000000E+03 0. -1.
</event>
<event>
 4    1  0.6239288E+000  0.1000000E+03  0.7546771E-02  0.1280296E+00
         21   -1    0    0  501  502  0.00000000000E+00  0.00000000000E+00  0.13890673130E+03  0.13890673130E+03  0.00000000000E+00 0. -1.
         21   -1    0    0  502  503 -0.00000000000E+00 -0.00000000000E+00 -0.40087314565E+03  0.40087314565E+03  0.00000000000E+00 0. -1.
          6    1    1    2  501    0 -0.12022506703E+03  0.23486410496E+02 -0.12403148632E+02  0.21234056682E+03  0.17300000000E+03 0. -1.
         -6    1    1    2    0  503  0.12022506703E+03 -0.23486410496E+02 -0.24956326573E+03  0.32743931013E+03  0.17300000000E+03 0. -1.
</event>
<event>
 4    1  0.6239288E+000  0.1000000E+03  0.7546771E-02  0.1280296E+00
         21   -1    0    0  503  502  0.00000000000E+00  0.00000000000E+00  0.53381572258E+03  0.53381572258E+03  0.00000000000E+00 0. -1.
         21   -1    0    0  501  503 -0.00000000000E+00 -0.00000000000E+00 -0.19800209407E+03  0.19800209407E+03  0.00000000000E+00 0. -1.
          6    1    1    2  501    0 -0.30413135450E+02 -0.13107131329E+03 -0.10235890514E+03  0.24189045752E+03  0.17300000000E+03 0. -1.
         -6    1    1    2    0  502  0.30413135450E+02  0.13107131329E+03  0.43817253365E+03  0.48992735913E+03  0.17300000000E+03 0. -1.
</event>
<event>
 4    1  0.6239288E+000  0.1000000E+03  0.7546771E-02  0.1280296E+00
         21   -1    0    0  503  502  0.00000000000E+00  0.00000000000E+00  0.19801739026E+03  0.19801739026E+03  0.00000000000E+00 0. -1.
         21   -1    0    0  501  503 -0.00000000000E+00 -0.00000000000E+00 -0.25098803602E+03  0.25098803602E+03  0.00000000000E+00 0. -1.
          6    1    1    2  501    0  0.32721034949E+02 -0.72746967622E+02 -0.14309344303E+03  0.23825935630E+03  0.17300000000E+03 0. -1.
         -6    1    1    2    0  502 -0.32721034949E+02  0.72746967622E+02  0.90122797259E+02  0.21074606998E+03  0.17300000000E+03 0. -1.
</event>
<event>
 4    1  0.6239288E+000  0.1000000E+03  0.7546771E-02  0.1280296E+00
         21   -1    0    0  501  502  0.00000000000E+00  0.00000000000E+00  0.23241276073E+03  0.23241276073E+03  0.00000000000E+00 0.  1.
         21   -1    0    0  502  503 -0.00000000000E+00 -0.00000000000E+00 -0.29832542462E+03  0.29832542462E+03  0.00000000000E+00 0.  1.
          6    1    1    2  501    0  0.43469006389E+02 -0.17397870420E+03  0.52840070660E+02  0.25471399078E+03  0.17300000000E+03 0.  1.
         -6    1    1    2    0  503 -0.43469006389E+02  0.17397870420E+03 -0.11875273455E+03  0.27602419458E+03  0.17300000000E+03 0.  1.
</event>
<event>
 4    1  0.6239288E+000  0.1000000E+03  0.7546771E-02  0.1280296E+00
         21   -1    0    0  501  502  0.00000000000E+00  0.00000000000E+00  0.33339159462E+03  0.33339159462E+03  0.00000000000E+00 0.  1.
         21   -1    0    0  502  503 -0.00000000000E+00 -0.00000000000E+00 -0.89559799707E+03  0.89559799707E+03  0.00000000000E+00 0.  1.
          6    1    1    2  501    0 -0.29369063913E+03 -0.29618385470E+02  0.19802511602E+03  0.39531555351E+03  0.17300000000E+03 0.  1.
         -6    1    1    2    0  503  0.29369063913E+03  0.29618385470E+02 -0.76023151846E+03  0.83367403818E+03  0.17300000000E+03 0.  1.
</event>
<event>
 4    1  0.6239288E+000  0.1000000E+03  0.7546771E-02  0.1280296E+00
         21   -1    0    0  503  502  0.00000000000E+00  0.00000000000E+00  0.16775456466E+03  0.16775456466E+03  0.00000000000E+00 0. -1.
         21   -1    0    0  501  503 -0.00000000000E+00 -0.00000000000E+00 -0.19717201898E+03  0.19717201898E+03  0.00000000000E+00 0. -1.
          6    1    1    2  501    0 -0.37282192101E+01 -0.53216655401E+02 -0.32131896851E+02  0.18386780802E+03  0.17300000000E+03 0. -1.
         -6    1    1    2    0  502  0.37282192101E+01  0.53216655401E+02  0.27144425353E+01  0.18105877562E+03  0.17300000000E+03 0. -1.
</event>
<event>
 4    1  0.6239288E+000  0.1000000E+03  0.7546771E-02  0.1280296E+00
         21   -1    0    0  503  502  0.00000000000E+00  0.00000000000E+00  0.86910518396E+02  0.86910518396E+02  0.00000000000E+00 0.  1.
         21   -1    0    0  501  503 -0.00000000000E+00 -0.00000000000E+00 -0.62774402424E+03  0.62774402424E+03  0.00000000000E+00 0.  1.
          6    1    1    2  501    0 -0.10667296021E+03 -0.42635538413E+02 -0.43398279303E+03  0.48111014771E+03  0.17300000000E+03 0.  1.
         -6    1    1    2    0  502  0.10667296021E+03  0.42635538413E+02 -0.10685071281E+03  0.23354439493E+03  0.17300000000E+03 0.  1.
</event>
<event>
 4    1  0.6239288E+000  0.1000000E+03  0.7546771E-02  0.1280296E+00
         21   -1    0    0  501  502  0.00000000000E+00  0.00000000000E+00  0.32796683525E+03  0.32796683525E+03  0.00000000000E+00 0. -1.
         21   -1    0    0  502  503 -0.00000000000E+00 -0.00000000000E+00 -0.42478427987E+03  0.42478427987E+03  0.00000000000E+00 0. -1.
          6    1    1    2  501    0 -0.10905080914E+03 -0.92173057350E+02  0.25241553392E+03  0.33768410273E+03  0.17300000000E+03 0. -1.
         -6    1    1    2    0  503  0.10905080914E+03  0.92173057350E+02 -0.34923297854E+03  0.41506701239E+03  0.17300000000E+03 0. -1.
</event>
<event>
 4    1  0.6239288E+000  0.1000000E+03  0.7546771E-02  0.1280296E+00
         21   -1    0    0  501  502  0.00000000000E+00  0.00000000000E+00  0.30587656590E+03  0.30587656590E+03  0.00000000000E+00 0. -1.
         21   -1    0    0  502  503 -0.00000000000E+00 -0.00000000000E+00 -0.33016654832E+03  0.33016654832E+03  0.00000000000E+00 0. -1.
          6    1    1    2  501    0  0.67749328698E+02 -0.35007440325E+02  0.24347388898E+03  0.30825967468E+03  0.17300000000E+03 0. -1.
         -6    1    1    2    0  503 -0.67749328698E+02  0.35007440325E+02 -0.26776387139E+03  0.32778343954E+03  0.17300000000E+03 0. -1.
</event>
<event>
 4    1  0.6239288E+000  0.1000000E+03  0.7546771E-02  0.1280296E+00
         21   -1    0    0  503  502  0.00000000000E+00  0.00000000000E+00  0.69651839117E+02  0.69651839117E+02  0.00000000000E+00 0. -1.
         21   -1    0    0  501  503 -0.00000000000E+00 -0.00000000000E+00 -0.14657433356E+04  0.14657433356E+04  0.00000000000E+00 0. -1.
          6    1    1    2  501    0  0.42795503212E+02  0.60578065749E+02 -0.13183898537E+04  0.13317589735E+04  0.17300000000E+03 0. -1.
         -6    1    1    2    0  502 -0.42795503212E+02 -0.60578065749E+02 -0.77701642735E+02  0.20363620117E+03  0.17300000000E+03 0. -1.
</event>
<event>
 4    1  0.6239288E+000  0.1000000E+03  0.7546771E-02  0.1280296E+00
         21   -1    0    0  503  502  0.00000000000E+00  0.00000000000E+00  0.12189741394E+03  0.12189741394E+03  0.00000000000E+00 0. -1.
         21   -1    0    0  501  503 -0.00000000000E+00 -0.00000000000E+00 -0.40445309903E+03  0.40445309903E+03  0.00000000000E+00 0. -1.
          6    1    1    2  501    0 -0.10761696242E+03  0.67100788305E+02 -0.20925084405E+03  0.29966454933E+03  0.17300000000E+03 0. -1.
         -6    1    1    2    0  502  0.10761696242E+03 -0.67100788305E+02 -0.73304841046E+02  0.22668596364E+03  0.17300000000E+03 0. -1.
</event>
<event>
 4    1  0.6239288E+000  0.1000000E+03  0.7546771E-02  0.1280296E+00
         21   -1    0    0  503  502  0.00000000000E+00  0.00000000000E+00  0.22264558119E+03  0.22264558119E+03  0.00000000000E+00 0. -1.
         21   -1    0    0  501  503 -0.00000000000E+00 -0.00000000000E+00 -0.90804015066E+03  0.90804015066E+03  0.00000000000E+00 0. -1.
          6    1    1    2  501    0 -0.32289129982E+03  0.29614186900E+02 -0.66840954926E+03  0.76278182799E+03  0.17300000000E+03 0. -1.
         -6    1    1    2    0  502  0.32289129982E+03 -0.29614186900E+02 -0.16985020210E+02  0.36790390386E+03  0.17300000000E+03 0. -1.
</event>
<event>
 4    1  0.6239288E+000  0.1000000E+03  0.7546771E-02  0.1280296E+00
         21   -1    0    0  501  502  0.00000000000E+00  0.00000000000E+00  0.70864779727E+02  0.70864779727E+02  0.00000000000E+00 0. -1.
         21   -1    0    0  502  503 -0.00000000000E+00 -0.00000000000E+00 -0.49278921628E+03  0.49278921628E+03  0.00000000000E+00 0. -1.
          6    1    1    2  501    0 -0.34447638207E+02  0.59276087023E+02 -0.18518676768E+03  0.26253272786E+03  0.17300000000E+03 0. -1.
         -6    1    1    2    0  503  0.34447638207E+02 -0.59276087023E+02 -0.23673766887E+03  0.30112126815E+03  0.17300000000E+03 0. -1.
</event>
<event>
 4    1  0.6239288E+000  0.1000000E+03  0.7546771E-02  0.1280296E+00
         21   -1    0    0  501  502  0.00000000000E+00  0.00000000000E+00  0.19119392970E+03  0.19119392970E+03  0.00000000000E+00 0. -1.
         21   -1    0    0  502  503 -0.00000000000E+00 -0.00000000000E+00 -0.32711459638E+03  0.32711459638E+03  0.00000000000E+00 0. -1.
          6    1    1    2  501    0  0.96822534077E+02 -0.47428622533E+02  0.82170461280E+02  0.21978412601E+03  0.17300000000E+03 0. -1.
         -6    1    1    2    0  503 -0.96822534077E+02  0.47428622533E+02 -0.21809112796E+03  0.29852440007E+03  0.17300000000E+03 0. -1.
</event>
<event>
 4    1  0.6239288E+000  0.1000000E+03  0.7546771E-02  0.1280296E+00
         21   -1    0    0  501  502  0.00000000000E+00  0.00000000000E+00  0.11671908791E+03  0.11671908791E+03  0.00000000000E+00 0.  1.
         21   -1    0    0  502  503 -0.00000000000E+00 -0.00000000000E+00 -0.27377532761E+03  0.27377532761E+03  0.00000000000E+00 0.  1.
          6    1    1    2  501    0 -0.43980767798E+02 -0.75901731434E+01 -0.72169851639E+02  0.19268992228E+03  0.17300000000E+03 0.  1.
         -6    1    1    2    0  503  0.43980767798E+02  0.75901731434E+01 -0.84886388061E+02  0.19780449323E+03  0.17300000000E+03 0.  1.
</event>
<event>
 4    1  0.6239288E+000  0.1000000E+03  0.7546771E-02  0.1280296E+00
         21   -1    0    0  501  502  0.00000000000E+00  0.00000000000E+00  0.11679555802E+03  0.11679555802E+03  0.00000000000E+00 0. -1.
         21   -1    0    0  502  503 -0.00000000000E+00 -0.00000000000E+00 -0.69554960844E+03  0.69554960844E+03  0.00000000000E+00 0.  1.
          6    1    1    2  501    0 -0.22193731650E+03  0.68937126019E+01 -0.22557616266E+03  0.36071775793E+03  0.17300000000E+03 0. -1.
         -6    1    1    2    0  503  0.22193731650E+03 -0.68937126019E+01 -0.35317788776E+03  0.45162740853E+03  0.17300000000E+03 0.  1.
</event>
<event>
 4    1  0.6239288E+000  0.1000000E+03  0.7546771E-02  0.1280296E+00
         21   -1    0    0  501  502  0.00000000000E+00  0.00000000000E+00  0.63126844881E+03  0.63126844881E+03  0.00000000000E+00 0. -1.
         21   -1    0    0  502  503 -0.00000000000E+00 -0.00000000000E+00 -0.11537553606E+03  0.11537553606E+03  0.00000000000E+00 0.  1.
          6    1    1    2  501    0  0.42739159356E+02 -0.18115567825E+03  0.38366738854E+03  0.46018874447E+03  0.17300000000E+03 0. -1.
         -6    1    1    2    0  503 -0.42739159356E+02  0.18115567825E+03  0.13222552420E+03  0.28645524040E+03  0.17300000000E+03 0.  1.
</event>
<event>
 4    1  0.6239288E+000  0.1000000E+03  0.7546771E-02  0.1280296E+00
         21   -1    0    0  501  502  0.00000000000E+00  0.00000000000E+00  0.11675857516E+04  0.11675857516E+04  0.00000000000E+00 0. -1.
         21   -1    0    0  502  503 -0.00000000000E+00 -0.00000000000E+00 -0.16442097689E+03  0.16442097689E+03  0.00000000000E+00 0. -1.
          6    1    1    2  501    0  0.37283390346E+03  0.14066361600E+03  0.41485756479E+03  0.60068891408E+03  0.17300000000E+03 0. -1.
         -6    1    1    2    0  503 -0.37283390346E+03 -0.14066361600E+03  0.58830720992E+03  0.73131781441E+03  0.17300000000E+03 0. -1.
</event>
<event>
 4    1  0.6239288E+000  0.1000000E+03  0.7546771E-02  0.1280296E+00
         21   -1    0    0  503  502  0.00000000000E+00  0.00000000000E+00  0.24806056915E+03  0.24806056915E+03  0.00000000000E+00 0. -1.
         21   -1    0    0  501  503 -0.00000000000E+00 -0.00000000000E+00 -0.32741296943E+03  0.32741296943E+03  0.00000000000E+00 0. -1.
          6    1    1    2  501    0  0.40403198989E+02 -0.44020151607E+01 -0.26461961967E+03  0.31875435580E+03  0.17300000000E+03 0. -1.
         -6    1    1    2    0  502 -0.40403198989E+02  0.44020151607E+01  0.18526721939E+03  0.25671918278E+03  0.17300000000E+03 0. -1.
</event>
<event>
 4    1  0.6239288E+000  0.1000000E+03  0.7546771E-02  0.1280296E+00
         21   -1    0    0  503  502  0.00000000000E+00  0.00000000000E+00  0.34147429481E+03  0.34147429481E+03  0.00000000000E+00 0. -1.
         21   -1    0    0  501  503 -0.00000000000E+00 -0.00000000000E+00 -0.31685985691E+03  0.31685985691E+03  0.00000000000E+00 0. -1.
          6    1    1    2  501    0 -0.14320062024E+03 -0.23561466456E+03  0.59772552517E+02  0.33094175594E+03  0.17300000000E+03 0. -1.
         -6    1    1    2    0  502  0.14320062024E+03  0.23561466456E+03 -0.35158114618E+02  0.32739239578E+03  0.17300000000E+03 0. -1.
</event>
<event>
 4    1  0.6239288E+000  0.1000000E+03  0.7546771E-02  0.1280296E+00
         21   -1    0    0  503  502  0.00000000000E+00  0.00000000000E+00  0.92679537154E+02  0.92679537154E+02  0.00000000000E+00 0. -1.
         21   -1    0    0  501  503 -0.00000000000E+00 -0.00000000000E+00 -0.96043709309E+03  0.96043709309E+03  0.00000000000E+00 0. -1.
          6    1    1    2  501    0  0.11331647092E+03  0.55621116954E+02 -0.80049201351E+03  0.82864394943E+03  0.17300000000E+03 0. -1.
         -6    1    1    2    0  502 -0.11331647092E+03 -0.55621116954E+02 -0.67265542420E+02  0.22447268081E+03  0.17300000000E+03 0. -1.
</event>
<event>
 4    1  0.6239288E+000  0.1000000E+03  0.7546771E-02  0.1280296E+00
         21   -1    0    0  503  502  0.00000000000E+00  0.00000000000E+00  0.87165732982E+03  0.87165732982E+03  0.00000000000E+00 0. -1.
         21   -1    0    0  501  503 -0.00000000000E+00 -0.00000000000E+00 -0.45696019409E+02  0.45696019409E+02  0.00000000000E+00 0. -1.
          6    1    1    2  501    0  0.95433509997E+02 -0.76033329342E+01  0.35059277097E+03  0.40250423173E+03  0.17300000000E+03 0. -1.
         -6    1    1    2    0  502 -0.95433509997E+02  0.76033329342E+01  0.47536853944E+03  0.51484911750E+03  0.17300000000E+03 0. -1.
</event>
<event>
 4    1  0.6239288E+000  0.1000000E+03  0.7546771E-02  0.1280296E+00
         21   -1    0    0  501  502  0.00000000000E+00  0.00000000000E+00  0.13139073356E+03  0.13139073356E+03  0.00000000000E+00 0.  1.
         21   -1    0    0  502  503 -0.00000000000E+00 -0.00000000000E+00 -0.29875981661E+03  0.29875981661E+03  0.00000000000E+00 0.  1.
          6    1    1    2  501    0  0.13528242880E+02 -0.80012631316E+02 -0.26859326938E+02  0.19296491383E+03  0.17300000000E+03 0. -1.
         -6    1    1    2    0  503 -0.13528242880E+02  0.80012631316E+02 -0.14050975611E+03  0.23718563634E+03  0.17300000000E+03 0. -1.
</event>
<event>
 4    1  0.6239288E+000  0.1000000E+03  0.7546771E-02  0.1280296E+00
         21   -1    0    0  501  502  0.00000000000E+00  0.00000000000E+00  0.74178476746E+03  0.74178476746E+03  0.00000000000E+00 0.  1.
         21   -1    0    0  502  503 -0.00000000000E+00 -0.00000000000E+00 -0.37866248980E+03  0.37866248980E+03  0.00000000000E+00 0.  1.
          6    1    1    2  501    0  0.29530735265E+03 -0.20725445954E+02  0.60874757914E+03  0.69866915758E+03  0.17300000000E+03 0. -1.
         -6    1    1    2    0  503 -0.29530735265E+03  0.20725445954E+02 -0.24562530148E+03  0.42177809968E+03  0.17300000000E+03 0. -1.
</event>
<event>
 4    1  0.6239288E+000  0.1000000E+03  0.7546771E-02  0.1280296E+00
         21   -1    0    0  501  502  0.00000000000E+00  0.00000000000E+00  0.11903640673E+04  0.11903640673E+04  0.00000000000E+00 0.  1.
         21   -1    0    0  502  503 -0.00000000000E+00 -0.00000000000E+00 -0.14247341668E+03  0.14247341668E+03  0.00000000000E+00 0.  1.
          6    1    1    2  501    0  0.27783926892E+03  0.10716001536E+03  0.88935132735E+03  0.95370472983E+03  0.17300000000E+03 0. -1.
         -6    1    1    2    0  503 -0.27783926892E+03 -0.10716001536E+03  0.15853932327E+03  0.37913275415E+03  0.17300000000E+03 0. -1.
</event>
<event>
 4    1  0.6239288E+000  0.1000000E+03  0.7546771E-02  0.1280296E+00
         21   -1    0    0  501  502  0.00000000000E+00  0.00000000000E+00  0.37284024475E+03  0.37284024475E+03  0.00000000000E+00 0. -1.
         21   -1    0    0  502  503 -0.00000000000E+00 -0.00000000000E+00 -0.43077696731E+03  0.43077696731E+03  0.00000000000E+00 0. -1.
          6    1    1    2  501    0  0.12296321707E+03 -0.18876053393E+03  0.25449085431E+03  0.38137263516E+03  0.17300000000E+03 0. -1.
         -6    1    1    2    0  503 -0.12296321707E+03  0.18876053393E+03 -0.31242757687E+03  0.42224457689E+03  0.17300000000E+03 0. -1.
</event>
<event>
 4    1  0.6239288E+000  0.1000000E+03  0.7546771E-02  0.1280296E+00
         21   -1    0    0  501  502  0.00000000000E+00  0.00000000000E+00  0.74816239973E+03  0.74816239973E+03  0.00000000000E+00 0. -1.
         21   -1    0    0  502  503 -0.00000000000E+00 -0.00000000000E+00 -0.17125198013E+03  0.17125198013E+03  0.00000000000E+00 0. -1.
          6    1    1    2  501    0  0.18647041548E+03 -0.10903924544E+03  0.58000630148E+03  0.64264849074E+03  0.17300000000E+03 0. -1.
         -6    1    1    2    0  503 -0.18647041548E+03  0.10903924544E+03 -0.30958818779E+01  0.27676588912E+03  0.17300000000E+03 0. -1.
</event>
<event>
 4    1  0.6239288E+000  0.1000000E+03  0.7546771E-02  0.1280296E+00
         21   -1    0    0  501  502  0.00000000000E+00  0.00000000000E+00  0.46712312040E+02  0.46712312040E+02  0.00000000000E+00 0.  1.
         21   -1    0    0  502  503 -0.00000000000E+00 -0.00000000000E+00 -0.13623582219E+04  0.13623582219E+04  0.00000000000E+00 0.  1.
          6    1    1    2  501    0 -0.89746391622E+02  0.11477731080E+03 -0.34580649130E+03  0.41320621403E+03  0.17300000000E+03 0.  1.
         -6    1    1    2    0  503  0.89746391622E+02 -0.11477731080E+03 -0.96983941854E+03  0.99586431990E+03  0.17300000000E+03 0.  1.
</event>
<event>
 4    1  0.6239288E+000  0.1000000E+03  0.7546771E-02  0.1280296E+00
         21   -1    0    0  501  502  0.00000000000E+00  0.00000000000E+00  0.10876467881E+04  0.10876467881E+04  0.00000000000E+00 0.  1.
         21   -1    0    0  502  503 -0.00000000000E+00 -0.00000000000E+00 -0.63734890566E+02  0.63734890566E+02  0.00000000000E+00 0.  1.
          6    1    1    2  501    0 -0.50544757307E+02  0.14608187046E+03  0.78415441123E+03  0.81775413543E+03  0.17300000000E+03 0.  1.
         -6    1    1    2    0  503  0.50544757307E+02 -0.14608187046E+03  0.23975748632E+03  0.33362754325E+03  0.17300000000E+03 0.  1.
</event>
<event>
 4    1  0.6239288E+000  0.1000000E+03  0.7546771E-02  0.1280296E+00
         21   -1    0    0  501  502  0.00000000000E+00  0.00000000000E+00  0.16016736350E+03  0.16016736350E+03  0.00000000000E+00 0.  1.
         21   -1    0    0  502  503 -0.00000000000E+00 -0.00000000000E+00 -0.13656435590E+04  0.13656435590E+04  0.00000000000E+00 0.  1.
          6    1    1    2  501    0  0.40466495637E+03  0.10717082872E+03 -0.79271305312E+03  0.91299632969E+03  0.17300000000E+03 0.  1.
         -6    1    1    2    0  503 -0.40466495637E+03 -0.10717082872E+03 -0.41276314236E+03  0.61281459279E+03  0.17300000000E+03 0.  1.
</event>
<event>
 4    1  0.6239288E+000  0.1000000E+03  0.7546771E-02  0.1280296E+00
         21   -1    0    0  501  502  0.00000000000E+00  0.00000000000E+00  0.75756458351E+03  0.75756458351E+03  0.00000000000E+00 0.  1.
         21   -1    0    0  502  503 -0.00000000000E+00 -0.00000000000E+00 -0.46017282260E+02  0.46017282260E+02  0.00000000000E+00 0.  1.
          6    1    1    2  501    0 -0.68852807157E+02  0.38477847293E+01  0.32718048997E+03  0.37647255879E+03  0.17300000000E+03 0.  1.
         -6    1    1    2    0  503  0.68852807157E+02 -0.38477847293E+01  0.38436681127E+03  0.42710930698E+03  0.17300000000E+03 0.  1.
</event>
<event>
 4    1  0.6239288E+000  0.1000000E+03  0.7546771E-02  0.1280296E+00
         21   -1    0    0  503  502  0.00000000000E+00  0.00000000000E+00  0.11402585997E+03  0.11402585997E+03  0.00000000000E+00 0. -1.
         21   -1    0    0  501  503 -0.00000000000E+00 -0.00000000000E+00 -0.47070590277E+03  0.47070590277E+03  0.00000000000E+00 0.  1.
          6    1    1    2  501    0 -0.23400123567E+02 -0.17437323642E+02 -0.36927796513E+03  0.40883595925E+03  0.17300000000E+03 0.  1.
         -6    1    1    2    0  502  0.23400123567E+02  0.17437323642E+02  0.12597922332E+02  0.17589580349E+03  0.17300000000E+03 0. -1.
</event>
<event>
 4    1  0.6239288E+000  0.1000000E+03  0.7546771E-02  0.1280296E+00
         21   -1    0    0  503  502  0.00000000000E+00  0.00000000000E+00  0.76494878548E+03  0.76494878548E+03  0.00000000000E+00 0. -1.
         21   -1    0    0  501  503 -0.00000000000E+00 -0.00000000000E+00 -0.73883683333E+02  0.73883683333E+02  0.00000000000E+00 0.  1.
          6    1    1    2  501    0 -0.92464197645E+01  0.30897075723E+02  0.63542256070E+02  0.18710089223E+03  0.17300000000E+03 0.  1.
         -6    1    1    2    0  502  0.92464197645E+01 -0.30897075723E+02  0.62752284608E+03  0.65173157658E+03  0.17300000000E+03 0. -1.
</event>
<event>
 4    1  0.6239288E+000  0.1000000E+03  0.7546771E-02  0.1280296E+00
         21   -1    0    0  501  502  0.00000000000E+00  0.00000000000E+00  0.34572118235E+03  0.34572118235E+03  0.00000000000E+00 0.  1.
         21   -1    0    0  502  503 -0.00000000000E+00 -0.00000000000E+00 -0.31259561822E+03  0.31259561822E+03  0.00000000000E+00 0.  1.
          6    1    1    2  501    0  0.52830920880E+02  0.14722946329E+03  0.24853379703E+03  0.34083085149E+03  0.17300000000E+03 0.  1.
         -6    1    1    2    0  503 -0.52830920880E+02 -0.14722946329E+03 -0.21540823290E+03  0.31748594908E+03  0.17300000000E+03 0.  1.
</event>
<event>
 4    1  0.6239288E+000  0.1000000E+03  0.7546771E-02  0.1280296E+00
         21   -1    0    0  501  502  0.00000000000E+00  0.00000000000E+00  0.44342992862E+03  0.44342992862E+03  0.00000000000E+00 0.  1.
         21   -1    0    0  502  503 -0.00000000000E+00 -0.00000000000E+00 -0.91039746047E+02  0.91039746047E+02  0.00000000000E+00 0.  1.
          6    1    1    2  501    0  0.59755586228E+02 -0.42699740283E+02  0.27068185132E+03  0.32953249087E+03  0.17300000000E+03 0.  1.
         -6    1    1    2    0  503 -0.59755586228E+02  0.42699740283E+02  0.81708331251E+02  0.20493718379E+03  0.17300000000E+03 0.  1.
</event>
<event>
 4    1  0.6239288E+000  0.1000000E+03  0.7546771E-02  0.1280296E+00
         21   -1    0    0  501  502  0.00000000000E+00  0.00000000000E+00  0.90642603852E+02  0.90642603852E+02  0.00000000000E+00 0.  1.
         21   -1    0    0  502  503 -0.00000000000E+00 -0.00000000000E+00 -0.71395411553E+03  0.71395411553E+03  0.00000000000E+00 0.  1.
          6    1    1    2  501    0 -0.99862139125E+01 -0.14588565909E+03 -0.12857067466E+03  0.26046452422E+03  0.17300000000E+03 0.  1.
         -6    1    1    2    0  503  0.99862139125E+01  0.14588565909E+03 -0.49474083702E+03  0.54413219516E+03  0.17300000000E+03 0.  1.
</event>
<event>
 4    1  0.6239288E+000  0.1000000E+03  0.7546771E-02  0.1280296E+00
         21   -1    0    0  503  502  0.00000000000E+00  0.00000000000E+00  0.24686622348E+03  0.24686622348E+03  0.00000000000E+00 0. -1.
         21   -1    0    0  501  503 -0.00000000000E+00 -0.00000000000E+00 -0.21016982563E+03  0.21016982563E+03  0.00000000000E+00 0. -1.
          6    1    1    2  501    0 -0.15257278705E+01  0.80034644664E+02 -0.10674311908E+03  0.21847417619E+03  0.17300000000E+03 0. -1.
         -6    1    1    2    0  502  0.15257278705E+01 -0.80034644664E+02  0.14343951693E+03  0.23856187291E+03  0.17300000000E+03 0. -1.
</event>
<event>
 4    1  0.6239288E+000  0.1000000E+03  0.7546771E-02  0.1280296E+00
         21   -1    0    0  503  502  0.00000000000E+00  0.00000000000E+00  0.39312575747E+03  0.39312575747E+03  0.00000000000E+00 0. -1.
         21   -1    0    0  501  503 -0.00000000000E+00 -0.00000000000E+00 -0.89453180901E+03  0.89453180901E+03  0.00000000000E+00 0. -1.
          6    1    1    2  501    0  0.10918269330E+03 -0.28093633942E+03 -0.77238737612E+03  0.84696950720E+03  0.17300000000E+03 0. -1.
         -6    1    1    2    0  502 -0.10918269330E+03  0.28093633942E+03  0.27098132459E+03  0.44068805929E+03  0.17300000000E+03 0. -1.
</event>
<event>
 4    1  0.6239288E+000  0.1000000E+03  0.7546771E-02  0.1280296E+00
         21   -1    0    0  503  502  0.00000000000E+00  0.00000000000E+00  0.13783006123E+04  0.13783006123E+04  0.00000000000E+00 0. -1.
         21   -1    0    0  501  503 -0.00000000000E+00 -0.00000000000E+00 -0.46146627360E+02  0.46146627360E+02  0.00000000000E+00 0. -1.
          6    1    1    2  501    0  0.10760266695E+03 -0.18179675848E+02  0.24943347694E+03  0.32257540819E+03  0.17300000000E+03 0. -1.
         -6    1    1    2    0  502 -0.10760266695E+03  0.18179675848E+02  0.10827205080E+04  0.11018718315E+04  0.17300000000E+03 0. -1.
</event>
<event>
 4    1  0.6239288E+000  0.1000000E+03  0.7546771E-02  0.1280296E+00
         21   -1    0    0  501  502  0.00000000000E+00  0.00000000000E+00  0.23479737356E+03  0.23479737356E+03  0.00000000000E+00 0.  1.
         21   -1    0    0  502  503 -0.00000000000E+00 -0.00000000000E+00 -0.14804249189E+03  0.14804249189E+03  0.00000000000E+00 0.  1.
          6    1    1    2  501    0  0.58798477135E+02  0.27391386711E+01  0.81327143694E+02  0.20001966927E+03  0.17300000000E+03 0.  1.
         -6    1    1    2    0  503 -0.58798477135E+02 -0.27391386711E+01  0.54277379754E+01  0.18282019619E+03  0.17300000000E+03 0.  1.
</event>
<event>
 4    1  0.6239288E+000  0.1000000E+03  0.7546771E-02  0.1280296E+00
         21   -1    0    0  501  502  0.00000000000E+00  0.00000000000E+00  0.23554953711E+03  0.23554953711E+03  0.00000000000E+00 0.  1.
         21   -1    0    0  502  503 -0.00000000000E+00 -0.00000000000E+00 -0.25532990094E+03  0.25532990094E+03  0.00000000000E+00 0.  1.
          6    1    1    2  501    0 -0.17161081108E+03 -0.27048127654E+02 -0.42315353934E+01  0.24521169952E+03  0.17300000000E+03 0.  1.
         -6    1    1    2    0  503  0.17161081108E+03  0.27048127654E+02 -0.15548828431E+02  0.24566773853E+03  0.17300000000E+03 0.  1.
</event>
<event>
 4    1  0.6239288E+000  0.1000000E+03  0.7546771E-02  0.1280296E+00
         21   -1    0    0  501  502  0.00000000000E+00  0.00000000000E+00  0.27036929316E+03  0.27036929316E+03  0.00000000000E+00 0.  1.
         21   -1    0    0  502  503 -0.00000000000E+00 -0.00000000000E+00 -0.18178110818E+03  0.18178110818E+03  0.00000000000E+00 0.  1.
          6    1    1    2  501    0  0.77844006155E+02  0.10620009788E+03  0.88520368496E+02  0.23474029421E+03  0.17300000000E+03 0.  1.
         -6    1    1    2    0  503 -0.77844006155E+02 -0.10620009788E+03  0.67816483667E-01  0.21741010713E+03  0.17300000000E+03 0.  1.
</event>
<event>
 4    1  0.6239288E+000  0.1000000E+03  0.7546771E-02  0.1280296E+00
         21   -1    0    0  501  502  0.00000000000E+00  0.00000000000E+00  0.23647066495E+03  0.23647066495E+03  0.00000000000E+00 0.  1.
         21   -1    0    0  502  503 -0.00000000000E+00 -0.00000000000E+00 -0.64903870705E+03  0.64903870705E+03  0.00000000000E+00 0.  1.
          6    1    1    2  501    0  0.36956124847E+02 -0.16621670844E+03  0.14123891106E+03  0.28084013126E+03  0.17300000000E+03 0.  1.
         -6    1    1    2    0  503 -0.36956124847E+02  0.16621670844E+03 -0.55380695316E+03  0.60466924074E+03  0.17300000000E+03 0.  1.
</event>
<event>
 4    1  0.6239288E+000  0.1000000E+03  0.7546771E-02  0.1280296E+00
         21   -1    0    0  501  502  0.00000000000E+00  0.00000000000E+00  0.23036738472E+02  0.23036738472E+02  0.00000000000E+00 0. -1.
         21   -1    0    0  502  503 -0.00000000000E+00 -0.00000000000E+00 -0.17409580177E+04  0.17409580177E+04  0.00000000000E+00 0. -1.
          6    1    1    2  501    0  0.99611217404E-01 -0.58808794266E+01 -0.41542041351E+03  0.45004190319E+03  0.17300000000E+03 0. -1.
         -6    1    1    2    0  503 -0.99611217404E-01  0.58808794266E+01 -0.13025008658E+04  0.13139528530E+04  0.17300000000E+03 0. -1.
</event>
<event>
 4    1  0.6239288E+000  0.1000000E+03  0.7546771E-02  0.1280296E+00
         21   -1    0    0  503  502  0.00000000000E+00  0.00000000000E+00  0.40847014370E+02  0.40847014370E+02  0.00000000000E+00 0.  1.
         21   -1    0    0  501  503 -0.00000000000E+00 -0.00000000000E+00 -0.26519439220E+04  0.26519439220E+04  0.00000000000E+00 0.  1.
          6    1    1    2  501    0  0.10965756380E+03 -0.19884567607E+02 -0.23562984613E+04  0.23652677684E+04  0.17300000000E+03 0.  1.
         -6    1    1    2    0  502 -0.10965756380E+03  0.19884567607E+02 -0.25479844631E+03  0.32752316799E+03  0.17300000000E+03 0.  1.
</event>
<event>
 4    1  0.6239288E+000  0.1000000E+03  0.7546771E-02  0.1280296E+00
         21   -1    0    0  503  502  0.00000000000E+00  0.00000000000E+00  0.46558723190E+03  0.46558723190E+03  0.00000000000E+00 0.  1.
         21   -1    0    0  501  503 -0.00000000000E+00 -0.00000000000E+00 -0.82645635546E+02  0.82645635546E+02  0.00000000000E+00 0.  1.
          6    1    1    2  501    0 -0.11194751736E+02 -0.22196858107E+02  0.67016891694E+02  0.18718516701E+03  0.17300000000E+03 0.  1.
         -6    1    1    2    0  502  0.11194751736E+02  0.22196858107E+02  0.31592470466E+03  0.36104770044E+03  0.17300000000E+03 0.  1.
</event>
<event>
 4    1  0.6239288E+000  0.1000000E+03  0.7546771E-02  0.1280296E+00
         21   -1    0    0  501  502  0.00000000000E+00  0.00000000000E+00  0.18678074985E+03  0.18678074985E+03  0.00000000000E+00 0.  1.
         21   -1    0    0  502  503 -0.00000000000E+00 -0.00000000000E+00 -0.32045518617E+03  0.32045518617E+03  0.00000000000E+00 0.  1.
          6    1    1    2  501    0 -0.18110810067E+02  0.15478832812E+02  0.11078426689E+03  0.20680848507E+03  0.17300000000E+03 0.  1.
         -6    1    1    2    0  503  0.18110810067E+02 -0.15478832812E+02 -0.24445870321E+03  0.30042745095E+03  0.17300000000E+03 0.  1.
</event>
<event>
 4    1  0.6239288E+000  0.1000000E+03  0.7546771E-02  0.1280296E+00
         21   -1    0    0  503  502  0.00000000000E+00  0.00000000000E+00  0.71349393282E+03  0.71349393282E+03  0.00000000000E+00 0.  1.
         21   -1    0    0  501  503 -0.00000000000E+00 -0.00000000000E+00 -0.89620650233E+02  0.89620650233E+02  0.00000000000E+00 0.  1.
          6    1    1    2  501    0  0.52157644942E+02 -0.43578145105E+02  0.39674414650E+02  0.19005929031E+03  0.17300000000E+03 0.  1.
         -6    1    1    2    0  502 -0.52157644942E+02  0.43578145105E+02  0.58419886793E+03  0.61305529274E+03  0.17300000000E+03 0.  1.
</event>
<event>
 4    1  0.6239288E+000  0.1000000E+03  0.7546771E-02  0.1280296E+00
         21   -1    0    0  501  502  0.00000000000E+00  0.00000000000E+00  0.76998384668E+03  0.76998384668E+03  0.00000000000E+00 0. -1.
         21   -1    0    0  502  503 -0.00000000000E+00 -0.00000000000E+00 -0.17851303198E+03  0.17851303198E+03  0.00000000000E+00 0. -1.
          6    1    1    2  501    0 -0.21033305711E+03 -0.13970757981E+02  0.61703001044E+03  0.67460374352E+03  0.17300000000E+03 0. -1.
         -6    1    1    2    0  503  0.21033305711E+03  0.13970757981E+02 -0.25559195740E+02  0.27389313514E+03  0.17300000000E+03 0. -1.
</event>
<event>
 4    1  0.6239288E+000  0.1000000E+03  0.7546771E-02  0.1280296E+00
         21   -1    0    0  501  502  0.00000000000E+00  0.00000000000E+00  0.16925863583E+02  0.16925863583E+02  0.00000000000E+00 0. -1.
         21   -1    0    0  502  503 -0.00000000000E+00 -0.00000000000E+00 -0.19887156398E+04  0.19887156398E+04  0.00000000000E+00 0. -1.
          6    1    1    2  501    0  0.32601893087E+01 -0.59433290719E+02 -0.91079401299E+03  0.92898744823E+03  0.17300000000E+03 0. -1.
         -6    1    1    2    0  503 -0.32601893087E+01  0.59433290719E+02 -0.10609957633E+04  0.10766540552E+04  0.17300000000E+03 0. -1.
</event>
<event>
 4    1  0.6239288E+000  0.1000000E+03  0.7546771E-02  0.1280296E+00
         21   -1    0    0  501  502  0.00000000000E+00  0.00000000000E+00  0.14075540989E+03  0.14075540989E+03  0.00000000000E+00 0. -1.
         21   -1    0    0  502  503 -0.00000000000E+00 -0.00000000000E+00 -0.35113924853E+03  0.35113924853E+03  0.00000000000E+00 0. -1.
          6    1    1    2  501    0 -0.12275225639E+02 -0.14284371795E+02  0.47864822403E+02  0.18048480730E+03  0.17300000000E+03 0. -1.
         -6    1    1    2    0  503  0.12275225639E+02  0.14284371795E+02 -0.25824866105E+03  0.31140985112E+03  0.17300000000E+03 0. -1.
</event>
<event>
 4    1  0.6239288E+000  0.1000000E+03  0.7546771E-02  0.1280296E+00
         21   -1    0    0  501  502  0.00000000000E+00  0.00000000000E+00  0.43974606841E+02  0.43974606841E+02  0.00000000000E+00 0.  1.
         21   -1    0    0  502  503 -0.00000000000E+00 -0.00000000000E+00 -0.13481974189E+04  0.13481974189E+04  0.00000000000E+00 0.  1.
          6    1    1    2  501    0  0.38689899564E+02 -0.13916688410E+03 -0.38864888277E+03  0.44926749720E+03  0.17300000000E+03 0.  1.
         -6    1    1    2    0  503 -0.38689899564E+02  0.13916688410E+03 -0.91557392932E+03  0.94290452858E+03  0.17300000000E+03 0.  1.
</event>
<event>
 4    1  0.6239288E+000  0.1000000E+03  0.7546771E-02  0.1280296E+00
         21   -1    0    0  501  502  0.00000000000E+00  0.00000000000E+00  0.10747159853E+03  0.10747159853E+03  0.00000000000E+00 0.  1.
         21   -1    0    0  502  503 -0.00000000000E+00 -0.00000000000E+00 -0.10866220724E+04  0.10866220724E+04  0.00000000000E+00 0.  1.
          6    1    1    2  501    0  0.20433486239E+03 -0.17249977484E+03 -0.27316446070E+03  0.41959114731E+03  0.17300000000E+03 0.  1.
         -6    1    1    2    0  503 -0.20433486239E+03  0.17249977484E+03 -0.70598601316E+03  0.77450252361E+03  0.17300000000E+03 0.  1.
</event>
<event>
 4    1  0.6239288E+000  0.1000000E+03  0.7546771E-02  0.1280296E+00
         21   -1    0    0  503  502  0.00000000000E+00  0.00000000000E+00  0.11399882417E+03  0.11399882417E+03  0.00000000000E+00 0.  1.
         21   -1    0    0  501  503 -0.00000000000E+00 -0.00000000000E+00 -0.44158887585E+03  0.44158887585E+03  0.00000000000E+00 0.  1.
          6    1    1    2  501    0 -0.13745687179E+03 -0.30021843046E+02 -0.19452215526E+03  0.29591142517E+03  0.17300000000E+03 0.  1.
         -6    1    1    2    0  502  0.13745687179E+03  0.30021843046E+02 -0.13306789642E+03  0.25967627485E+03  0.17300000000E+03 0.  1.
</event>
<event>
 4    1  0.6239288E+000  0.1000000E+03  0.7546771E-02  0.1280296E+00
         21   -1    0    0  503  502  0.00000000000E+00  0.00000000000E+00  0.85055333130E+02  0.85055333130E+02  0.00000000000E+00 0.  1.
         21   -1    0    0  501  503 -0.00000000000E+00 -0.00000000000E+00 -0.44187982848E+03  0.44187982848E+03  0.00000000000E+00 0.  1.
          6    1    1    2  501    0 -0.41284726449E+02  0.13088150476E+02 -0.75095733848E+02  0.19350477401E+03  0.17300000000E+03 0.  1.
         -6    1    1    2    0  502  0.41284726449E+02 -0.13088150476E+02 -0.28172876150E+03  0.33343038760E+03  0.17300000000E+03 0.  1.
</event>
<event>
 4    1  0.6239288E+000  0.1000000E+03  0.7546771E-02  0.1280296E+00
         21   -1    0    0  503  502  0.00000000000E+00  0.00000000000E+00  0.25794059257E+03  0.25794059257E+03  0.00000000000E+00 0. -1.
         21   -1    0    0  501  503 -0.00000000000E+00 -0.00000000000E+00 -0.20381294354E+03  0.20381294354E+03  0.00000000000E+00 0. -1.
          6    1    1    2  501    0  0.11534736464E+03 -0.22898467999E+02 -0.67466950546E+02  0.21979568645E+03  0.17300000000E+03 0. -1.
         -6    1    1    2    0  502 -0.11534736464E+03  0.22898467999E+02  0.12159459957E+03  0.24195784966E+03  0.17300000000E+03 0. -1.
</event>
<event>
 4    1  0.6239288E+000  0.1000000E+03  0.7546771E-02  0.1280296E+00
         21   -1    0    0  503  502  0.00000000000E+00  0.00000000000E+00  0.69322708608E+02  0.69322708608E+02  0.00000000000E+00 0. -1.
         21   -1    0    0  501  503 -0.00000000000E+00 -0.00000000000E+00 -0.19362077451E+04  0.19362077451E+04  0.00000000000E+00 0. -1.
          6    1    1    2  501    0  0.26285235237E+03 -0.66419321732E+02 -0.14137279326E+04  0.14498477689E+04  0.17300000000E+03 0. -1.
         -6    1    1    2    0  502 -0.26285235237E+03  0.66419321732E+02 -0.45315710392E+03  0.55568268488E+03  0.17300000000E+03 0. -1.
</event>
<event>
 4    1  0.6239288E+000  0.1000000E+03  0.7546771E-02  0.1280296E+00
         21   -1    0    0  501  502  0.00000000000E+00  0.00000000000E+00  0.15438114617E+03  0.15438114617E+03  0.00000000000E+00 0.  1.
         21   -1    0    0  502  503 -0.00000000000E+00 -0.00000000000E+00 -0.27661353920E+03  0.27661353920E+03  0.00000000000E+00 0.  1.
          6    1    1    2  501    0  0.10146585514E+03 -0.47798142492E+02 -0.46556550925E+02  0.21136814949E+03  0.17300000000E+03 0.  1.
         -6    1    1    2    0  503 -0.10146585514E+03  0.47798142492E+02 -0.75675842113E+02  0.21962653588E+03  0.17300000000E+03 0.  1.
</event>
<event>
 4    1  0.6239288E+000  0.1000000E+03  0.7546771E-02  0.1280296E+00
         21   -1    0    0  501  502  0.00000000000E+00  0.00000000000E+00  0.15001586798E+03  0.15001586798E+03  0.00000000000E+00 0.  1.
         21   -1    0    0  502  503 -0.00000000000E+00 -0.00000000000E+00 -0.41635981126E+03  0.41635981126E+03  0.00000000000E+00 0.  1.
          6    1    1    2  501    0  0.65329718222E+02 -0.69556024612E+02  0.40255001463E+02  0.20163203561E+03  0.17300000000E+03 0.  1.
         -6    1    1    2    0  503 -0.65329718222E+02  0.69556024612E+02 -0.30659894475E+03  0.36474364362E+03  0.17300000000E+03 0.  1.
</event>
<event>
 4    1  0.6239288E+000  0.1000000E+03  0.7546771E-02  0.1280296E+00
         21   -1    0    0  501  502  0.00000000000E+00  0.00000000000E+00  0.41688221243E+03  0.41688221243E+03  0.00000000000E+00 0.  1.
         21   -1    0    0  502  503 -0.00000000000E+00 -0.00000000000E+00 -0.75369390641E+02  0.75369390641E+02  0.00000000000E+00 0.  1.
          6    1    1    2  501    0 -0.18699278884E+02  0.30136037985E+02  0.19196558843E+03  0.26084024030E+03  0.17300000000E+03 0.  1.
         -6    1    1    2    0  503  0.18699278884E+02 -0.30136037985E+02  0.14954723336E+03  0.23141136277E+03  0.17300000000E+03 0.  1.
</event>
<event>
 4    1  0.6239288E+000  0.1000000E+03  0.7546771E-02  0.1280296E+00
         21   -1    0    0  501  502  0.00000000000E+00  0.00000000000E+00  0.36282333237E+03  0.36282333237E+03  0.00000000000E+00 0.  1.
         21   -1    0    0  502  503 -0.00000000000E+00 -0.00000000000E+00 -0.17670936694E+03  0.17670936694E+03  0.00000000000E+00 0.  1.
          6    1    1    2  501    0  0.12835586123E+03 -0.30756423362E+02  0.23100023602E+03  0.31735042734E+03  0.17300000000E+03 0.  1.
         -6    1    1    2    0  503 -0.12835586123E+03  0.30756423362E+02 -0.44886270585E+02  0.22218227197E+03  0.17300000000E+03 0.  1.
</event>
<event>
 4    1  0.6239288E+000  0.1000000E+03  0.7546771E-02  0.1280296E+00
         21   -1    0    0  503  502  0.00000000000E+00  0.00000000000E+00  0.35666596885E+02  0.35666596885E+02  0.00000000000E+00 0.  1.
         21   -1    0    0  501  503 -0.00000000000E+00 -0.00000000000E+00 -0.17454546896E+04  0.17454546896E+04  0.00000000000E+00 0. -1.
          6    1    1    2  501    0  0.14799823801E+03 -0.35363082394E+02 -0.11967130899E+04  0.12186899711E+04  0.17300000000E+03 0. -1.
         -6    1    1    2    0  502 -0.14799823801E+03  0.35363082394E+02 -0.51307500284E+03  0.56243131544E+03  0.17300000000E+03 0.  1.
</event>
<event>
 4    1  0.6239288E+000  0.1000000E+03  0.7546771E-02  0.1280296E+00
         21   -1    0    0  503  502  0.00000000000E+00  0.00000000000E+00  0.17916025445E+03  0.17916025445E+03  0.00000000000E+00 0.  1.
         21   -1    0    0  501  503 -0.00000000000E+00 -0.00000000000E+00 -0.22012487313E+03  0.22012487313E+03  0.00000000000E+00 0. -1.
          6    1    1    2  501    0 -0.18760763120E+02  0.75183801248E+02  0.39026791959E+02  0.19353723335E+03  0.17300000000E+03 0. -1.
         -6    1    1    2    0  502  0.18760763120E+02 -0.75183801248E+02 -0.79991410633E+02  0.20574789422E+03  0.17300000000E+03 0.  1.
</event>
<event>
 4    1  0.6239288E+000  0.1000000E+03  0.7546771E-02  0.1280296E+00
         21   -1    0    0  501  502  0.00000000000E+00  0.00000000000E+00  0.16125292492E+03  0.16125292492E+03  0.00000000000E+00 0.  1.
         21   -1    0    0  502  503 -0.00000000000E+00 -0.00000000000E+00 -0.45212629584E+03  0.45212629584E+03  0.00000000000E+00 0. -1.
          6    1    1    2  501    0  0.67701182321E+02  0.14857103372E+03 -0.33006118550E+00  0.23787793317E+03  0.17300000000E+03 0.  1.
         -6    1    1    2    0  503 -0.67701182321E+02 -0.14857103372E+03 -0.29054330974E+03  0.37550128759E+03  0.17300000000E+03 0. -1.
</event>
<event>
 4    1  0.6239288E+000  0.1000000E+03  0.7546771E-02  0.1280296E+00
         21   -1    0    0  501  502  0.00000000000E+00  0.00000000000E+00  0.11811173960E+03  0.11811173960E+03  0.00000000000E+00 0.  1.
         21   -1    0    0  502  503 -0.00000000000E+00 -0.00000000000E+00 -0.26745507463E+03  0.26745507463E+03  0.00000000000E+00 0. -1.
          6    1    1    2  501    0 -0.39986329509E+02 -0.17585018359E+00 -0.83187997127E+02  0.19608207551E+03  0.17300000000E+03 0.  1.
         -6    1    1    2    0  503  0.39986329509E+02  0.17585018359E+00 -0.66155337905E+02  0.18948473871E+03  0.17300000000E+03 0. -1.
</event>
<event>
 4    1  0.6239288E+000  0.1000000E+03  0.7546771E-02  0.1280296E+00
         21   -1    0    0  501  502  0.00000000000E+00  0.00000000000E+00  0.80554422908E+03  0.80554422908E+03  0.00000000000E+00 0.  1.
         21   -1    0    0  502  503 -0.00000000000E+00 -0.00000000000E+00 -0.12534414865E+03  0.12534414865E+03  0.00000000000E+00 0. -1.
          6    1    1    2  501    0 -0.66585501762E+02  0.49289262086E+02  0.71117755089E+03  0.73659050312E+03  0.17300000000E+03 0. -1.
         -6    1    1    2    0  503  0.66585501762E+02 -0.49289262086E+02 -0.30977470464E+02  0.19429787461E+03  0.17300000000E+03 0.  1.
</event>
<event>
 4    1  0.6239288E+000  0.1000000E+03  0.7546771E-02  0.1280296E+00
         21   -1    0    0  501  502  0.00000000000E+00  0.00000000000E+00  0.84654447827E+03  0.84654447827E+03  0.00000000000E+00 0.  1.
         21   -1    0    0  502  503 -0.00000000000E+00 -0.00000000000E+00 -0.10016556939E+03  0.10016556939E+03  0.00000000000E+00 0. -1.
          6    1    1    2  501    0 -0.55760422125E+02 -0.13853988690E+03  0.66652563831E+03  0.70461901156E+03  0.17300000000E+03 0. -1.
         -6    1    1    2    0  503  0.55760422125E+02  0.13853988690E+03  0.79853270566E+02  0.24209103609E+03  0.17300000000E+03 0.  1.
</event>
<event>
 4    1  0.6239288E+000  0.1000000E+03  0.7546771E-02  0.1280296E+00
         21   -1    0    0  501  502  0.00000000000E+00  0.00000000000E+00  0.11926028562E+03  0.11926028562E+03  0.00000000000E+00 0. -1.
         21   -1    0    0  502  503 -0.00000000000E+00 -0.00000000000E+00 -0.45603824462E+03  0.45603824462E+03  0.00000000000E+00 0. -1.
          6    1    1    2  501    0  0.14791300900E+03 -0.39311402113E+02 -0.12871531051E+03  0.26442442347E+03  0.17300000000E+03 0. -1.
         -6    1    1    2    0  503 -0.14791300900E+03  0.39311402113E+02 -0.20806264849E+03  0.31087410677E+03  0.17300000000E+03 0. -1.
</event>
<event>
 4    1  0.6239288E+000  0.1000000E+03  0.7546771E-02  0.1280296E+00
         21   -1    0    0  501  502  0.00000000000E+00  0.00000000000E+00  0.11236601550E+04  0.11236601550E+04  0.00000000000E+00 0. -1.
         21   -1    0    0  502  503 -0.00000000000E+00 -0.00000000000E+00 -0.30872893692E+02  0.30872893692E+02  0.00000000000E+00 0. -1.
          6    1    1    2  501    0  0.14951633777E+02  0.66843128338E+02  0.57234043317E+03  0.60182566131E+03  0.17300000000E+03 0. -1.
         -6    1    1    2    0  503 -0.14951633777E+02 -0.66843128338E+02  0.52044682816E+03  0.55270738741E+03  0.17300000000E+03 0. -1.
</event>
<event>
 4    1  0.6239288E+000  0.1000000E+03  0.7546771E-02  0.1280296E+00
         21   -1    0    0  503  502  0.00000000000E+00  0.00000000000E+00  0.32065798613E+03  0.32065798613E+03  0.00000000000E+00 0. -1.
         21   -1    0    0  501  503 -0.00000000000E+00 -0.00000000000E+00 -0.19699288881E+03  0.19699288881E+03  0.00000000000E+00 0. -1.
          6    1    1    2  501    0  0.68592301836E+02 -0.27302158877E+02 -0.10983552795E+03  0.21781449665E+03  0.17300000000E+03 0. -1.
         -6    1    1    2    0  502 -0.68592301836E+02  0.27302158877E+02  0.23350062527E+03  0.29983637830E+03  0.17300000000E+03 0. -1.
</event>
<event>
 4    1  0.6239288E+000  0.1000000E+03  0.7546771E-02  0.1280296E+00
         21   -1    0    0  501  502  0.00000000000E+00  0.00000000000E+00  0.56091514974E+03  0.56091514974E+03  0.00000000000E+00 0.  1.
         21   -1    0    0  502  503 -0.00000000000E+00 -0.00000000000E+00 -0.48338563929E+03  0.48338563929E+03  0.00000000000E+00 0.  1.
          6    1    1    2  501    0 -0.16126929517E+03 -0.13076254925E+03  0.48508372822E+03  0.55528538000E+03  0.17300000000E+03 0.  1.
         -6    1    1    2    0  503  0.16126929517E+03  0.13076254925E+03 -0.40755421778E+03  0.48901540904E+03  0.17300000000E+03 0.  1.
</event>
<event>
 4    1  0.6239288E+000  0.1000000E+03  0.7546771E-02  0.1280296E+00
         21   -1    0    0  503  502  0.00000000000E+00  0.00000000000E+00  0.17832034804E+03  0.17832034804E+03  0.00000000000E+00 0.  1.
         21   -1    0    0  501  503 -0.00000000000E+00 -0.00000000000E+00 -0.28522261597E+03  0.28522261597E+03  0.00000000000E+00 0. -1.
          6    1    1    2  501    0  0.12020510035E+03 -0.75474877680E+02 -0.24633773218E+02  0.22512562292E+03  0.17300000000E+03 0. -1.
         -6    1    1    2    0  502 -0.12020510035E+03  0.75474877680E+02 -0.82268494713E+02  0.23841734109E+03  0.17300000000E+03 0.  1.
</event>
<event>
 4    1  0.6239288E+000  0.1000000E+03  0.7546771E-02  0.1280296E+00
         21   -1    0    0  503  502  0.00000000000E+00  0.00000000000E+00  0.11670002545E+04  0.11670002545E+04  0.00000000000E+00 0.  1.
         21   -1    0    0  501  503 -0.00000000000E+00 -0.00000000000E+00 -0.59340245790E+02  0.59340245790E+02  0.00000000000E+00 0. -1.
          6    1    1    2  501    0  0.14810210719E+03 -0.98469353071E+02  0.34949065330E+03  0.42860607134E+03  0.17300000000E+03 0. -1.
         -6    1    1    2    0  502 -0.14810210719E+03  0.98469353071E+02  0.75816935545E+03  0.79773442899E+03  0.17300000000E+03 0.  1.
</event>
<event>
 4    1  0.6239288E+000  0.1000000E+03  0.7546771E-02  0.1280296E+00
         21   -1    0    0  501  502  0.00000000000E+00  0.00000000000E+00  0.94709140930E+02  0.94709140930E+02  0.00000000000E+00 0.  1.
         21   -1    0    0  502  503 -0.00000000000E+00 -0.00000000000E+00 -0.20585118662E+04  0.20585118662E+04  0.00000000000E+00 0.  1.
          6    1    1    2  501    0  0.12303464772E+03 -0.31217571403E+03 -0.42353913384E+03  0.56736725220E+03  0.17300000000E+03 0.  1.
         -6    1    1    2    0  503 -0.12303464772E+03  0.31217571403E+03 -0.15402635915E+04  0.15858537550E+04  0.17300000000E+03 0.  1.
</event>
<event>
 4    1  0.6239288E+000  0.1000000E+03  0.7546771E-02  0.1280296E+00
         21   -1    0    0  501  502  0.00000000000E+00  0.00000000000E+00  0.35463493554E+03  0.35463493554E+03  0.00000000000E+00 0.  1.
         21   -1    0    0  502  503 -0.00000000000E+00 -0.00000000000E+00 -0.22057607882E+03  0.22057607882E+03  0.00000000000E+00 0.  1.
          6    1    1    2  501    0  0.10356141867E+03 -0.59090037674E+02  0.25686024964E+03  0.33184753704E+03  0.17300000000E+03 0.  1.
         -6    1    1    2    0  503 -0.10356141867E+03  0.59090037674E+02 -0.12280139293E+03  0.24336347732E+03  0.17300000000E+03 0.  1.
</event>
<event>
 4    1  0.6239288E+000  0.1000000E+03  0.7546771E-02  0.1280296E+00
         21   -1    0    0  501  502  0.00000000000E+00  0.00000000000E+00  0.22959842592E+03  0.22959842592E+03  0.00000000000E+00 0.  1.
         21   -1    0    0  502  503 -0.00000000000E+00 -0.00000000000E+00 -0.21269322907E+03  0.21269322907E+03  0.00000000000E+00 0.  1.
          6    1    1    2  501    0 -0.24119169007E+02 -0.11381735195E+03  0.81779003190E+02  0.22394849694E+03  0.17300000000E+03 0.  1.
         -6    1    1    2    0  503  0.24119169007E+02  0.11381735195E+03 -0.64873806338E+02  0.21834315805E+03  0.17300000000E+03 0.  1.
</event>
<event>
 4    1  0.6239288E+000  0.1000000E+03  0.7546771E-02  0.1280296E+00
         21   -1    0    0  503  502  0.00000000000E+00  0.00000000000E+00  0.62515613908E+03  0.62515613908E+03  0.00000000000E+00 0. -1.
         21   -1    0    0  501  503 -0.00000000000E+00 -0.00000000000E+00 -0.79678043536E+02  0.79678043536E+02  0.00000000000E+00 0.  1.
          6    1    1    2  501    0 -0.61768791978E+02  0.11301258038E+03  0.18209892126E+03  0.28226980729E+03  0.17300000000E+03 0.  1.
         -6    1    1    2    0  502  0.61768791978E+02 -0.11301258038E+03  0.36337917429E+03  0.42256437532E+03  0.17300000000E+03 0. -1.
</event>
<event>
 4    1  0.6239288E+000  0.1000000E+03  0.7546771E-02  0.1280296E+00
         21   -1    0    0  501  502  0.00000000000E+00  0.00000000000E+00  0.16902385011E+03  0.16902385011E+03  0.00000000000E+00 0. -1.
         21   -1    0    0  502  503 -0.00000000000E+00 -0.00000000000E+00 -0.31301890296E+03  0.31301890296E+03  0.00000000000E+00 0. -1.
          6    1    1    2  501    0 -0.86332594559E+02 -0.56191563141E+02  0.44533994751E+02  0.20621126385E+03  0.17300000000E+03 0. -1.
         -6    1    1    2    0  503  0.86332594559E+02  0.56191563141E+02 -0.18852904761E+03  0.27583148922E+03  0.17300000000E+03 0. -1.
</event>
<event>
 4    1  0.6239288E+000  0.1000000E+03  0.7546771E-02  0.1280296E+00
         21   -1    0    0  501  502  0.00000000000E+00  0.00000000000E+00  0.29414906536E+03  0.29414906536E+03  0.00000000000E+00 0.  1.
         21   -1    0    0  502  503 -0.00000000000E+00 -0.00000000000E+00 -0.11704651678E+04  0.11704651678E+04  0.00000000000E+00 0. -1.
          6    1    1    2  501    0 -0.50115997176E+03 -0.13056798355E+02 -0.12482555877E+03  0.54483228373E+03  0.17300000000E+03 0. -1.
         -6    1    1    2    0  503  0.50115997176E+03  0.13056798355E+02 -0.75149054369E+03  0.91978194945E+03  0.17300000000E+03 0. -1.
</event>
<event>
 4    1  0.6239288E+000  0.1000000E+03  0.7546771E-02  0.1280296E+00
         21   -1    0    0  501  502  0.00000000000E+00  0.00000000000E+00  0.32100695662E+02  0.32100695662E+02  0.00000000000E+00 0.  1.
         21   -1    0    0  502  503 -0.00000000000E+00 -0.00000000000E+00 -0.14086553956E+04  0.14086553956E+04  0.00000000000E+00 0. -1.
          6    1    1    2  501    0 -0.60571251441E+02  0.44233132327E+02 -0.35524403799E+03  0.40218499850E+03  0.17300000000E+03 0.  1.
         -6    1    1    2    0  503  0.60571251441E+02 -0.44233132327E+02 -0.10213106619E+04  0.10385710927E+04  0.17300000000E+03 0. -1.
</event>
<event>
 4    1  0.6239288E+000  0.1000000E+03  0.7546771E-02  0.1280296E+00
         21   -1    0    0  501  502  0.00000000000E+00  0.00000000000E+00  0.72415646487E+03  0.72415646487E+03  0.00000000000E+00 0.  1.
         21   -1    0    0  502  503 -0.00000000000E+00 -0.00000000000E+00 -0.31420899000E+03  0.31420899000E+03  0.00000000000E+00 0. -1.
          6    1    1    2  501    0  0.56430900465E+02 -0.41695616138E+03  0.48868296262E+02  0.45755218000E+03  0.17300000000E+03 0.  1.
         -6    1    1    2    0  503 -0.56430900465E+02  0.41695616138E+03  0.36107917860E+03  0.58081327487E+03  0.17300000000E+03 0. -1.
</event>
<event>
 4    1  0.6239288E+000  0.1000000E+03  0.7546771E-02  0.1280296E+00
         21   -1    0    0  501  502  0.00000000000E+00  0.00000000000E+00  0.85461088434E+03  0.85461088434E+03  0.00000000000E+00 0. -1.
         21   -1    0    0  502  503 -0.00000000000E+00 -0.00000000000E+00 -0.17896825563E+03  0.17896825563E+03  0.00000000000E+00 0. -1.
          6    1    1    2  501    0 -0.87888829423E+01 -0.40745125312E+02  0.79801362904E+03  0.81761369963E+03  0.17300000000E+03 0. -1.
         -6    1    1    2    0  503  0.87888829423E+01  0.40745125312E+02 -0.12237100032E+03  0.21596544034E+03  0.17300000000E+03 0. -1.
</event>
<event>
 4    1  0.6239288E+000  0.1000000E+03  0.7546771E-02  0.1280296E+00
         21   -1    0    0  501  502  0.00000000000E+00  0.00000000000E+00  0.17322650115E+03  0.17322650115E+03  0.00000000000E+00 0.  1.
         21   -1    0    0  502  503 -0.00000000000E+00 -0.00000000000E+00 -0.34382754792E+03  0.34382754792E+03  0.00000000000E+00 0.  1.
          6    1    1    2  501    0 -0.11722686494E+03  0.51624984801E+02  0.36515951348E+02  0.21833389939E+03  0.17300000000E+03 0.  1.
         -6    1    1    2    0  503  0.11722686494E+03 -0.51624984801E+02 -0.20711699811E+03  0.29872014968E+03  0.17300000000E+03 0.  1.
</event>
<event>
 4    1  0.6239288E+000  0.1000000E+03  0.7546771E-02  0.1280296E+00
         21   -1    0    0  501  502  0.00000000000E+00  0.00000000000E+00  0.17318038282E+03  0.17318038282E+03  0.00000000000E+00 0.  1.
         21   -1    0    0  502  503 -0.00000000000E+00 -0.00000000000E+00 -0.29653254573E+03  0.29653254573E+03  0.00000000000E+00 0.  1.
          6    1    1    2  501    0 -0.14402112781E+03 -0.22413844683E+02 -0.47765699286E+02  0.23120343362E+03  0.17300000000E+03 0.  1.
         -6    1    1    2    0  503  0.14402112781E+03  0.22413844683E+02 -0.75586463622E+02  0.23850949493E+03  0.17300000000E+03 0.  1.
</event>
<event>
 4    1  0.6239288E+000  0.1000000E+03  0.7546771E-02  0.1280296E+00
         21   -1    0    0  501  502  0.00000000000E+00  0.00000000000E+00  0.58815330159E+03  0.58815330159E+03  0.00000000000E+00 0. -1.
         21   -1    0    0  502  503 -0.00000000000E+00 -0.00000000000E+00 -0.85222232426E+02  0.85222232426E+02  0.00000000000E+00 0.  1.
          6    1    1    2  501    0 -0.10801833504E+03  0.35825294497E+02  0.37945511006E+03  0.43228068772E+03  0.17300000000E+03 0. -1.
         -6    1    1    2    0  503  0.10801833504E+03 -0.35825294497E+02  0.12347595911E+03  0.24109484629E+03  0.17300000000E+03 0.  1.
</event>
<event>
 4    1  0.6239288E+000  0.1000000E+03  0.7546771E-02  0.1280296E+00
         21   -1    0    0  501  502  0.00000000000E+00  0.00000000000E+00  0.46361757901E+03  0.46361757901E+03  0.00000000000E+00 0. -1.
         21   -1    0    0  502  503 -0.00000000000E+00 -0.00000000000E+00 -0.13190456117E+03  0.13190456117E+03  0.00000000000E+00 0. -1.
          6    1    1    2  501    0  0.15537917566E+03  0.83176638121E+02  0.18124020357E+03  0.30632997363E+03  0.17300000000E+03 0. -1.
         -6    1    1    2    0  503 -0.15537917566E+03 -0.83176638121E+02  0.15047281427E+03  0.28919216654E+03  0.17300000000E+03 0. -1.
</event>
<event>
 4    1  0.6239288E+000  0.1000000E+03  0.7546771E-02  0.1280296E+00
         21   -1    0    0  501  502  0.00000000000E+00  0.00000000000E+00  0.91192522969E+03  0.91192522969E+03  0.00000000000E+00 0.  1.
         21   -1    0    0  502  503 -0.00000000000E+00 -0.00000000000E+00 -0.13864223250E+03  0.13864223250E+03  0.00000000000E+00 0.  1.
          6    1    1    2  501    0 -0.30210303756E+02  0.43258894842E+02  0.83889182836E+03  0.85816810365E+03  0.17300000000E+03 0.  1.
         -6    1    1    2    0  503  0.30210303756E+02 -0.43258894842E+02 -0.65608831176E+02  0.19239935853E+03  0.17300000000E+03 0.  1.
</event>
<event>
 4    1  0.6239288E+000  0.1000000E+03  0.7546771E-02  0.1280296E+00
         21   -1    0    0  501  502  0.00000000000E+00  0.00000000000E+00  0.12729464877E+03  0.12729464877E+03  0.00000000000E+00 0.  1.
         21   -1    0    0  502  503 -0.00000000000E+00 -0.00000000000E+00 -0.65344605126E+03  0.65344605126E+03  0.00000000000E+00 0.  1.
          6    1    1    2  501    0  0.11765141144E+02  0.12766264087E+03 -0.33712548555E+01  0.21535211580E+03  0.17300000000E+03 0.  1.
         -6    1    1    2    0  503 -0.11765141144E+02 -0.12766264087E+03 -0.52278014763E+03  0.56538858423E+03  0.17300000000E+03 0.  1.
</event>
<event>
 4    1  0.6239288E+000  0.1000000E+03  0.7546771E-02  0.1280296E+00
         21   -1    0    0  501  502  0.00000000000E+00  0.00000000000E+00  0.68668771065E+02  0.68668771065E+02  0.00000000000E+00 0.  1.
         21   -1    0    0  502  503 -0.00000000000E+00 -0.00000000000E+00 -0.19330849898E+04  0.19330849898E+04  0.00000000000E+00 0.  1.
          6    1    1    2  501    0  0.80347584097E+02  0.21182807037E+03 -0.30887083883E+03  0.42030591329E+03  0.17300000000E+03 0.  1.
         -6    1    1    2    0  503 -0.80347584097E+02 -0.21182807037E+03 -0.15555453799E+04  0.15814478476E+04  0.17300000000E+03 0.  1.
</event>
<event>
 4    1  0.6239288E+000  0.1000000E+03  0.7546771E-02  0.1280296E+00
         21   -1    0    0  503  502  0.00000000000E+00  0.00000000000E+00  0.99786637246E+03  0.99786637246E+03  0.00000000000E+00 0.  1.
         21   -1    0    0  501  503 -0.00000000000E+00 -0.00000000000E+00 -0.61460845639E+02  0.61460845639E+02  0.00000000000E+00 0. -1.
          6    1    1    2  501    0 -0.92224880440E+02 -0.80070459356E+02  0.19360560906E+03  0.28693002439E+03  0.17300000000E+03 0.  1.
         -6    1    1    2    0  502  0.92224880440E+02  0.80070459356E+02  0.74279991776E+03  0.77239719372E+03  0.17300000000E+03 0.  1.
</event>
<event>
 4    1  0.6239288E+000  0.1000000E+03  0.7546771E-02  0.1280296E+00
         21   -1    0    0  501  502  0.00000000000E+00  0.00000000000E+00  0.11456230174E+04  0.11456230174E+04  0.00000000000E+00 0. -1.
         21   -1    0    0  502  503 -0.00000000000E+00 -0.00000000000E+00 -0.26971329467E+03  0.26971329467E+03  0.00000000000E+00 0.  1.
          6    1    1    2  501    0  0.13459108331E+03 -0.43082198753E+02  0.10859665982E+04  0.11087034265E+04  0.17300000000E+03 0. -1.
         -6    1    1    2    0  503 -0.13459108331E+03  0.43082198753E+02 -0.21005687548E+03  0.30663288554E+03  0.17300000000E+03 0.  1.
</event>
<event>
 4    1  0.6239288E+000  0.1000000E+03  0.7546771E-02  0.1280296E+00
         21   -1    0    0  501  502  0.00000000000E+00  0.00000000000E+00  0.97875289352E+02  0.97875289352E+02  0.00000000000E+00 0.  1.
         21   -1    0    0  502  503 -0.00000000000E+00 -0.00000000000E+00 -0.14777506096E+04  0.14777506096E+04  0.00000000000E+00 0. -1.
          6    1    1    2  501    0  0.15001855789E+03  0.30361826626E+03 -0.69839010982E+03  0.79521529463E+03  0.17300000000E+03 0. -1.
         -6    1    1    2    0  503 -0.15001855789E+03 -0.30361826626E+03 -0.68148521046E+03  0.78041060436E+03  0.17300000000E+03 0. -1.
</event>
<event>
 4    1  0.6239288E+000  0.1000000E+03  0.7546771E-02  0.1280296E+00
         21   -1    0    0  501  502  0.00000000000E+00  0.00000000000E+00  0.10376309315E+04  0.10376309315E+04  0.00000000000E+00 0.  1.
         21   -1    0    0  502  503 -0.00000000000E+00 -0.00000000000E+00 -0.18885625685E+03  0.18885625685E+03  0.00000000000E+00 0. -1.
          6    1    1    2  501    0  0.24908710337E+02  0.67848521932E+02  0.97991118928E+03  0.99768672671E+03  0.17300000000E+03 0. -1.
         -6    1    1    2    0  503 -0.24908710337E+02 -0.67848521932E+02 -0.13113651463E+03  0.22880046164E+03  0.17300000000E+03 0. -1.
</event>
<event>
 4    1  0.6239288E+000  0.1000000E+03  0.7546771E-02  0.1280296E+00
         21   -1    0    0  501  502  0.00000000000E+00  0.00000000000E+00  0.14318061331E+03  0.14318061331E+03  0.00000000000E+00 0.  1.
         21   -1    0    0  502  503 -0.00000000000E+00 -0.00000000000E+00 -0.56497251140E+03  0.56497251140E+03  0.00000000000E+00 0. -1.
          6    1    1    2  501    0 -0.53945260589E+02 -0.15695308809E+03 -0.20379482610E+02  0.24060067812E+03  0.17300000000E+03 0. -1.
         -6    1    1    2    0  503  0.53945260589E+02  0.15695308809E+03 -0.40141241548E+03  0.46755244658E+03  0.17300000000E+03 0. -1.
</event>
<event>
 4    1  0.6239288E+000  0.1000000E+03  0.7546771E-02  0.1280296E+00
         21   -1    0    0  501  502  0.00000000000E+00  0.00000000000E+00  0.34681698741E+03  0.34681698741E+03  0.00000000000E+00 0.  1.
         21   -1    0    0  502  503 -0.00000000000E+00 -0.00000000000E+00 -0.15398065017E+03  0.15398065017E+03  0.00000000000E+00 0. -1.
          6    1    1    2  501    0 -0.25142148089E+02 -0.14131485199E+03  0.38348672387E+02  0.22803867145E+03  0.17300000000E+03 0. -1.
         -6    1    1    2    0  503  0.25142148089E+02  0.14131485199E+03  0.15448766485E+03  0.27275896612E+03  0.17300000000E+03 0. -1.
</event>
<event>
 4    1  0.6239288E+000  0.1000000E+03  0.7546771E-02  0.1280296E+00
         21   -1    0    0  503  502  0.00000000000E+00  0.00000000000E+00  0.26298526770E+03  0.26298526770E+03  0.00000000000E+00 0. -1.
         21   -1    0    0  501  503 -0.00000000000E+00 -0.00000000000E+00 -0.21376621038E+03  0.21376621038E+03  0.00000000000E+00 0.  1.
          6    1    1    2  501    0 -0.76813773996E+02  0.66356183806E+01 -0.11878901436E+03  0.22357150364E+03  0.17300000000E+03 0. -1.
         -6    1    1    2    0  502  0.76813773996E+02 -0.66356183806E+01  0.16800807169E+03  0.25317997444E+03  0.17300000000E+03 0.  1.
</event>
<event>
 4    1  0.6239288E+000  0.1000000E+03  0.7546771E-02  0.1280296E+00
         21   -1    0    0  503  502  0.00000000000E+00  0.00000000000E+00  0.55228951086E+02  0.55228951086E+02  0.00000000000E+00 0.  1.
         21   -1    0    0  501  503 -0.00000000000E+00 -0.00000000000E+00 -0.80459750502E+03  0.80459750502E+03  0.00000000000E+00 0.  1.
          6    1    1    2  501    0  0.35720374332E+02  0.30459787883E+01 -0.60919929346E+03  0.63430119209E+03  0.17300000000E+03 0.  1.
         -6    1    1    2    0  502 -0.35720374332E+02 -0.30459787883E+01 -0.14016926047E+03  0.22552526402E+03  0.17300000000E+03 0.  1.
</event>
<event>
 4    1  0.6239288E+000  0.1000000E+03  0.7546771E-02  0.1280296E+00
         21   -1    0    0  503  502  0.00000000000E+00  0.00000000000E+00  0.17304074407E+03  0.17304074407E+03  0.00000000000E+00 0. -1.
         21   -1    0    0  501  503 -0.00000000000E+00 -0.00000000000E+00 -0.27343729466E+03  0.27343729466E+03  0.00000000000E+00 0. -1.
          6    1    1    2  501    0  0.84379132247E+02 -0.13769676664E+02 -0.15322270923E+03  0.24640543942E+03  0.17300000000E+03 0. -1.
         -6    1    1    2    0  502 -0.84379132247E+02  0.13769676664E+02  0.52826158636E+02  0.20007259930E+03  0.17300000000E+03 0. -1.
</event>
<event>
 4    1  0.6239288E+000  0.1000000E+03  0.7546771E-02  0.1280296E+00
         21   -1    0    0  503  502  0.00000000000E+00  0.00000000000E+00  0.15570411689E+03  0.15570411689E+03  0.00000000000E+00 0. -1.
         21   -1    0    0  501  503 -0.00000000000E+00 -0.00000000000E+00 -0.10568453089E+04  0.10568453089E+04  0.00000000000E+00 0. -1.
          6    1    1    2  501    0 -0.53846711408E+02  0.18089430964E+03 -0.92083266139E+03  0.95576357425E+03  0.17300000000E+03 0. -1.
         -6    1    1    2    0  502  0.53846711408E+02 -0.18089430964E+03  0.19691469360E+02  0.25678585155E+03  0.17300000000E+03 0. -1.
</event>
<event>
 4    1  0.6239288E+000  0.1000000E+03  0.7546771E-02  0.1280296E+00
         21   -1    0    0  503  502  0.00000000000E+00  0.00000000000E+00  0.49260953878E+03  0.49260953878E+03  0.00000000000E+00 0. -1.
         21   -1    0    0  501  503 -0.00000000000E+00 -0.00000000000E+00 -0.16520718881E+03  0.16520718881E+03  0.00000000000E+00 0. -1.
          6    1    1    2  501    0 -0.19641168035E+02  0.15197968227E+03 -0.29120372758E+02  0.23293903798E+03  0.17300000000E+03 0. -1.
         -6    1    1    2    0  502  0.19641168035E+02 -0.15197968227E+03  0.35652272273E+03  0.42487768961E+03  0.17300000000E+03 0. -1.
</event>
<event>
 4    1  0.6239288E+000  0.1000000E+03  0.7546771E-02  0.1280296E+00
         21   -1    0    0  501  502  0.00000000000E+00  0.00000000000E+00  0.69854338146E+03  0.69854338146E+03  0.00000000000E+00 0. -1.
         21   -1    0    0  502  503 -0.00000000000E+00 -0.00000000000E+00 -0.93004029434E+02  0.93004029434E+02  0.00000000000E+00 0. -1.
          6    1    1    2  501    0 -0.76763705098E+00 -0.54509859897E+01  0.59329453781E+03  0.61802727376E+03  0.17300000000E+03 0. -1.
         -6    1    1    2    0  503  0.76763705098E+00  0.54509859897E+01  0.12244814212E+02  0.17352013713E+03  0.17300000000E+03 0. -1.
</event>
<event>
 4    1  0.6239288E+000  0.1000000E+03  0.7546771E-02  0.1280296E+00
         21   -1    0    0  501  502  0.00000000000E+00  0.00000000000E+00  0.47528583496E+03  0.47528583496E+03  0.00000000000E+00 0. -1.
         21   -1    0    0  502  503 -0.00000000000E+00 -0.00000000000E+00 -0.23208492519E+03  0.23208492519E+03  0.00000000000E+00 0. -1.
          6    1    1    2  501    0  0.12450927835E+02  0.12809783830E+03  0.39061317424E+03  0.44617455516E+03  0.17300000000E+03 0. -1.
         -6    1    1    2    0  503 -0.12450927835E+02 -0.12809783830E+03 -0.14741226447E+03  0.26119620498E+03  0.17300000000E+03 0. -1.
</event>
<event>
 4    1  0.6239288E+000  0.1000000E+03  0.7546771E-02  0.1280296E+00
         21   -1    0    0  501  502  0.00000000000E+00  0.00000000000E+00  0.17561616678E+03  0.17561616678E+03  0.00000000000E+00 0. -1.
         21   -1    0    0  502  503 -0.00000000000E+00 -0.00000000000E+00 -0.47642322496E+03  0.47642322496E+03  0.00000000000E+00 0. -1.
          6    1    1    2  501    0  0.32505115470E+02 -0.33907086655E+02  0.10545805961E+03  0.20798239203E+03  0.17300000000E+03 0. -1.
         -6    1    1    2    0  503 -0.32505115470E+02  0.33907086655E+02 -0.40626511780E+03  0.44405699971E+03  0.17300000000E+03 0. -1.
</event>
<event>
 4    1  0.6239288E+000  0.1000000E+03  0.7546771E-02  0.1280296E+00
         21   -1    0    0  503  502  0.00000000000E+00  0.00000000000E+00  0.15039157090E+03  0.15039157090E+03  0.00000000000E+00 0.  1.
         21   -1    0    0  501  503 -0.00000000000E+00 -0.00000000000E+00 -0.30939634831E+03  0.30939634831E+03  0.00000000000E+00 0.  1.
          6    1    1    2  501    0 -0.93394155841E+01 -0.10749431276E+03 -0.15455583510E+03  0.25584909248E+03  0.17300000000E+03 0. -1.
         -6    1    1    2    0  502  0.93394155841E+01  0.10749431276E+03 -0.44489423056E+01  0.20393882673E+03  0.17300000000E+03 0. -1.
</event>
<event>
 4    1  0.6239288E+000  0.1000000E+03  0.7546771E-02  0.1280296E+00
         21   -1    0    0  503  502  0.00000000000E+00  0.00000000000E+00  0.37994037322E+03  0.37994037322E+03  0.00000000000E+00 0.  1.
         21   -1    0    0  501  503 -0.00000000000E+00 -0.00000000000E+00 -0.19593942638E+03  0.19593942638E+03  0.00000000000E+00 0.  1.
          6    1    1    2  501    0  0.12124752572E+03 -0.35595523781E+02 -0.86308540515E+02  0.23096789381E+03  0.17300000000E+03 0. -1.
         -6    1    1    2    0  502 -0.12124752572E+03  0.35595523781E+02  0.27030948735E+03  0.34491190579E+03  0.17300000000E+03 0. -1.
</event>
<event>
 4    1  0.6239288E+000  0.1000000E+03  0.7546771E-02  0.1280296E+00
         21   -1    0    0  501  502  0.00000000000E+00  0.00000000000E+00  0.17982321446E+03  0.17982321446E+03  0.00000000000E+00 0.  1.
         21   -1    0    0  502  503 -0.00000000000E+00 -0.00000000000E+00 -0.19326972614E+03  0.19326972614E+03  0.00000000000E+00 0. -1.
          6    1    1    2  501    0 -0.54650423272E+02 -0.24819622532E+02  0.28266617739E+02  0.18528541255E+03  0.17300000000E+03 0.  1.
         -6    1    1    2    0  503  0.54650423272E+02  0.24819622532E+02 -0.41713129418E+02  0.18780752805E+03  0.17300000000E+03 0. -1.
</event>
<event>
 4    1  0.6239288E+000  0.1000000E+03  0.7546771E-02  0.1280296E+00
         21   -1    0    0  501  502  0.00000000000E+00  0.00000000000E+00  0.40898422970E+02  0.40898422970E+02  0.00000000000E+00 0.  1.
         21   -1    0    0  502  503 -0.00000000000E+00 -0.00000000000E+00 -0.14875069649E+04  0.14875069649E+04  0.00000000000E+00 0.  1.
          6    1    1    2  501    0 -0.62035640307E+02  0.46456332043E+02 -0.23438759561E+03  0.30145174810E+03  0.17300000000E+03 0.  1.
         -6    1    1    2    0  503  0.62035640307E+02 -0.46456332043E+02 -0.12122209463E+04  0.12269536398E+04  0.17300000000E+03 0.  1.
</event>
<event>
 4    1  0.6239288E+000  0.1000000E+03  0.7546771E-02  0.1280296E+00
         21   -1    0    0  501  502  0.00000000000E+00  0.00000000000E+00  0.53043933417E+03  0.53043933417E+03  0.00000000000E+00 0.  1.
         21   -1    0    0  502  503 -0.00000000000E+00 -0.00000000000E+00 -0.22015307491E+03  0.22015307491E+03  0.00000000000E+00 0.  1.
          6    1    1    2  501    0 -0.73672319316E+02  0.13205868893E+03  0.43293655678E+03  0.49013280869E+03  0.17300000000E+03 0.  1.
         -6    1    1    2    0  503  0.73672319316E+02 -0.13205868893E+03 -0.12265029753E+03  0.26045960040E+03  0.17300000000E+03 0.  1.
</event>
<event>
 4    1  0.6239288E+000  0.1000000E+03  0.7546771E-02  0.1280296E+00
         21   -1    0    0  501  502  0.00000000000E+00  0.00000000000E+00  0.73529122895E+02  0.73529122895E+02  0.00000000000E+00 0.  1.
         21   -1    0    0  502  503 -0.00000000000E+00 -0.00000000000E+00 -0.19560331763E+04  0.19560331763E+04  0.00000000000E+00 0.  1.
          6    1    1    2  501    0 -0.12326221525E+03 -0.56859657266E+02 -0.11447648950E+03  0.24791220418E+03  0.17300000000E+03 0.  1.
         -6    1    1    2    0  503  0.12326221525E+03  0.56859657266E+02 -0.17680275639E+04  0.17816500950E+04  0.17300000000E+03 0.  1.
</event>
<event>
 4    1  0.6239288E+000  0.1000000E+03  0.7546771E-02  0.1280296E+00
         21   -1    0    0  501  502  0.00000000000E+00  0.00000000000E+00  0.69003899444E+02  0.69003899444E+02  0.00000000000E+00 0.  1.
         21   -1    0    0  502  503 -0.00000000000E+00 -0.00000000000E+00 -0.70923254719E+03  0.70923254719E+03  0.00000000000E+00 0.  1.
          6    1    1    2  501    0  0.79136066437E+02 -0.11161427036E+03 -0.29013235673E+03  0.36445307898E+03  0.17300000000E+03 0.  1.
         -6    1    1    2    0  503 -0.79136066437E+02  0.11161427036E+03 -0.35009629102E+03  0.41378336765E+03  0.17300000000E+03 0.  1.
</event>
<event>
 4    1  0.6239288E+000  0.1000000E+03  0.7546771E-02  0.1280296E+00
         21   -1    0    0  501  502  0.00000000000E+00  0.00000000000E+00  0.19979504547E+03  0.19979504547E+03  0.00000000000E+00 0.  1.
         21   -1    0    0  502  503 -0.00000000000E+00 -0.00000000000E+00 -0.21262035531E+03  0.21262035531E+03  0.00000000000E+00 0. -1.
          6    1    1    2  501    0  0.10093537370E+02  0.10512906613E+02  0.10472256630E+03  0.20275161305E+03  0.17300000000E+03 0.  1.
         -6    1    1    2    0  503 -0.10093537370E+02 -0.10512906613E+02 -0.11754787614E+03  0.20966378773E+03  0.17300000000E+03 0.  1.
</event>
<event>
 4    1  0.6239288E+000  0.1000000E+03  0.7546771E-02  0.1280296E+00
         21   -1    0    0  501  502  0.00000000000E+00  0.00000000000E+00  0.14344104880E+03  0.14344104880E+03  0.00000000000E+00 0.  1.
         21   -1    0    0  502  503 -0.00000000000E+00 -0.00000000000E+00 -0.55199026678E+03  0.55199026678E+03  0.00000000000E+00 0. -1.
          6    1    1    2  501    0  0.19598868355E+03  0.77381789392E+02 -0.11822025216E+03  0.29716078717E+03  0.17300000000E+03 0.  1.
         -6    1    1    2    0  503 -0.19598868355E+03 -0.77381789392E+02 -0.29032896581E+03  0.39827052841E+03  0.17300000000E+03 0. -1.
</event>
<event>
 4    1  0.6239288E+000  0.1000000E+03  0.7546771E-02  0.1280296E+00
         21   -1    0    0  501  502  0.00000000000E+00  0.00000000000E+00  0.39199720010E+03  0.39199720010E+03  0.00000000000E+00 0.  1.
         21   -1    0    0  502  503 -0.00000000000E+00 -0.00000000000E+00 -0.14261790597E+03  0.14261790597E+03  0.00000000000E+00 0. -1.
          6    1    1    2  501    0  0.57791057751E+02 -0.12948665834E+03  0.21130798853E+03  0.30771198719E+03  0.17300000000E+03 0.  1.
         -6    1    1    2    0  503 -0.57791057751E+02  0.12948665834E+03  0.38071305604E+02  0.22690311888E+03  0.17300000000E+03 0. -1.
</event>
<event>
 4    1  0.6239288E+000  0.1000000E+03  0.7546771E-02  0.1280296E+00
         21   -1    0    0  503  502  0.00000000000E+00  0.00000000000E+00  0.33728609016E+02  0.33728609016E+02  0.00000000000E+00 0.  1.
         21   -1    0    0  501  503 -0.00000000000E+00 -0.00000000000E+00 -0.96605337671E+03  0.96605337671E+03  0.00000000000E+00 0. -1.
          6    1    1    2  501    0 -0.35609431525E+02 -0.11672237597E+02 -0.36823734653E+03  0.40857314660E+03  0.17300000000E+03 0.  1.
         -6    1    1    2    0  502  0.35609431525E+02  0.11672237597E+02 -0.56408742117E+03  0.59120883913E+03  0.17300000000E+03 0. -1.
</event>
<event>
 4    1  0.6239288E+000  0.1000000E+03  0.7546771E-02  0.1280296E+00
         21   -1    0    0  503  502  0.00000000000E+00  0.00000000000E+00  0.15845528404E+04  0.15845528404E+04  0.00000000000E+00 0.  1.
         21   -1    0    0  501  503 -0.00000000000E+00 -0.00000000000E+00 -0.13756014654E+03  0.13756014654E+03  0.00000000000E+00 0.  1.
          6    1    1    2  501    0 -0.31675042955E+03  0.27262853914E+03  0.51012119261E+03  0.68176959901E+03  0.17300000000E+03 0.  1.
         -6    1    1    2    0  502  0.31675042955E+03 -0.27262853914E+03  0.93687150130E+03  0.10403433880E+04  0.17300000000E+03 0.  1.
</event>
<event>
 4    1  0.6239288E+000  0.1000000E+03  0.7546771E-02  0.1280296E+00
         21   -1    0    0  503  502  0.00000000000E+00  0.00000000000E+00  0.13682301765E+04  0.13682301765E+04  0.00000000000E+00 0.  1.
         21   -1    0    0  501  503 -0.00000000000E+00 -0.00000000000E+00 -0.31509341556E+02  0.31509341556E+02  0.00000000000E+00 0.  1.
          6    1    1    2  501    0  0.79914061889E+02  0.26083369524E+02  0.40474726434E+03  0.44812492392E+03  0.17300000000E+03 0.  1.
         -6    1    1    2    0  502 -0.79914061889E+02 -0.26083369524E+02  0.93197357057E+03  0.95161459410E+03  0.17300000000E+03 0.  1.
</event>
<event>
 4    1  0.6239288E+000  0.1000000E+03  0.7546771E-02  0.1280296E+00
         21   -1    0    0  503  502  0.00000000000E+00  0.00000000000E+00  0.63515115450E+03  0.63515115450E+03  0.00000000000E+00 0.  1.
         21   -1    0    0  501  503 -0.00000000000E+00 -0.00000000000E+00 -0.49352108546E+03  0.49352108546E+03  0.00000000000E+00 0.  1.
          6    1    1    2  501    0  0.27455687843E+02 -0.21921900538E+03 -0.41752478875E+03  0.50305738871E+03  0.17300000000E+03 0.  1.
         -6    1    1    2    0  502 -0.27455687843E+02  0.21921900538E+03  0.55915485778E+03  0.62561485125E+03  0.17300000000E+03 0.  1.
</event>
<event>
 4    1  0.6239288E+000  0.1000000E+03  0.7546771E-02  0.1280296E+00
         21   -1    0    0  503  502  0.00000000000E+00  0.00000000000E+00  0.42829752443E+03  0.42829752443E+03  0.00000000000E+00 0.  1.
         21   -1    0    0  501  503 -0.00000000000E+00 -0.00000000000E+00 -0.44124732221E+03  0.44124732221E+03  0.00000000000E+00 0.  1.
          6    1    1    2  501    0  0.27062506303E+03  0.33514853102E+02 -0.29753117234E+03  0.43910701273E+03  0.17300000000E+03 0.  1.
         -6    1    1    2    0  502 -0.27062506303E+03 -0.33514853102E+02  0.28458137456E+03  0.43043783391E+03  0.17300000000E+03 0.  1.
</event>
<event>
 4    1  0.6239288E+000  0.1000000E+03  0.7546771E-02  0.1280296E+00
         21   -1    0    0  503  502  0.00000000000E+00  0.00000000000E+00  0.48117865770E+03  0.48117865770E+03  0.00000000000E+00 0.  1.
         21   -1    0    0  501  503 -0.00000000000E+00 -0.00000000000E+00 -0.10794833983E+03  0.10794833983E+03  0.00000000000E+00 0.  1.
          6    1    1    2  501    0  0.34645389686E+02 -0.63088394561E+02  0.18928549433E+02  0.18832880432E+03  0.17300000000E+03 0.  1.
         -6    1    1    2    0  502 -0.34645389686E+02  0.63088394561E+02  0.35430176844E+03  0.40079819320E+03  0.17300000000E+03 0.  1.
</event>
<event>
 4    1  0.6239288E+000  0.1000000E+03  0.7546771E-02  0.1280296E+00
         21   -1    0    0  503  502  0.00000000000E+00  0.00000000000E+00  0.45896393876E+02  0.45896393876E+02  0.00000000000E+00 0. -1.
         21   -1    0    0  501  503 -0.00000000000E+00 -0.00000000000E+00 -0.76312813103E+03  0.76312813103E+03  0.00000000000E+00 0. -1.
          6    1    1    2  501    0 -0.54763497613E+02 -0.43807632750E+02 -0.32980456857E+03  0.37896992336E+03  0.17300000000E+03 0. -1.
         -6    1    1    2    0  502  0.54763497613E+02  0.43807632750E+02 -0.38742716858E+03  0.43005460155E+03  0.17300000000E+03 0. -1.
</event>
<event>
 4    1  0.6239288E+000  0.1000000E+03  0.7546771E-02  0.1280296E+00
         21   -1    0    0  503  502  0.00000000000E+00  0.00000000000E+00  0.33714085710E+03  0.33714085710E+03  0.00000000000E+00 0. -1.
         21   -1    0    0  501  503 -0.00000000000E+00 -0.00000000000E+00 -0.29368194679E+03  0.29368194679E+03  0.00000000000E+00 0. -1.
          6    1    1    2  501    0  0.68533176972E+02  0.16258559185E+03 -0.17354803763E+03  0.30195826266E+03  0.17300000000E+03 0. -1.
         -6    1    1    2    0  502 -0.68533176972E+02 -0.16258559185E+03  0.21700694794E+03  0.32886454123E+03  0.17300000000E+03 0. -1.
</event>
<event>
 4    1  0.6239288E+000  0.1000000E+03  0.7546771E-02  0.1280296E+00
         21   -1    0    0  503  502  0.00000000000E+00  0.00000000000E+00  0.19196427035E+03  0.19196427035E+03  0.00000000000E+00 0. -1.
         21   -1    0    0  501  503 -0.00000000000E+00 -0.00000000000E+00 -0.13250339617E+04  0.13250339617E+04  0.00000000000E+00 0. -1.
          6    1    1    2  501    0 -0.10474158799E+03 -0.30490017453E+03 -0.10885899618E+04  0.11484302424E+04  0.17300000000E+03 0. -1.
         -6    1    1    2    0  502  0.10474158799E+03  0.30490017453E+03 -0.44479729565E+02  0.36856798969E+03  0.17300000000E+03 0. -1.
</event>
<event>
 4    1  0.6239288E+000  0.1000000E+03  0.7546771E-02  0.1280296E+00
         21   -1    0    0  503  502  0.00000000000E+00  0.00000000000E+00  0.60929592749E+02  0.60929592749E+02  0.00000000000E+00 0. -1.
         21   -1    0    0  501  503 -0.00000000000E+00 -0.00000000000E+00 -0.12651903926E+04  0.12651903926E+04  0.00000000000E+00 0.  1.
          6    1    1    2  501    0  0.68366106076E+02  0.12533082371E+02 -0.10934591995E+04  0.11092398405E+04  0.17300000000E+03 0.  1.
         -6    1    1    2    0  502 -0.68366106076E+02 -0.12533082371E+02 -0.11080160031E+03  0.21688014488E+03  0.17300000000E+03 0. -1.
</event>
<event>
 4    1  0.6239288E+000  0.1000000E+03  0.7546771E-02  0.1280296E+00
         21   -1    0    0  501  502  0.00000000000E+00  0.00000000000E+00  0.10052653770E+04  0.10052653770E+04  0.00000000000E+00 0.  1.
         21   -1    0    0  502  503 -0.00000000000E+00 -0.00000000000E+00 -0.35703326677E+02  0.35703326677E+02  0.00000000000E+00 0. -1.
          6    1    1    2  501    0 -0.49309445220E+02 -0.14342763727E+01  0.64798432395E+03  0.67249250005E+03  0.17300000000E+03 0.  1.
         -6    1    1    2    0  503  0.49309445220E+02  0.14342763727E+01  0.32157772633E+03  0.36847620359E+03  0.17300000000E+03 0. -1.
</event>
<event>
 4    1  0.6239288E+000  0.1000000E+03  0.7546771E-02  0.1280296E+00
         21   -1    0    0  501  502  0.00000000000E+00  0.00000000000E+00  0.18289591881E+03  0.18289591881E+03  0.00000000000E+00 0.  1.
         21   -1    0    0  502  503 -0.00000000000E+00 -0.00000000000E+00 -0.28847246756E+03  0.28847246756E+03  0.00000000000E+00 0. -1.
          6    1    1    2  501    0  0.43896653709E+02  0.12550309116E+03 -0.12644750698E+03  0.25218230334E+03  0.17300000000E+03 0.  1.
         -6    1    1    2    0  503 -0.43896653709E+02 -0.12550309116E+03  0.20870958225E+02  0.21918608303E+03  0.17300000000E+03 0. -1.
</event>
<event>
 4    1  0.6239288E+000  0.1000000E+03  0.7546771E-02  0.1280296E+00
         21   -1    0    0  501  502  0.00000000000E+00  0.00000000000E+00  0.14375140600E+03  0.14375140600E+03  0.00000000000E+00 0.  1.
         21   -1    0    0  502  503 -0.00000000000E+00 -0.00000000000E+00 -0.43284596009E+03  0.43284596009E+03  0.00000000000E+00 0. -1.
          6    1    1    2  501    0  0.77236779667E+02  0.15537081965E+03 -0.90489990814E+02  0.26119542525E+03  0.17300000000E+03 0.  1.
         -6    1    1    2    0  503 -0.77236779667E+02 -0.15537081965E+03 -0.19860456327E+03  0.31540194084E+03  0.17300000000E+03 0. -1.
</event>
<event>
 4    1  0.6239288E+000  0.1000000E+03  0.7546771E-02  0.1280296E+00
         21   -1    0    0  501  502  0.00000000000E+00  0.00000000000E+00  0.16457296086E+03  0.16457296086E+03  0.00000000000E+00 0.  1.
         21   -1    0    0  502  503 -0.00000000000E+00 -0.00000000000E+00 -0.38564778655E+03  0.38564778655E+03  0.00000000000E+00 0. -1.
          6    1    1    2  501    0 -0.16167229992E+03 -0.72337772185E+02 -0.59696530092E+02  0.25468286466E+03  0.17300000000E+03 0.  1.
         -6    1    1    2    0  503  0.16167229992E+03  0.72337772185E+02 -0.16137829560E+03  0.29553788274E+03  0.17300000000E+03 0. -1.
</event>
<event>
 4    1  0.6239288E+000  0.1000000E+03  0.7546771E-02  0.1280296E+00
         21   -1    0    0  501  502  0.00000000000E+00  0.00000000000E+00  0.37725240127E+03  0.37725240127E+03  0.00000000000E+00 0. -1.
         21   -1    0    0  502  503 -0.00000000000E+00 -0.00000000000E+00 -0.42955236067E+03  0.42955236067E+03  0.00000000000E+00 0. -1.
          6    1    1    2  501    0 -0.13349552033E+03 -0.72534337076E+02  0.30475559377E+03  0.38195190265E+03  0.17300000000E+03 0. -1.
         -6    1    1    2    0  503  0.13349552033E+03  0.72534337076E+02 -0.35705555317E+03  0.42485285930E+03  0.17300000000E+03 0. -1.
</event>
<event>
 4    1  0.6239288E+000  0.1000000E+03  0.7546771E-02  0.1280296E+00
         21   -1    0    0  501  502  0.00000000000E+00  0.00000000000E+00  0.73875585873E+03  0.73875585873E+03  0.00000000000E+00 0. -1.
         21   -1    0    0  502  503 -0.00000000000E+00 -0.00000000000E+00 -0.47623355907E+02  0.47623355907E+02  0.00000000000E+00 0. -1.
          6    1    1    2  501    0 -0.89311259436E+01 -0.41509438493E+02  0.46869681920E+03  0.50140652850E+03  0.17300000000E+03 0. -1.
         -6    1    1    2    0  503  0.89311259436E+01  0.41509438493E+02  0.22243568362E+03  0.28497268613E+03  0.17300000000E+03 0. -1.
</event>
<event>
 4    1  0.6239288E+000  0.1000000E+03  0.7546771E-02  0.1280296E+00
         21   -1    0    0  501  502  0.00000000000E+00  0.00000000000E+00  0.34585464871E+02  0.34585464871E+02  0.00000000000E+00 0. -1.
         21   -1    0    0  502  503 -0.00000000000E+00 -0.00000000000E+00 -0.13559802228E+04  0.13559802228E+04  0.00000000000E+00 0. -1.
          6    1    1    2  501    0  0.18368765942E+01  0.56409823025E+02 -0.28377129838E+03  0.33710620290E+03  0.17300000000E+03 0. -1.
         -6    1    1    2    0  503 -0.18368765942E+01 -0.56409823025E+02 -0.10376234596E+04  0.10534594848E+04  0.17300000000E+03 0. -1.
</event>
<event>
 4    1  0.6239288E+000  0.1000000E+03  0.7546771E-02  0.1280296E+00
         21   -1    0    0  501  502  0.00000000000E+00  0.00000000000E+00  0.26145861115E+03  0.26145861115E+03  0.00000000000E+00 0. -1.
         21   -1    0    0  502  503 -0.00000000000E+00 -0.00000000000E+00 -0.42304796482E+03  0.42304796482E+03  0.00000000000E+00 0. -1.
          6    1    1    2  501    0  0.91540566499E+02  0.63762232915E+02  0.18802168371E+03  0.27879463984E+03  0.17300000000E+03 0. -1.
         -6    1    1    2    0  503 -0.91540566499E+02 -0.63762232915E+02 -0.34961103738E+03  0.40571193613E+03  0.17300000000E+03 0. -1.
</event>
<event>
 4    1  0.6239288E+000  0.1000000E+03  0.7546771E-02  0.1280296E+00
         21   -1    0    0  501  502  0.00000000000E+00  0.00000000000E+00  0.36528505985E+03  0.36528505985E+03  0.00000000000E+00 0.  1.
         21   -1    0    0  502  503 -0.00000000000E+00 -0.00000000000E+00 -0.25426916953E+03  0.25426916953E+03  0.00000000000E+00 0.  1.
          6    1    1    2  501    0  0.11023253386E+02  0.77084791477E+02  0.29794412646E+03  0.35321845886E+03  0.17300000000E+03 0.  1.
         -6    1    1    2    0  503 -0.11023253386E+02 -0.77084791477E+02 -0.18692823614E+03  0.26633577052E+03  0.17300000000E+03 0.  1.
</event>
<event>
 4    1  0.6239288E+000  0.1000000E+03  0.7546771E-02  0.1280296E+00
         21   -1    0    0  501  502  0.00000000000E+00  0.00000000000E+00  0.93863272758E+02  0.93863272758E+02  0.00000000000E+00 0.  1.
         21   -1    0    0  502  503 -0.00000000000E+00 -0.00000000000E+00 -0.15595282662E+04  0.15595282662E+04  0.00000000000E+00 0.  1.
          6    1    1    2  501    0 -0.23879583321E+03  0.17656297084E+03 -0.36962676059E+03  0.50472851591E+03  0.17300000000E+03 0.  1.
         -6    1    1    2    0  503  0.23879583321E+03 -0.17656297084E+03 -0.10960382328E+04  0.11486630230E+04  0.17300000000E+03 0.  1.
</event>
<event>
 4    1  0.6239288E+000  0.1000000E+03  0.7546771E-02  0.1280296E+00
         21   -1    0    0  501  502  0.00000000000E+00  0.00000000000E+00  0.94078062931E+02  0.94078062931E+02  0.00000000000E+00 0.  1.
         21   -1    0    0  502  503 -0.00000000000E+00 -0.00000000000E+00 -0.42485592793E+03  0.42485592793E+03  0.00000000000E+00 0.  1.
          6    1    1    2  501    0  0.95123636463E+01 -0.59102835637E+02 -0.61101436792E+02  0.19299226881E+03  0.17300000000E+03 0.  1.
         -6    1    1    2    0  503 -0.95123636463E+01  0.59102835637E+02 -0.26967642820E+03  0.32594172205E+03  0.17300000000E+03 0.  1.
</event>
<event>
 4    1  0.6239288E+000  0.1000000E+03  0.7546771E-02  0.1280296E+00
         21   -1    0    0  501  502  0.00000000000E+00  0.00000000000E+00  0.86036728121E+03  0.86036728121E+03  0.00000000000E+00 0. -1.
         21   -1    0    0  502  503 -0.00000000000E+00 -0.00000000000E+00 -0.92354076412E+02  0.92354076412E+02  0.00000000000E+00 0.  1.
          6    1    1    2  501    0 -0.16035029580E+03 -0.14411623788E+03  0.47730052101E+03  0.55156730753E+03  0.17300000000E+03 0. -1.
         -6    1    1    2    0  503  0.16035029580E+03  0.14411623788E+03  0.29071268379E+03  0.40115405009E+03  0.17300000000E+03 0.  1.
</event>
<event>
 4    1  0.6239288E+000  0.1000000E+03  0.7546771E-02  0.1280296E+00
         21   -1    0    0  501  502  0.00000000000E+00  0.00000000000E+00  0.33049864230E+03  0.33049864230E+03  0.00000000000E+00 0. -1.
         21   -1    0    0  502  503 -0.00000000000E+00 -0.00000000000E+00 -0.15136054621E+03  0.15136054621E+03  0.00000000000E+00 0.  1.
          6    1    1    2  501    0 -0.21219957689E+02 -0.34398406757E+02  0.23593409467E+03  0.29534290921E+03  0.17300000000E+03 0. -1.
         -6    1    1    2    0  503  0.21219957689E+02  0.34398406757E+02 -0.56795998581E+02  0.18651627931E+03  0.17300000000E+03 0.  1.
</event>
<event>
 4    1  0.6239288E+000  0.1000000E+03  0.7546771E-02  0.1280296E+00
         21   -1    0    0  501  502  0.00000000000E+00  0.00000000000E+00  0.52658936985E+03  0.52658936985E+03  0.00000000000E+00 0. -1.
         21   -1    0    0  502  503 -0.00000000000E+00 -0.00000000000E+00 -0.88033906385E+02  0.88033906385E+02  0.00000000000E+00 0.  1.
          6    1    1    2  501    0 -0.32965800173E+02  0.38547337990E+02  0.38728889444E+03  0.42719354981E+03  0.17300000000E+03 0. -1.
         -6    1    1    2    0  503  0.32965800173E+02 -0.38547337990E+02  0.51266569027E+02  0.18742972642E+03  0.17300000000E+03 0.  1.
</event>
<event>
 4    1  0.6239288E+000  0.1000000E+03  0.7546771E-02  0.1280296E+00
         21   -1    0    0  503  502  0.00000000000E+00  0.00000000000E+00  0.23197217862E+04  0.23197217862E+04  0.00000000000E+00 0.  1.
         21   -1    0    0  501  503 -0.00000000000E+00 -0.00000000000E+00 -0.32300908385E+02  0.32300908385E+02  0.00000000000E+00 0.  1.
          6    1    1    2  501    0 -0.10135035518E+03  0.17430750291E+02  0.34659842648E+03  0.40079320701E+03  0.17300000000E+03 0.  1.
         -6    1    1    2    0  502  0.10135035518E+03 -0.17430750291E+02  0.19408224513E+04  0.19512294875E+04  0.17300000000E+03 0.  1.
</event>
<event>
 4    1  0.6239288E+000  0.1000000E+03  0.7546771E-02  0.1280296E+00
         21   -1    0    0  503  502  0.00000000000E+00  0.00000000000E+00  0.10220077933E+04  0.10220077933E+04  0.00000000000E+00 0.  1.
         21   -1    0    0  501  503 -0.00000000000E+00 -0.00000000000E+00 -0.42006533674E+02  0.42006533674E+02  0.00000000000E+00 0.  1.
          6    1    1    2  501    0  0.58200354646E+02 -0.98054695459E+02  0.48996432021E+03  0.53197372084E+03  0.17300000000E+03 0.  1.
         -6    1    1    2    0  502 -0.58200354646E+02  0.98054695459E+02  0.49003693938E+03  0.53204060610E+03  0.17300000000E+03 0.  1.
</event>
<event>
 4    1  0.6239288E+000  0.1000000E+03  0.7546771E-02  0.1280296E+00
         21   -1    0    0  501  502  0.00000000000E+00  0.00000000000E+00  0.26501212889E+03  0.26501212889E+03  0.00000000000E+00 0. -1.
         21   -1    0    0  502  503 -0.00000000000E+00 -0.00000000000E+00 -0.22595819837E+03  0.22595819837E+03  0.00000000000E+00 0. -1.
          6    1    1    2  501    0  0.64028574904E+02  0.15333773686E+03  0.68059911586E+02  0.24934568678E+03  0.17300000000E+03 0. -1.
         -6    1    1    2    0  503 -0.64028574904E+02 -0.15333773686E+03 -0.29005981063E+02  0.24162464048E+03  0.17300000000E+03 0. -1.
</event>
<event>
 4    1  0.6239288E+000  0.1000000E+03  0.7546771E-02  0.1280296E+00
         21   -1    0    0  501  502  0.00000000000E+00  0.00000000000E+00  0.19115967183E+03  0.19115967183E+03  0.00000000000E+00 0. -1.
         21   -1    0    0  502  503 -0.00000000000E+00 -0.00000000000E+00 -0.56539953487E+03  0.56539953487E+03  0.00000000000E+00 0. -1.
          6    1    1    2  501    0 -0.26405654811E+03  0.90929978720E+02 -0.17263529084E+03  0.37111462551E+03  0.17300000000E+03 0. -1.
         -6    1    1    2    0  503  0.26405654811E+03 -0.90929978720E+02 -0.20160457220E+03  0.38544458118E+03  0.17300000000E+03 0. -1.
</event>
<event>
 4    1  0.6239288E+000  0.1000000E+03  0.7546771E-02  0.1280296E+00
         21   -1    0    0  501  502  0.00000000000E+00  0.00000000000E+00  0.37982837723E+03  0.37982837723E+03  0.00000000000E+00 0. -1.
         21   -1    0    0  502  503 -0.00000000000E+00 -0.00000000000E+00 -0.93149298395E+02  0.93149298395E+02  0.00000000000E+00 0. -1.
          6    1    1    2  501    0 -0.98929065840E+01  0.13095493188E+02  0.23384858777E+03  0.29134777079E+03  0.17300000000E+03 0. -1.
         -6    1    1    2    0  503  0.98929065840E+01 -0.13095493188E+02  0.52830491059E+02  0.18162990483E+03  0.17300000000E+03 0. -1.
</event>
<event>
 4    1  0.6239288E+000  0.1000000E+03  0.7546771E-02  0.1280296E+00
         21   -1    0    0  501  502  0.00000000000E+00  0.00000000000E+00  0.58153852662E+03  0.58153852662E+03  0.00000000000E+00 0.  1.
         21   -1    0    0  502  503 -0.00000000000E+00 -0.00000000000E+00 -0.87254214808E+02  0.87254214808E+02  0.00000000000E+00 0.  1.
          6    1    1    2  501    0  0.74138296016E+02 -0.96490357659E+02  0.36218641442E+03  0.41942207244E+03  0.17300000000E+03 0.  1.
         -6    1    1    2    0  503 -0.74138296016E+02  0.96490357659E+02  0.13209789739E+03  0.24937066899E+03  0.17300000000E+03 0.  1.
</event>
<event>
 4    1  0.6239288E+000  0.1000000E+03  0.7546771E-02  0.1280296E+00
         21   -1    0    0  501  502  0.00000000000E+00  0.00000000000E+00  0.20338394886E+02  0.20338394886E+02  0.00000000000E+00 0.  1.
         21   -1    0    0  502  503 -0.00000000000E+00 -0.00000000000E+00 -0.17944471662E+04  0.17944471662E+04  0.00000000000E+00 0.  1.
          6    1    1    2  501    0  0.53842989136E+02 -0.18104134717E+02 -0.61253849171E+03  0.63902991401E+03  0.17300000000E+03 0.  1.
         -6    1    1    2    0  503 -0.53842989136E+02  0.18104134717E+02 -0.11615702796E+04  0.11757556471E+04  0.17300000000E+03 0.  1.
</event>
<event>
 4    1  0.6239288E+000  0.1000000E+03  0.7546771E-02  0.1280296E+00
         21   -1    0    0  501  502  0.00000000000E+00  0.00000000000E+00  0.10510526432E+04  0.10510526432E+04  0.00000000000E+00 0.  1.
         21   -1    0    0  502  503 -0.00000000000E+00 -0.00000000000E+00 -0.11706198847E+03  0.11706198847E+03  0.00000000000E+00 0.  1.
          6    1    1    2  501    0 -0.59215146984E+02  0.22703712828E+03  0.79182274621E+03  0.84377991957E+03  0.17300000000E+03 0.  1.
         -6    1    1    2    0  503  0.59215146984E+02 -0.22703712828E+03  0.14216790847E+03  0.32433471206E+03  0.17300000000E+03 0.  1.
</event>
<event>
 4    1  0.6239288E+000  0.1000000E+03  0.7546771E-02  0.1280296E+00
         21   -1    0    0  501  502  0.00000000000E+00  0.00000000000E+00  0.39206982024E+03  0.39206982024E+03  0.00000000000E+00 0.  1.
         21   -1    0    0  502  503 -0.00000000000E+00 -0.00000000000E+00 -0.24601061884E+03  0.24601061884E+03  0.00000000000E+00 0.  1.
          6    1    1    2  501    0  0.23615241310E+03 -0.92199194660E+02  0.24240134580E+02  0.30787211279E+03  0.17300000000E+03 0.  1.
         -6    1    1    2    0  503 -0.23615241310E+03  0.92199194660E+02  0.12181906682E+03  0.33020832629E+03  0.17300000000E+03 0.  1.
</event>
<event>
 4    1  0.6239288E+000  0.1000000E+03  0.7546771E-02  0.1280296E+00
         21   -1    0    0  501  502  0.00000000000E+00  0.00000000000E+00  0.69476848462E+02  0.69476848462E+02  0.00000000000E+00 0. -1.
         21   -1    0    0  502  503 -0.00000000000E+00 -0.00000000000E+00 -0.84367404639E+03  0.84367404639E+03  0.00000000000E+00 0. -1.
          6    1    1    2  501    0  0.16692327677E+03 -0.92466912076E+01 -0.33586989156E+03  0.41314218579E+03  0.17300000000E+03 0. -1.
         -6    1    1    2    0  503 -0.16692327677E+03  0.92466912076E+01 -0.43832730636E+03  0.50000870905E+03  0.17300000000E+03 0. -1.
</event>
<event>
 4    1  0.6239288E+000  0.1000000E+03  0.7546771E-02  0.1280296E+00
         21   -1    0    0  501  502  0.00000000000E+00  0.00000000000E+00  0.18224139620E+03  0.18224139620E+03  0.00000000000E+00 0. -1.
         21   -1    0    0  502  503 -0.00000000000E+00 -0.00000000000E+00 -0.75869563341E+03  0.75869563341E+03  0.00000000000E+00 0. -1.
          6    1    1    2  501    0  0.11968934641E+02  0.31969407319E+03 -0.38614398511E+03  0.53045615565E+03  0.17300000000E+03 0. -1.
         -6    1    1    2    0  503 -0.11968934641E+02 -0.31969407319E+03 -0.19031025211E+03  0.41048087396E+03  0.17300000000E+03 0. -1.
</event>
<event>
 4    1  0.6239288E+000  0.1000000E+03  0.7546771E-02  0.1280296E+00
         21   -1    0    0  501  502  0.00000000000E+00  0.00000000000E+00  0.15197689605E+04  0.15197689605E+04  0.00000000000E+00 0. -1.
         21   -1    0    0  502  503 -0.00000000000E+00 -0.00000000000E+00 -0.12039726846E+03  0.12039726846E+03  0.00000000000E+00 0. -1.
          6    1    1    2  501    0  0.30228173485E+03 -0.24518937624E+03  0.62408623616E+03  0.75558236322E+03  0.17300000000E+03 0. -1.
         -6    1    1    2    0  503 -0.30228173485E+03  0.24518937624E+03  0.77528545587E+03  0.88458386574E+03  0.17300000000E+03 0. -1.
</event>
<event>
 4    1  0.6239288E+000  0.1000000E+03  0.7546771E-02  0.1280296E+00
         21   -1    0    0  501  502  0.00000000000E+00  0.00000000000E+00  0.14381897820E+03  0.14381897820E+03  0.00000000000E+00 0. -1.
         21   -1    0    0  502  503 -0.00000000000E+00 -0.00000000000E+00 -0.32321664650E+03  0.32321664650E+03  0.00000000000E+00 0. -1.
          6    1    1    2  501    0  0.75645294705E+02 -0.98094443334E+02 -0.52008543262E+02  0.21904022233E+03  0.17300000000E+03 0. -1.
         -6    1    1    2    0  503 -0.75645294705E+02  0.98094443334E+02 -0.12738912503E+03  0.24799540238E+03  0.17300000000E+03 0. -1.
</event>
<event>
 4    1  0.6239288E+000  0.1000000E+03  0.7546771E-02  0.1280296E+00
         21   -1    0    0  501  502  0.00000000000E+00  0.00000000000E+00  0.68583251338E+02  0.68583251338E+02  0.00000000000E+00 0. -1.
         21   -1    0    0  502  503 -0.00000000000E+00 -0.00000000000E+00 -0.44191104479E+03  0.44191104479E+03  0.00000000000E+00 0. -1.
          6    1    1    2  501    0  0.64305478255E+01  0.17480921772E+02 -0.19492686693E+03  0.26128991183E+03  0.17300000000E+03 0. -1.
         -6    1    1    2    0  503 -0.64305478255E+01 -0.17480921772E+02 -0.17840092653E+03  0.24920438430E+03  0.17300000000E+03 0. -1.
</event>
<event>
 4    1  0.6239288E+000  0.1000000E+03  0.7546771E-02  0.1280296E+00
         21   -1    0    0  503  502  0.00000000000E+00  0.00000000000E+00  0.11629937043E+04  0.11629937043E+04  0.00000000000E+00 0.  1.
         21   -1    0    0  501  503 -0.00000000000E+00 -0.00000000000E+00 -0.40397424638E+02  0.40397424638E+02  0.00000000000E+00 0. -1.
          6    1    1    2  501    0  0.57074275807E+02 -0.33905543927E+02  0.24913183993E+03  0.31048789434E+03  0.17300000000E+03 0. -1.
         -6    1    1    2    0  502 -0.57074275807E+02  0.33905543927E+02  0.87346443971E+03  0.89290323457E+03  0.17300000000E+03 0. -1.
</event>
<event>
 4    1  0.6239288E+000  0.1000000E+03  0.7546771E-02  0.1280296E+00
         21   -1    0    0  503  502  0.00000000000E+00  0.00000000000E+00  0.25877688139E+02  0.25877688139E+02  0.00000000000E+00 0.  1.
         21   -1    0    0  501  503 -0.00000000000E+00 -0.00000000000E+00 -0.23421490252E+04  0.23421490252E+04  0.00000000000E+00 0. -1.
          6    1    1    2  501    0  0.22333688835E+02  0.93457921049E+02 -0.18624591373E+04  0.18729431958E+04  0.17300000000E+03 0. -1.
         -6    1    1    2    0  502 -0.22333688835E+02 -0.93457921049E+02 -0.45381219974E+03  0.49508351750E+03  0.17300000000E+03 0. -1.
</event>
<event>
 4    1  0.6239288E+000  0.1000000E+03  0.7546771E-02  0.1280296E+00
         21   -1    0    0  503  502  0.00000000000E+00  0.00000000000E+00  0.15303121111E+04  0.15303121111E+04  0.00000000000E+00 0.  1.
         21   -1    0    0  501  503 -0.00000000000E+00 -0.00000000000E+00 -0.10689702882E+03  0.10689702882E+03  0.00000000000E+00 0. -1.
          6    1    1    2  501    0 -0.12813522751E+03 -0.19359133455E+03  0.14010324771E+03  0.32164290971E+03  0.17300000000E+03 0. -1.
         -6    1    1    2    0  502  0.12813522751E+03  0.19359133455E+03  0.12833118346E+04  0.13155662302E+04  0.17300000000E+03 0. -1.
</event>
<event>
 4    1  0.6239288E+000  0.1000000E+03  0.7546771E-02  0.1280296E+00
         21   -1    0    0  501  502  0.00000000000E+00  0.00000000000E+00  0.12990705677E+04  0.12990705677E+04  0.00000000000E+00 0. -1.
         21   -1    0    0  502  503 -0.00000000000E+00 -0.00000000000E+00 -0.49580686805E+02  0.49580686805E+02  0.00000000000E+00 0. -1.
          6    1    1    2  501    0  0.57013496264E+01  0.12554548308E+03  0.98794923986E+03  0.10108248485E+04  0.17300000000E+03 0. -1.
         -6    1    1    2    0  503 -0.57013496264E+01 -0.12554548308E+03  0.26154064102E+03  0.33782640603E+03  0.17300000000E+03 0. -1.
</event>
<event>
 4    1  0.6239288E+000  0.1000000E+03  0.7546771E-02  0.1280296E+00
         21   -1    0    0  501  502  0.00000000000E+00  0.00000000000E+00  0.16419723386E+04  0.16419723386E+04  0.00000000000E+00 0.  1.
         21   -1    0    0  502  503 -0.00000000000E+00 -0.00000000000E+00 -0.63857337554E+02  0.63857337554E+02  0.00000000000E+00 0.  1.
          6    1    1    2  501    0 -0.13325597890E+03 -0.25174769314E+02  0.14153320193E+04  0.14323004746E+04  0.17300000000E+03 0.  1.
         -6    1    1    2    0  503  0.13325597890E+03  0.25174769314E+02  0.16278298180E+03  0.27352920152E+03  0.17300000000E+03 0.  1.
</event>
<event>
 4    1  0.6239288E+000  0.1000000E+03  0.7546771E-02  0.1280296E+00
         21   -1    0    0  501  502  0.00000000000E+00  0.00000000000E+00  0.22528162863E+03  0.22528162863E+03  0.00000000000E+00 0.  1.
         21   -1    0    0  502  503 -0.00000000000E+00 -0.00000000000E+00 -0.33021340063E+03  0.33021340063E+03  0.00000000000E+00 0.  1.
          6    1    1    2  501    0 -0.13051074680E+03  0.13843999947E+02  0.11559706450E+03  0.24600079814E+03  0.17300000000E+03 0.  1.
         -6    1    1    2    0  503  0.13051074680E+03 -0.13843999947E+02 -0.22052883650E+03  0.30949423111E+03  0.17300000000E+03 0.  1.
</event>
<event>
 4    1  0.6239288E+000  0.1000000E+03  0.7546771E-02  0.1280296E+00
         21   -1    0    0  501  502  0.00000000000E+00  0.00000000000E+00  0.28599798236E+03  0.28599798236E+03  0.00000000000E+00 0.  1.
         21   -1    0    0  502  503 -0.00000000000E+00 -0.00000000000E+00 -0.23944701837E+03  0.23944701837E+03  0.00000000000E+00 0.  1.
          6    1    1    2  501    0  0.10181930125E+03  0.41866416438E+02  0.18649772560E+03  0.27718291539E+03  0.17300000000E+03 0. -1.
         -6    1    1    2    0  503 -0.10181930125E+03 -0.41866416438E+02 -0.13994676161E+03  0.24826208534E+03  0.17300000000E+03 0. -1.
</event>
<event>
 4    1  0.6239288E+000  0.1000000E+03  0.7546771E-02  0.1280296E+00
         21   -1    0    0  501  502  0.00000000000E+00  0.00000000000E+00  0.52558576225E+03  0.52558576225E+03  0.00000000000E+00 0.  1.
         21   -1    0    0  502  503 -0.00000000000E+00 -0.00000000000E+00 -0.79409904925E+02  0.79409904925E+02  0.00000000000E+00 0.  1.
          6    1    1    2  501    0 -0.48359640149E+02 -0.84480600803E+02  0.15158305112E+03  0.24976398478E+03  0.17300000000E+03 0. -1.
         -6    1    1    2    0  503  0.48359640149E+02  0.84480600803E+02  0.29459280621E+03  0.35523168240E+03  0.17300000000E+03 0. -1.
</event>
<event>
 4    1  0.6239288E+000  0.1000000E+03  0.7546771E-02  0.1280296E+00
         21   -1    0    0  501  502  0.00000000000E+00  0.00000000000E+00  0.44909851585E+03  0.44909851585E+03  0.00000000000E+00 0.  1.
         21   -1    0    0  502  503 -0.00000000000E+00 -0.00000000000E+00 -0.14016747633E+03  0.14016747633E+03  0.00000000000E+00 0. -1.
          6    1    1    2  501    0  0.77279076643E+02 -0.15656431904E+03  0.95333294107E+02  0.26363208956E+03  0.17300000000E+03 0.  1.
         -6    1    1    2    0  503 -0.77279076643E+02  0.15656431904E+03  0.21359774541E+03  0.32563390261E+03  0.17300000000E+03 0. -1.
</event>
<event>
 4    1  0.6239288E+000  0.1000000E+03  0.7546771E-02  0.1280296E+00
         21   -1    0    0  501  502  0.00000000000E+00  0.00000000000E+00  0.52845316781E+02  0.52845316781E+02  0.00000000000E+00 0.  1.
         21   -1    0    0  502  503 -0.00000000000E+00 -0.00000000000E+00 -0.76320151799E+03  0.76320151799E+03  0.00000000000E+00 0. -1.
          6    1    1    2  501    0 -0.21466588847E+02  0.49601323525E+02 -0.17944355152E+03  0.25504919900E+03  0.17300000000E+03 0.  1.
         -6    1    1    2    0  503  0.21466588847E+02 -0.49601323525E+02 -0.53091264969E+03  0.56099763577E+03  0.17300000000E+03 0. -1.
</event>
<event>
 4    1  0.6239288E+000  0.1000000E+03  0.7546771E-02  0.1280296E+00
         21   -1    0    0  501  502  0.00000000000E+00  0.00000000000E+00  0.51386619401E+02  0.51386619401E+02  0.00000000000E+00 0.  1.
         21   -1    0    0  502  503 -0.00000000000E+00 -0.00000000000E+00 -0.59915073223E+03  0.59915073223E+03  0.00000000000E+00 0. -1.
          6    1    1    2  501    0  0.65633920273E+01  0.92952755227E+01 -0.22380185237E+03  0.28310024618E+03  0.17300000000E+03 0.  1.
         -6    1    1    2    0  503 -0.65633920273E+01 -0.92952755227E+01 -0.32396226046E+03  0.36743710545E+03  0.17300000000E+03 0. -1.
</event>
<event>
 4    1  0.6239288E+000  0.1000000E+03  0.7546771E-02  0.1280296E+00
         21   -1    0    0  501  502  0.00000000000E+00  0.00000000000E+00  0.52874735133E+03  0.52874735133E+03  0.00000000000E+00 0.  1.
         21   -1    0    0  502  503 -0.00000000000E+00 -0.00000000000E+00 -0.32955599395E+03  0.32955599395E+03  0.00000000000E+00 0. -1.
          6    1    1    2  501    0  0.91174202833E+01  0.30054224522E+03  0.33830712324E+03  0.48455080038E+03  0.17300000000E+03 0.  1.
         -6    1    1    2    0  503 -0.91174202833E+01 -0.30054224522E+03 -0.13911576586E+03  0.37375254491E+03  0.17300000000E+03 0. -1.
</event>
<event>
 4    1  0.6239288E+000  0.1000000E+03  0.7546771E-02  0.1280296E+00
         21   -1    0    0  501  502  0.00000000000E+00  0.00000000000E+00  0.19365838734E+03  0.19365838734E+03  0.00000000000E+00 0.  1.
         21   -1    0    0  502  503 -0.00000000000E+00 -0.00000000000E+00 -0.29813573722E+03  0.29813573722E+03  0.00000000000E+00 0. -1.
          6    1    1    2  501    0 -0.16031793914E+03  0.24263014955E+02 -0.12380823749E+02  0.23742961125E+03  0.17300000000E+03 0.  1.
         -6    1    1    2    0  503  0.16031793914E+03 -0.24263014955E+02 -0.92096526125E+02  0.25436451330E+03  0.17300000000E+03 0. -1.
</event>
<event>
 4    1  0.6239288E+000  0.1000000E+03  0.7546771E-02  0.1280296E+00
         21   -1    0    0  501  502  0.00000000000E+00  0.00000000000E+00  0.34005202819E+02  0.34005202819E+02  0.00000000000E+00 0.  1.
         21   -1    0    0  502  503 -0.00000000000E+00 -0.00000000000E+00 -0.10673520067E+04  0.10673520067E+04  0.00000000000E+00 0. -1.
          6    1    1    2  501    0 -0.68294192492E+02 -0.84681129996E+01 -0.39994922428E+03  0.44116231442E+03  0.17300000000E+03 0.  1.
         -6    1    1    2    0  503  0.68294192492E+02  0.84681129996E+01 -0.63339757962E+03  0.66019489512E+03  0.17300000000E+03 0. -1.
</event>
<event>
 4    1  0.6239288E+000  0.1000000E+03  0.7546771E-02  0.1280296E+00
         21   -1    0    0  501  502  0.00000000000E+00  0.00000000000E+00  0.26692689035E+03  0.26692689035E+03  0.00000000000E+00 0.  1.
         21   -1    0    0  502  503 -0.00000000000E+00 -0.00000000000E+00 -0.16433680207E+03  0.16433680207E+03  0.00000000000E+00 0. -1.
          6    1    1    2  501    0 -0.47784528755E+02  0.75337132645E+02 -0.28306673498E+02  0.19669599007E+03  0.17300000000E+03 0. -1.
         -6    1    1    2    0  503  0.47784528755E+02 -0.75337132645E+02  0.13089676178E+03  0.23456770235E+03  0.17300000000E+03 0.  1.
</event>
<event>
 4    1  0.6239288E+000  0.1000000E+03  0.7546771E-02  0.1280296E+00
         21   -1    0    0  501  502  0.00000000000E+00  0.00000000000E+00  0.28507884242E+03  0.28507884242E+03  0.00000000000E+00 0.  1.
         21   -1    0    0  502  503 -0.00000000000E+00 -0.00000000000E+00 -0.44538979505E+03  0.44538979505E+03  0.00000000000E+00 0.  1.
          6    1    1    2  501    0  0.23642829901E+02 -0.19032107577E+03  0.17146010116E+03  0.31001396997E+03  0.17300000000E+03 0.  1.
         -6    1    1    2    0  503 -0.23642829901E+02  0.19032107577E+03 -0.33177105379E+03  0.42045466750E+03  0.17300000000E+03 0.  1.
</event>
<event>
 4    1  0.6239288E+000  0.1000000E+03  0.7546771E-02  0.1280296E+00
         21   -1    0    0  501  502  0.00000000000E+00  0.00000000000E+00  0.54576562344E+03  0.54576562344E+03  0.00000000000E+00 0.  1.
         21   -1    0    0  502  503 -0.00000000000E+00 -0.00000000000E+00 -0.17305950484E+03  0.17305950484E+03  0.00000000000E+00 0.  1.
          6    1    1    2  501    0 -0.51438398844E+02 -0.22609919350E+03  0.30763076571E+03  0.42229426019E+03  0.17300000000E+03 0.  1.
         -6    1    1    2    0  503  0.51438398844E+02  0.22609919350E+03  0.65075352886E+02  0.29653086809E+03  0.17300000000E+03 0.  1.
</event>
<event>
 4    1  0.6239288E+000  0.1000000E+03  0.7546771E-02  0.1280296E+00
         21   -1    0    0  501  502  0.00000000000E+00  0.00000000000E+00  0.62462559457E+02  0.62462559457E+02  0.00000000000E+00 0.  1.
         21   -1    0    0  502  503 -0.00000000000E+00 -0.00000000000E+00 -0.16564708899E+04  0.16564708899E+04  0.00000000000E+00 0.  1.
          6    1    1    2  501    0 -0.11169135093E+03 -0.15434166212E+01 -0.13675253013E+03  0.24719950345E+03  0.17300000000E+03 0.  1.
         -6    1    1    2    0  503  0.11169135093E+03  0.15434166212E+01 -0.14572558003E+04  0.14717339459E+04  0.17300000000E+03 0.  1.
</event>
<event>
 4    1  0.6239288E+000  0.1000000E+03  0.7546771E-02  0.1280296E+00
         21   -1    0    0  501  502  0.00000000000E+00  0.00000000000E+00  0.26442096739E+03  0.26442096739E+03  0.00000000000E+00 0. -1.
         21   -1    0    0  502  503 -0.00000000000E+00 -0.00000000000E+00 -0.38843881126E+03  0.38843881126E+03  0.00000000000E+00 0. -1.
          6    1    1    2  501    0 -0.16618910721E+03  0.39519124648E+02  0.15067409030E+03  0.28602842875E+03  0.17300000000E+03 0. -1.
         -6    1    1    2    0  503  0.16618910721E+03 -0.39519124648E+02 -0.27469193418E+03  0.36683134990E+03  0.17300000000E+03 0. -1.
</event>
<event>
 4    1  0.6239288E+000  0.1000000E+03  0.7546771E-02  0.1280296E+00
         21   -1    0    0  503  502  0.00000000000E+00  0.00000000000E+00  0.48692064664E+03  0.48692064664E+03  0.00000000000E+00 0.  1.
         21   -1    0    0  501  503 -0.00000000000E+00 -0.00000000000E+00 -0.26335585065E+03  0.26335585065E+03  0.00000000000E+00 0.  1.
          6    1    1    2  501    0 -0.62941238709E+01 -0.11202072120E+03 -0.19492346403E+03  0.28374709655E+03  0.17300000000E+03 0.  1.
         -6    1    1    2    0  502  0.62941238709E+01  0.11202072120E+03  0.41848826002E+03  0.46652940073E+03  0.17300000000E+03 0.  1.
</event>
<event>
 4    1  0.6239288E+000  0.1000000E+03  0.7546771E-02  0.1280296E+00
         21   -1    0    0  503  502  0.00000000000E+00  0.00000000000E+00  0.42077017781E+02  0.42077017781E+02  0.00000000000E+00 0.  1.
         21   -1    0    0  501  503 -0.00000000000E+00 -0.00000000000E+00 -0.15150102699E+04  0.15150102699E+04  0.00000000000E+00 0.  1.
          6    1    1    2  501    0  0.42063480989E+01 -0.17303112618E+02 -0.13008597755E+04  0.13124337113E+04  0.17300000000E+03 0.  1.
         -6    1    1    2    0  502 -0.42063480989E+01  0.17303112618E+02 -0.17207347659E+03  0.24465357634E+03  0.17300000000E+03 0.  1.
</event>
<event>
 4    1  0.6239288E+000  0.1000000E+03  0.7546771E-02  0.1280296E+00
         21   -1    0    0  501  502  0.00000000000E+00  0.00000000000E+00  0.13717088517E+03  0.13717088517E+03  0.00000000000E+00 0.  1.
         21   -1    0    0  502  503 -0.00000000000E+00 -0.00000000000E+00 -0.49928763610E+03  0.49928763610E+03  0.00000000000E+00 0.  1.
          6    1    1    2  501    0  0.19104449055E+03 -0.39324677143E+02 -0.15348171070E+03  0.30253935797E+03  0.17300000000E+03 0.  1.
         -6    1    1    2    0  503 -0.19104449055E+03  0.39324677143E+02 -0.20863504024E+03  0.33391916330E+03  0.17300000000E+03 0.  1.
</event>
<event>
 4    1  0.6239288E+000  0.1000000E+03  0.7546771E-02  0.1280296E+00
         21   -1    0    0  501  502  0.00000000000E+00  0.00000000000E+00  0.81284920694E+03  0.81284920694E+03  0.00000000000E+00 0.  1.
         21   -1    0    0  502  503 -0.00000000000E+00 -0.00000000000E+00 -0.23094065092E+03  0.23094065092E+03  0.00000000000E+00 0.  1.
          6    1    1    2  501    0 -0.88353065723E+02  0.28823494176E+03  0.60252603572E+03  0.69559490337E+03  0.17300000000E+03 0.  1.
         -6    1    1    2    0  503  0.88353065723E+02 -0.28823494176E+03 -0.20617479698E+02  0.34819495450E+03  0.17300000000E+03 0.  1.
</event>
<event>
 4    1  0.6239288E+000  0.1000000E+03  0.7546771E-02  0.1280296E+00
         21   -1    0    0  501  502  0.00000000000E+00  0.00000000000E+00  0.58930924954E+02  0.58930924954E+02  0.00000000000E+00 0.  1.
         21   -1    0    0  502  503 -0.00000000000E+00 -0.00000000000E+00 -0.11829287250E+04  0.11829287250E+04  0.00000000000E+00 0. -1.
          6    1    1    2  501    0 -0.13675615079E+03 -0.12682620745E+03 -0.39578885275E+03  0.47049436515E+03  0.17300000000E+03 0.  1.
         -6    1    1    2    0  503  0.13675615079E+03  0.12682620745E+03 -0.72820894727E+03  0.77136528478E+03  0.17300000000E+03 0. -1.
</event>
<event>
 4    1  0.6239288E+000  0.1000000E+03  0.7546771E-02  0.1280296E+00
         21   -1    0    0  501  502  0.00000000000E+00  0.00000000000E+00  0.21373977271E+04  0.21373977271E+04  0.00000000000E+00 0.  1.
         21   -1    0    0  502  503 -0.00000000000E+00 -0.00000000000E+00 -0.60485722468E+02  0.60485722468E+02  0.00000000000E+00 0. -1.
          6    1    1    2  501    0  0.82078776386E+02 -0.22398933564E+03  0.16681336847E+04  0.16939619647E+04  0.17300000000E+03 0.  1.
         -6    1    1    2    0  503 -0.82078776386E+02  0.22398933564E+03  0.40877831997E+03  0.50392148485E+03  0.17300000000E+03 0. -1.
</event>
<event>
 4    1  0.6239288E+000  0.1000000E+03  0.7546771E-02  0.1280296E+00
         21   -1    0    0  503  502  0.00000000000E+00  0.00000000000E+00  0.75335479139E+02  0.75335479139E+02  0.00000000000E+00 0.  1.
         21   -1    0    0  501  503 -0.00000000000E+00 -0.00000000000E+00 -0.82494150836E+03  0.82494150836E+03  0.00000000000E+00 0.  1.
          6    1    1    2  501    0 -0.10903930042E+03 -0.12685146940E+03 -0.49234408091E+03  0.54800780864E+03  0.17300000000E+03 0.  1.
         -6    1    1    2    0  502  0.10903930042E+03  0.12685146940E+03 -0.25726194831E+03  0.35226917886E+03  0.17300000000E+03 0.  1.
</event>
<event>
 4    1  0.6239288E+000  0.1000000E+03  0.7546771E-02  0.1280296E+00
         21   -1    0    0  501  502  0.00000000000E+00  0.00000000000E+00  0.43535595443E+02  0.43535595443E+02  0.00000000000E+00 0.  1.
         21   -1    0    0  502  503 -0.00000000000E+00 -0.00000000000E+00 -0.88595839447E+03  0.88595839447E+03  0.00000000000E+00 0.  1.
          6    1    1    2  501    0 -0.28574222049E+02 -0.15986963633E+02 -0.21532588848E+03  0.27814799554E+03  0.17300000000E+03 0.  1.
         -6    1    1    2    0  503  0.28574222049E+02  0.15986963633E+02 -0.62709691055E+03  0.65134599438E+03  0.17300000000E+03 0.  1.
</event>
<event>
 4    1  0.6239288E+000  0.1000000E+03  0.7546771E-02  0.1280296E+00
         21   -1    0    0  501  502  0.00000000000E+00  0.00000000000E+00  0.79533855975E+03  0.79533855975E+03  0.00000000000E+00 0.  1.
         21   -1    0    0  502  503 -0.00000000000E+00 -0.00000000000E+00 -0.82982130823E+02  0.82982130823E+02  0.00000000000E+00 0.  1.
          6    1    1    2  501    0  0.88123665702E+02  0.85826645954E+02  0.60353356790E+03  0.63977633685E+03  0.17300000000E+03 0.  1.
         -6    1    1    2    0  503 -0.88123665702E+02 -0.85826645954E+02  0.10882286103E+03  0.23854435373E+03  0.17300000000E+03 0.  1.
</event>
<event>
 4    1  0.6239288E+000  0.1000000E+03  0.7546771E-02  0.1280296E+00
         21   -1    0    0  503  502  0.00000000000E+00  0.00000000000E+00  0.16468056346E+03  0.16468056346E+03  0.00000000000E+00 0. -1.
         21   -1    0    0  501  503 -0.00000000000E+00 -0.00000000000E+00 -0.28462558378E+03  0.28462558378E+03  0.00000000000E+00 0. -1.
          6    1    1    2  501    0 -0.44541600447E+01 -0.76633621527E+02 -0.16905375939E+03  0.25377297936E+03  0.17300000000E+03 0. -1.
         -6    1    1    2    0  502  0.44541600447E+01  0.76633621527E+02  0.49108739069E+02  0.19553316788E+03  0.17300000000E+03 0. -1.
</event>
<event>
 4    1  0.6239288E+000  0.1000000E+03  0.7546771E-02  0.1280296E+00
         21   -1    0    0  503  502  0.00000000000E+00  0.00000000000E+00  0.11777104097E+03  0.11777104097E+03  0.00000000000E+00 0. -1.
         21   -1    0    0  501  503 -0.00000000000E+00 -0.00000000000E+00 -0.10172768186E+04  0.10172768186E+04  0.00000000000E+00 0. -1.
          6    1    1    2  501    0 -0.27816381436E+02  0.14494272663E+02 -0.93860660517E+03  0.95493203647E+03  0.17300000000E+03 0. -1.
         -6    1    1    2    0  502  0.27816381436E+02 -0.14494272663E+02  0.39100827538E+02  0.18011582310E+03  0.17300000000E+03 0. -1.
</event>
<event>
 4    1  0.6239288E+000  0.1000000E+03  0.7546771E-02  0.1280296E+00
         21   -1    0    0  503  502  0.00000000000E+00  0.00000000000E+00  0.20658801616E+03  0.20658801616E+03  0.00000000000E+00 0. -1.
         21   -1    0    0  501  503 -0.00000000000E+00 -0.00000000000E+00 -0.17658528209E+03  0.17658528209E+03  0.00000000000E+00 0. -1.
          6    1    1    2  501    0 -0.78496524201E+02 -0.58325305260E+01 -0.39162045095E+01  0.19010539020E+03  0.17300000000E+03 0. -1.
         -6    1    1    2    0  502  0.78496524201E+02  0.58325305260E+01  0.33918938576E+02  0.19306790805E+03  0.17300000000E+03 0. -1.
</event>
<event>
 4    1  0.6239288E+000  0.1000000E+03  0.7546771E-02  0.1280296E+00
         21   -1    0    0  503  502  0.00000000000E+00  0.00000000000E+00  0.63434650959E+02  0.63434650959E+02  0.00000000000E+00 0. -1.
         21   -1    0    0  501  503 -0.00000000000E+00 -0.00000000000E+00 -0.81186575829E+03  0.81186575829E+03  0.00000000000E+00 0. -1.
          6    1    1    2  501    0  0.69906850274E+02  0.33210804798E+02 -0.61494339350E+03  0.64348605462E+03  0.17300000000E+03 0. -1.
         -6    1    1    2    0  502 -0.69906850274E+02 -0.33210804798E+02 -0.13348771382E+03  0.23181435463E+03  0.17300000000E+03 0. -1.
</event>
<event>
 4    1  0.6239288E+000  0.1000000E+03  0.7546771E-02  0.1280296E+00
         21   -1    0    0  503  502  0.00000000000E+00  0.00000000000E+00  0.38941966691E+03  0.38941966691E+03  0.00000000000E+00 0. -1.
         21   -1    0    0  501  503 -0.00000000000E+00 -0.00000000000E+00 -0.30569388602E+03  0.30569388602E+03  0.00000000000E+00 0. -1.
          6    1    1    2  501    0  0.29576401670E+03  0.38438879682E+02  0.29108666074E+02  0.34602054200E+03  0.17300000000E+03 0. -1.
         -6    1    1    2    0  502 -0.29576401670E+03 -0.38438879682E+02  0.54617114823E+02  0.34909301093E+03  0.17300000000E+03 0. -1.
</event>
<event>
 4    1  0.6239288E+000  0.1000000E+03  0.7546771E-02  0.1280296E+00
         21   -1    0    0  503  502  0.00000000000E+00  0.00000000000E+00  0.16994276863E+03  0.16994276863E+03  0.00000000000E+00 0. -1.
         21   -1    0    0  501  503 -0.00000000000E+00 -0.00000000000E+00 -0.21022193755E+03  0.21022193755E+03  0.00000000000E+00 0. -1.
          6    1    1    2  501    0  0.14871687118E+02  0.39269529381E+02 -0.84008416322E+02  0.19684937650E+03  0.17300000000E+03 0. -1.
         -6    1    1    2    0  502 -0.14871687118E+02 -0.39269529381E+02  0.43729247404E+02  0.18331532968E+03  0.17300000000E+03 0. -1.
</event>
<event>
 4    1  0.6239288E+000  0.1000000E+03  0.7546771E-02  0.1280296E+00
         21   -1    0    0  501  502  0.00000000000E+00  0.00000000000E+00  0.92388644227E+03  0.92388644227E+03  0.00000000000E+00 0. -1.
         21   -1    0    0  502  503 -0.00000000000E+00 -0.00000000000E+00 -0.84953245026E+02  0.84953245026E+02  0.00000000000E+00 0.  1.
          6    1    1    2  501    0 -0.57472392667E+02  0.11811239239E+03  0.73803047716E+03  0.76933191691E+03  0.17300000000E+03 0. -1.
         -6    1    1    2    0  503  0.57472392667E+02 -0.11811239239E+03  0.10090272008E+03  0.23950777039E+03  0.17300000000E+03 0.  1.
</event>
<event>
 4    1  0.6239288E+000  0.1000000E+03  0.7546771E-02  0.1280296E+00
         21   -1    0    0  503  502  0.00000000000E+00  0.00000000000E+00  0.94000823453E+02  0.94000823453E+02  0.00000000000E+00 0. -1.
         21   -1    0    0  501  503 -0.00000000000E+00 -0.00000000000E+00 -0.14409064116E+04  0.14409064116E+04  0.00000000000E+00 0. -1.
          6    1    1    2  501    0  0.46977183948E+02  0.96025616015E+02 -0.13130981721E+04  0.13287526423E+04  0.17300000000E+03 0. -1.
         -6    1    1    2    0  502 -0.46977183948E+02 -0.96025616015E+02 -0.33807416028E+02  0.20615459277E+03  0.17300000000E+03 0. -1.
</event>
<event>
 4    1  0.6239288E+000  0.1000000E+03  0.7546771E-02  0.1280296E+00
         21   -1    0    0  503  502  0.00000000000E+00  0.00000000000E+00  0.39642735931E+02  0.39642735931E+02  0.00000000000E+00 0. -1.
         21   -1    0    0  501  503 -0.00000000000E+00 -0.00000000000E+00 -0.20996222222E+04  0.20996222222E+04  0.00000000000E+00 0. -1.
          6    1    1    2  501    0 -0.86361573035E+02 -0.56702045752E+02 -0.17955012193E+04  0.18067725567E+04  0.17300000000E+03 0. -1.
         -6    1    1    2    0  502  0.86361573035E+02  0.56702045752E+02 -0.26447826702E+03  0.33249240144E+03  0.17300000000E+03 0. -1.
</event>
<event>
 4    1  0.6239288E+000  0.1000000E+03  0.7546771E-02  0.1280296E+00
         21   -1    0    0  503  502  0.00000000000E+00  0.00000000000E+00  0.17910482509E+03  0.17910482509E+03  0.00000000000E+00 0. -1.
         21   -1    0    0  501  503 -0.00000000000E+00 -0.00000000000E+00 -0.25822876491E+03  0.25822876491E+03  0.00000000000E+00 0. -1.
          6    1    1    2  501    0  0.11202221998E+03  0.33303371584E+02 -0.92031405352E+02  0.22815975083E+03  0.17300000000E+03 0. -1.
         -6    1    1    2    0  502 -0.11202221998E+03 -0.33303371584E+02  0.12907465523E+02  0.20917383917E+03  0.17300000000E+03 0. -1.
</event>
<event>
 4    1  0.6239288E+000  0.1000000E+03  0.7546771E-02  0.1280296E+00
         21   -1    0    0  501  502  0.00000000000E+00  0.00000000000E+00  0.35864635525E+03  0.35864635525E+03  0.00000000000E+00 0. -1.
         21   -1    0    0  502  503 -0.00000000000E+00 -0.00000000000E+00 -0.22236312700E+03  0.22236312700E+03  0.00000000000E+00 0.  1.
          6    1    1    2  501    0 -0.12965297328E+03  0.81800165259E+02  0.23503071583E+03  0.32965072107E+03  0.17300000000E+03 0.  1.
         -6    1    1    2    0  503  0.12965297328E+03 -0.81800165259E+02 -0.98747487580E+02  0.25135876118E+03  0.17300000000E+03 0. -1.
</event>
<event>
 4    1  0.6239288E+000  0.1000000E+03  0.7546771E-02  0.1280296E+00
         21   -1    0    0  501  502  0.00000000000E+00  0.00000000000E+00  0.21499545129E+04  0.21499545129E+04  0.00000000000E+00 0. -1.
         21   -1    0    0  502  503 -0.00000000000E+00 -0.00000000000E+00 -0.32594833398E+02  0.32594833398E+02  0.00000000000E+00 0.  1.
          6    1    1    2  501    0  0.60557806358E+02  0.16965914636E+03  0.14203427525E+04  0.14421352254E+04  0.17300000000E+03 0.  1.
         -6    1    1    2    0  503 -0.60557806358E+02 -0.16965914636E+03  0.69701692703E+03  0.74041412089E+03  0.17300000000E+03 0. -1.
</event>
<event>
 4    1  0.6239288E+000  0.1000000E+03  0.7546771E-02  0.1280296E+00
         21   -1    0    0  503  502  0.00000000000E+00  0.00000000000E+00  0.40276496157E+03  0.40276496157E+03  0.00000000000E+00 0.  1.
         21   -1    0    0  501  503 -0.00000000000E+00 -0.00000000000E+00 -0.13773917733E+03  0.13773917733E+03  0.00000000000E+00 0.  1.
          6    1    1    2  501    0 -0.17924284722E+02 -0.12832912345E+03  0.25135288941E+02  0.21760153184E+03  0.17300000000E+03 0.  1.
         -6    1    1    2    0  502  0.17924284722E+02  0.12832912345E+03  0.23989049530E+03  0.32290260706E+03  0.17300000000E+03 0.  1.
</event>
<event>
 4    1  0.6239288E+000  0.1000000E+03  0.7546771E-02  0.1280296E+00
         21   -1    0    0  503  502  0.00000000000E+00  0.00000000000E+00  0.95019810785E+02  0.95019810785E+02  0.00000000000E+00 0.  1.
         21   -1    0    0  501  503 -0.00000000000E+00 -0.00000000000E+00 -0.60154198659E+03  0.60154198659E+03  0.00000000000E+00 0. -1.
          6    1    1    2  501    0  0.36487819806E+02 -0.11195957667E+03 -0.42166151114E+03  0.47073744038E+03  0.17300000000E+03 0.  1.
         -6    1    1    2    0  502 -0.36487819806E+02  0.11195957667E+03 -0.84860664667E+02  0.22582435699E+03  0.17300000000E+03 0. -1.
</event>
<event>
 4    1  0.6239288E+000  0.1000000E+03  0.7546771E-02  0.1280296E+00
         21   -1    0    0  503  502  0.00000000000E+00  0.00000000000E+00  0.13991870156E+03  0.13991870156E+03  0.00000000000E+00 0.  1.
         21   -1    0    0  501  503 -0.00000000000E+00 -0.00000000000E+00 -0.10894236072E+04  0.10894236072E+04  0.00000000000E+00 0. -1.
          6    1    1    2  501    0  0.52876408988E+01 -0.38373128351E+02 -0.10224004979E+04  0.10376570890E+04  0.17300000000E+03 0.  1.
         -6    1    1    2    0  502 -0.52876408988E+01  0.38373128351E+02  0.72895592261E+02  0.19168521982E+03  0.17300000000E+03 0. -1.
</event>
<event>
 4    1  0.6239288E+000  0.1000000E+03  0.7546771E-02  0.1280296E+00
         21   -1    0    0  501  502  0.00000000000E+00  0.00000000000E+00  0.50302889964E+03  0.50302889964E+03  0.00000000000E+00 0.  1.
         21   -1    0    0  502  503 -0.00000000000E+00 -0.00000000000E+00 -0.11914217981E+03  0.11914217981E+03  0.00000000000E+00 0.  1.
          6    1    1    2  501    0 -0.84867240309E+02  0.25216105751E+00  0.38382007332E+03  0.42947568120E+03  0.17300000000E+03 0.  1.
         -6    1    1    2    0  503  0.84867240309E+02 -0.25216105751E+00  0.66646512476E-01  0.19269539824E+03  0.17300000000E+03 0.  1.
</event>
<event>
 4    1  0.6239288E+000  0.1000000E+03  0.7546771E-02  0.1280296E+00
         21   -1    0    0  501  502  0.00000000000E+00  0.00000000000E+00  0.46909547234E+03  0.46909547234E+03  0.00000000000E+00 0.  1.
         21   -1    0    0  502  503 -0.00000000000E+00 -0.00000000000E+00 -0.95068417017E+02  0.95068417017E+02  0.00000000000E+00 0.  1.
          6    1    1    2  501    0 -0.91855049934E+02 -0.77815163763E+02  0.20466439952E+03  0.29378404711E+03  0.17300000000E+03 0.  1.
         -6    1    1    2    0  503  0.91855049934E+02  0.77815163763E+02  0.16936265581E+03  0.27037984225E+03  0.17300000000E+03 0.  1.
</event>
<event>
 4    1  0.6239288E+000  0.1000000E+03  0.7546771E-02  0.1280296E+00
         21   -1    0    0  501  502  0.00000000000E+00  0.00000000000E+00  0.75680394765E+02  0.75680394765E+02  0.00000000000E+00 0.  1.
         21   -1    0    0  502  503 -0.00000000000E+00 -0.00000000000E+00 -0.59011546239E+03  0.59011546239E+03  0.00000000000E+00 0.  1.
          6    1    1    2  501    0  0.10108262208E+03  0.11142104063E+02 -0.15285372321E+03  0.25225999221E+03  0.17300000000E+03 0.  1.
         -6    1    1    2    0  503 -0.10108262208E+03 -0.11142104063E+02 -0.36158134441E+03  0.41353586494E+03  0.17300000000E+03 0.  1.
</event>
<event>
 4    1  0.6239288E+000  0.1000000E+03  0.7546771E-02  0.1280296E+00
         21   -1    0    0  501  502  0.00000000000E+00  0.00000000000E+00  0.15854833714E+04  0.15854833714E+04  0.00000000000E+00 0. -1.
         21   -1    0    0  502  503 -0.00000000000E+00 -0.00000000000E+00 -0.30087192545E+02  0.30087192545E+02  0.00000000000E+00 0. -1.
          6    1    1    2  501    0  0.61698535648E+02  0.10131698976E+03  0.10027261629E+04  0.10244318423E+04  0.17300000000E+03 0.  1.
         -6    1    1    2    0  503 -0.61698535648E+02 -0.10131698976E+03  0.55267001598E+03  0.59113872169E+03  0.17300000000E+03 0.  1.
</event>
<event>
 4    1  0.6239288E+000  0.1000000E+03  0.7546771E-02  0.1280296E+00
         21   -1    0    0  501  502  0.00000000000E+00  0.00000000000E+00  0.16479938635E+04  0.16479938635E+04  0.00000000000E+00 0. -1.
         21   -1    0    0  502  503 -0.00000000000E+00 -0.00000000000E+00 -0.25515389722E+02  0.25515389722E+02  0.00000000000E+00 0. -1.
          6    1    1    2  501    0  0.43633871635E+01  0.34993441344E+01  0.12598947371E+04  0.12717291509E+04  0.17300000000E+03 0.  1.
         -6    1    1    2    0  503 -0.43633871635E+01 -0.34993441344E+01  0.36258373669E+03  0.40178010238E+03  0.17300000000E+03 0.  1.
</event>
<event>
 4    1  0.6239288E+000  0.1000000E+03  0.7546771E-02  0.1280296E+00
         21   -1    0    0  501  502  0.00000000000E+00  0.00000000000E+00  0.67462890452E+03  0.67462890452E+03  0.00000000000E+00 0. -1.
         21   -1    0    0  502  503 -0.00000000000E+00 -0.00000000000E+00 -0.20594683922E+03  0.20594683922E+03  0.00000000000E+00 0. -1.
          6    1    1    2  501    0  0.10348004095E+03  0.28694174498E+02  0.60313027431E+03  0.63657411376E+03  0.17300000000E+03 0.  1.
         -6    1    1    2    0  503 -0.10348004095E+03 -0.28694174498E+02 -0.13444820901E+03  0.24400162997E+03  0.17300000000E+03 0.  1.
</event>
<event>
 4    1  0.6239288E+000  0.1000000E+03  0.7546771E-02  0.1280296E+00
         21   -1    0    0  501  502  0.00000000000E+00  0.00000000000E+00  0.80134939471E+02  0.80134939471E+02  0.00000000000E+00 0. -1.
         21   -1    0    0  502  503 -0.00000000000E+00 -0.00000000000E+00 -0.56133947527E+03  0.56133947527E+03  0.00000000000E+00 0. -1.
          6    1    1    2  501    0  0.31132859123E+02 -0.83021958279E+02 -0.11235427799E+03  0.22453147721E+03  0.17300000000E+03 0. -1.
         -6    1    1    2    0  503 -0.31132859123E+02  0.83021958279E+02 -0.36885025781E+03  0.41694293753E+03  0.17300000000E+03 0. -1.
</event>
<event>
 4    1  0.6239288E+000  0.1000000E+03  0.7546771E-02  0.1280296E+00
         21   -1    0    0  501  502  0.00000000000E+00  0.00000000000E+00  0.11364854114E+03  0.11364854114E+03  0.00000000000E+00 0. -1.
         21   -1    0    0  502  503 -0.00000000000E+00 -0.00000000000E+00 -0.68985353534E+03  0.68985353534E+03  0.00000000000E+00 0. -1.
          6    1    1    2  501    0  0.77079419839E+02 -0.15264625258E+03 -0.89134490234E+02  0.25906769914E+03  0.17300000000E+03 0. -1.
         -6    1    1    2    0  503 -0.77079419839E+02  0.15264625258E+03 -0.48707050396E+03  0.54443437733E+03  0.17300000000E+03 0. -1.
</event>
<event>
 4    1  0.6239288E+000  0.1000000E+03  0.7546771E-02  0.1280296E+00
         21   -1    0    0  501  502  0.00000000000E+00  0.00000000000E+00  0.22213009229E+03  0.22213009229E+03  0.00000000000E+00 0. -1.
         21   -1    0    0  502  503 -0.00000000000E+00 -0.00000000000E+00 -0.15879149959E+03  0.15879149959E+03  0.00000000000E+00 0. -1.
          6    1    1    2  501    0  0.68469087617E+02  0.25458219869E+02  0.34396789805E+02  0.19091431603E+03  0.17300000000E+03 0. -1.
         -6    1    1    2    0  503 -0.68469087617E+02 -0.25458219869E+02  0.28941802897E+02  0.19000727584E+03  0.17300000000E+03 0. -1.
</event>
<event>
 4    1  0.6239288E+000  0.1000000E+03  0.7546771E-02  0.1280296E+00
         21   -1    0    0  501  502  0.00000000000E+00  0.00000000000E+00  0.62319285566E+02  0.62319285566E+02  0.00000000000E+00 0.  1.
         21   -1    0    0  502  503 -0.00000000000E+00 -0.00000000000E+00 -0.65087394643E+03  0.65087394643E+03  0.00000000000E+00 0.  1.
          6    1    1    2  501    0 -0.53933609090E+01  0.40981810140E+02 -0.12701154709E+03  0.21856241717E+03  0.17300000000E+03 0.  1.
         -6    1    1    2    0  503  0.53933609090E+01 -0.40981810140E+02 -0.46154311378E+03  0.49463081483E+03  0.17300000000E+03 0.  1.
</event>
<event>
 4    1  0.6239288E+000  0.1000000E+03  0.7546771E-02  0.1280296E+00
         21   -1    0    0  503  502  0.00000000000E+00  0.00000000000E+00  0.92866223108E+02  0.92866223108E+02  0.00000000000E+00 0.  1.
         21   -1    0    0  501  503 -0.00000000000E+00 -0.00000000000E+00 -0.42467226401E+03  0.42467226401E+03  0.00000000000E+00 0.  1.
          6    1    1    2  501    0 -0.94113522082E+02  0.25164395421E+02 -0.16035823625E+03  0.25521435259E+03  0.17300000000E+03 0.  1.
         -6    1    1    2    0  502  0.94113522082E+02 -0.25164395421E+02 -0.17144780466E+03  0.26232413453E+03  0.17300000000E+03 0.  1.
</event>
<event>
 4    1  0.6239288E+000  0.1000000E+03  0.7546771E-02  0.1280296E+00
         21   -1    0    0  503  502  0.00000000000E+00  0.00000000000E+00  0.93825578374E+03  0.93825578374E+03  0.00000000000E+00 0. -1.
         21   -1    0    0  501  503 -0.00000000000E+00 -0.00000000000E+00 -0.44130486466E+02  0.44130486466E+02  0.00000000000E+00 0. -1.
          6    1    1    2  501    0  0.17640774304E+02  0.34842467570E+02  0.20625717475E+03  0.27202245606E+03  0.17300000000E+03 0. -1.
         -6    1    1    2    0  502 -0.17640774304E+02 -0.34842467570E+02  0.68786812252E+03  0.71036381414E+03  0.17300000000E+03 0. -1.
</event>
<event>
 4    1  0.6239288E+000  0.1000000E+03  0.7546771E-02  0.1280296E+00
         21   -1    0    0  501  502  0.00000000000E+00  0.00000000000E+00  0.87843930308E+03  0.87843930308E+03  0.00000000000E+00 0.  1.
         21   -1    0    0  502  503 -0.00000000000E+00 -0.00000000000E+00 -0.91067277873E+02  0.91067277873E+02  0.00000000000E+00 0.  1.
          6    1    1    2  501    0  0.94844812410E+02  0.21903232744E+02  0.73899520421E+03  0.76519161123E+03  0.17300000000E+03 0.  1.
         -6    1    1    2    0  503 -0.94844812410E+02 -0.21903232744E+02  0.48376820999E+02  0.20431496973E+03  0.17300000000E+03 0.  1.
</event>
<event>
 4    1  0.6239288E+000  0.1000000E+03  0.7546771E-02  0.1280296E+00
         21   -1    0    0  503  502  0.00000000000E+00  0.00000000000E+00  0.62495041025E+02  0.62495041025E+02  0.00000000000E+00 0. -1.
         21   -1    0    0  501  503 -0.00000000000E+00 -0.00000000000E+00 -0.91456744995E+03  0.91456744995E+03  0.00000000000E+00 0. -1.
          6    1    1    2  501    0  0.52148254476E+02  0.11065855525E+03 -0.65231582092E+03  0.68586418956E+03  0.17300000000E+03 0. -1.
         -6    1    1    2    0  502 -0.52148254476E+02 -0.11065855525E+03 -0.19975658800E+03  0.29119830141E+03  0.17300000000E+03 0. -1.
</event>
<event>
 4    1  0.6239288E+000  0.1000000E+03  0.7546771E-02  0.1280296E+00
         21   -1    0    0  503  502  0.00000000000E+00  0.00000000000E+00  0.95520437188E+02  0.95520437188E+02  0.00000000000E+00 0. -1.
         21   -1    0    0  501  503 -0.00000000000E+00 -0.00000000000E+00 -0.86553106492E+03  0.86553106492E+03  0.00000000000E+00 0.  1.
          6    1    1    2  501    0 -0.15331003141E+03 -0.16046424290E+03 -0.48379213222E+03  0.55967541145E+03  0.17300000000E+03 0.  1.
         -6    1    1    2    0  502  0.15331003141E+03  0.16046424290E+03 -0.28621849550E+03  0.40137609065E+03  0.17300000000E+03 0.  1.
</event>
<event>
 4    1  0.6239288E+000  0.1000000E+03  0.7546771E-02  0.1280296E+00
         21   -1    0    0  503  502  0.00000000000E+00  0.00000000000E+00  0.68430998745E+02  0.68430998745E+02  0.00000000000E+00 0.  1.
         21   -1    0    0  501  503 -0.00000000000E+00 -0.00000000000E+00 -0.61246647661E+03  0.61246647661E+03  0.00000000000E+00 0. -1.
          6    1    1    2  501    0  0.10604520629E+02 -0.10153265165E+02 -0.91624715989E+02  0.19631513755E+03  0.17300000000E+03 0. -1.
         -6    1    1    2    0  502 -0.10604520629E+02  0.10153265165E+02 -0.45241076188E+03  0.48458233780E+03  0.17300000000E+03 0.  1.
</event>
<event>
 4    1  0.6239288E+000  0.1000000E+03  0.7546771E-02  0.1280296E+00
         21   -1    0    0  503  502  0.00000000000E+00  0.00000000000E+00  0.10458203024E+04  0.10458203024E+04  0.00000000000E+00 0.  1.
         21   -1    0    0  501  503 -0.00000000000E+00 -0.00000000000E+00 -0.52984060281E+02  0.52984060281E+02  0.00000000000E+00 0. -1.
          6    1    1    2  501    0  0.99837400513E+02  0.85707219787E+02  0.28546358114E+03  0.35879198740E+03  0.17300000000E+03 0. -1.
         -6    1    1    2    0  502 -0.99837400513E+02 -0.85707219787E+02  0.70737266094E+03  0.74001237524E+03  0.17300000000E+03 0.  1.
</event>
<event>
 4    1  0.6239288E+000  0.1000000E+03  0.7546771E-02  0.1280296E+00
         21   -1    0    0  503  502  0.00000000000E+00  0.00000000000E+00  0.42035264915E+03  0.42035264915E+03  0.00000000000E+00 0. -1.
         21   -1    0    0  501  503 -0.00000000000E+00 -0.00000000000E+00 -0.14957070774E+03  0.14957070774E+03  0.00000000000E+00 0.  1.
          6    1    1    2  501    0  0.16123962722E+03  0.62658820849E+02  0.72946369250E+02  0.25529300422E+03  0.17300000000E+03 0.  1.
         -6    1    1    2    0  502 -0.16123962722E+03 -0.62658820849E+02  0.19783557216E+03  0.31463035268E+03  0.17300000000E+03 0. -1.
</event>
<event>
 4    1  0.6239288E+000  0.1000000E+03  0.7546771E-02  0.1280296E+00
         21   -1    0    0  503  502  0.00000000000E+00  0.00000000000E+00  0.75405600554E+03  0.75405600554E+03  0.00000000000E+00 0. -1.
         21   -1    0    0  501  503 -0.00000000000E+00 -0.00000000000E+00 -0.16547462483E+03  0.16547462483E+03  0.00000000000E+00 0.  1.
          6    1    1    2  501    0  0.34067422346E+02 -0.27785696799E+03  0.12718643948E+03  0.35280373342E+03  0.17300000000E+03 0.  1.
         -6    1    1    2    0  502 -0.34067422346E+02  0.27785696799E+03  0.46139494123E+03  0.56672689695E+03  0.17300000000E+03 0. -1.
</event>
<event>
 4    1  0.6239288E+000  0.1000000E+03  0.7546771E-02  0.1280296E+00
         21   -1    0    0  501  502  0.00000000000E+00  0.00000000000E+00  0.37121801205E+03  0.37121801205E+03  0.00000000000E+00 0. -1.
         21   -1    0    0  502  503 -0.00000000000E+00 -0.00000000000E+00 -0.12234160951E+03  0.12234160951E+03  0.00000000000E+00 0. -1.
          6    1    1    2  501    0  0.11726650411E+03 -0.38399414392E+00  0.17267031588E+03  0.27110075327E+03  0.17300000000E+03 0. -1.
         -6    1    1    2    0  503 -0.11726650411E+03  0.38399414392E+00  0.76206086658E+02  0.22245886829E+03  0.17300000000E+03 0. -1.
</event>
<event>
 4    1  0.6239288E+000  0.1000000E+03  0.7546771E-02  0.1280296E+00
         21   -1    0    0  501  502  0.00000000000E+00  0.00000000000E+00  0.74071967733E+03  0.74071967733E+03  0.00000000000E+00 0. -1.
         21   -1    0    0  502  503 -0.00000000000E+00 -0.00000000000E+00 -0.55274023011E+02  0.55274023011E+02  0.00000000000E+00 0. -1.
          6    1    1    2  501    0 -0.14579393710E+02  0.61141927154E+02  0.50802417074E+03  0.54034105159E+03  0.17300000000E+03 0. -1.
         -6    1    1    2    0  503  0.14579393710E+02 -0.61141927154E+02  0.17742148357E+03  0.25565264874E+03  0.17300000000E+03 0. -1.
</event>
<event>
 4    1  0.6239288E+000  0.1000000E+03  0.7546771E-02  0.1280296E+00
         21   -1    0    0  501  502  0.00000000000E+00  0.00000000000E+00  0.10311612257E+04  0.10311612257E+04  0.00000000000E+00 0.  1.
         21   -1    0    0  502  503 -0.00000000000E+00 -0.00000000000E+00 -0.65981644839E+02  0.65981644839E+02  0.00000000000E+00 0.  1.
          6    1    1    2  501    0  0.14714276565E+03  0.15560619143E+02  0.75039848749E+03  0.78416835971E+03  0.17300000000E+03 0.  1.
         -6    1    1    2    0  503 -0.14714276565E+03 -0.15560619143E+02  0.21478109335E+03  0.31297451080E+03  0.17300000000E+03 0.  1.
</event>
<event>
 4    1  0.6239288E+000  0.1000000E+03  0.7546771E-02  0.1280296E+00
         21   -1    0    0  501  502  0.00000000000E+00  0.00000000000E+00  0.12650889533E+03  0.12650889533E+03  0.00000000000E+00 0.  1.
         21   -1    0    0  502  503 -0.00000000000E+00 -0.00000000000E+00 -0.84828742349E+03  0.84828742349E+03  0.00000000000E+00 0.  1.
          6    1    1    2  501    0  0.26786431380E+03  0.52188103497E+02 -0.28060161789E+03  0.42794994651E+03  0.17300000000E+03 0.  1.
         -6    1    1    2    0  503 -0.26786431380E+03 -0.52188103497E+02 -0.44117691028E+03  0.54684637231E+03  0.17300000000E+03 0.  1.
</event>
<event>
 4    1  0.6239288E+000  0.1000000E+03  0.7546771E-02  0.1280296E+00
         21   -1    0    0  501  502  0.00000000000E+00  0.00000000000E+00  0.58033675022E+03  0.58033675022E+03  0.00000000000E+00 0.  1.
         21   -1    0    0  502  503 -0.00000000000E+00 -0.00000000000E+00 -0.18875157953E+03  0.18875157953E+03  0.00000000000E+00 0.  1.
          6    1    1    2  501    0  0.27595333147E+03 -0.99182020336E+01  0.26316019162E+03  0.41884471864E+03  0.17300000000E+03 0.  1.
         -6    1    1    2    0  503 -0.27595333147E+03  0.99182020336E+01  0.12842497907E+03  0.35024361112E+03  0.17300000000E+03 0.  1.
</event>
<event>
 4    1  0.6239288E+000  0.1000000E+03  0.7546771E-02  0.1280296E+00
         21   -1    0    0  503  502  0.00000000000E+00  0.00000000000E+00  0.14583304587E+03  0.14583304587E+03  0.00000000000E+00 0. -1.
         21   -1    0    0  501  503 -0.00000000000E+00 -0.00000000000E+00 -0.44786360108E+03  0.44786360108E+03  0.00000000000E+00 0.  1.
          6    1    1    2  501    0 -0.10422049871E+03  0.15212837755E+03 -0.10787607043E+03  0.27490216838E+03  0.17300000000E+03 0. -1.
         -6    1    1    2    0  502  0.10422049871E+03 -0.15212837755E+03 -0.19415448478E+03  0.31879447857E+03  0.17300000000E+03 0.  1.
</event>
<event>
 4    1  0.6239288E+000  0.1000000E+03  0.7546771E-02  0.1280296E+00
         21   -1    0    0  503  502  0.00000000000E+00  0.00000000000E+00  0.11690593689E+03  0.11690593689E+03  0.00000000000E+00 0. -1.
         21   -1    0    0  501  503 -0.00000000000E+00 -0.00000000000E+00 -0.48571625995E+03  0.48571625995E+03  0.00000000000E+00 0. -1.
          6    1    1    2  501    0 -0.12660513197E+03  0.11014527648E+02 -0.31522609967E+03  0.38137471491E+03  0.17300000000E+03 0. -1.
         -6    1    1    2    0  502  0.12660513197E+03 -0.11014527648E+02 -0.53584223385E+02  0.22124748192E+03  0.17300000000E+03 0. -1.
</event>
<event>
 4    1  0.6239288E+000  0.1000000E+03  0.7546771E-02  0.1280296E+00
         21   -1    0    0  503  502  0.00000000000E+00  0.00000000000E+00  0.65050400220E+03  0.65050400220E+03  0.00000000000E+00 0. -1.
         21   -1    0    0  501  503 -0.00000000000E+00 -0.00000000000E+00 -0.15742676205E+03  0.15742676205E+03  0.00000000000E+00 0. -1.
          6    1    1    2  501    0 -0.13469424112E+03  0.15619695614E+03  0.28120241807E+02  0.27066543129E+03  0.17300000000E+03 0. -1.
         -6    1    1    2    0  502  0.13469424112E+03 -0.15619695614E+03  0.46495699834E+03  0.53726533296E+03  0.17300000000E+03 0. -1.
</event>
<event>
 4    1  0.6239288E+000  0.1000000E+03  0.7546771E-02  0.1280296E+00
         21   -1    0    0  501  502  0.00000000000E+00  0.00000000000E+00  0.21868865318E+03  0.21868865318E+03  0.00000000000E+00 0. -1.
         21   -1    0    0  502  503 -0.00000000000E+00 -0.00000000000E+00 -0.43164562490E+03  0.43164562490E+03  0.00000000000E+00 0.  1.
          6    1    1    2  501    0  0.74350195496E+02  0.24274846905E+03 -0.10277734773E+03  0.32395517283E+03  0.17300000000E+03 0. -1.
         -6    1    1    2    0  503 -0.74350195496E+02 -0.24274846905E+03 -0.11017962399E+03  0.32637910525E+03  0.17300000000E+03 0.  1.
</event>
<event>
 4    1  0.6239288E+000  0.1000000E+03  0.7546771E-02  0.1280296E+00
         21   -1    0    0  501  502  0.00000000000E+00  0.00000000000E+00  0.11660061201E+04  0.11660061201E+04  0.00000000000E+00 0. -1.
         21   -1    0    0  502  503 -0.00000000000E+00 -0.00000000000E+00 -0.11470526960E+03  0.11470526960E+03  0.00000000000E+00 0.  1.
          6    1    1    2  501    0  0.30835106462E+02 -0.14988018116E+03  0.10221464465E+04  0.10479156600E+04  0.17300000000E+03 0. -1.
         -6    1    1    2    0  503 -0.30835106462E+02  0.14988018116E+03  0.29154404076E+02  0.23279572971E+03  0.17300000000E+03 0.  1.
</event>
<event>
 4    1  0.6239288E+000  0.1000000E+03  0.7546771E-02  0.1280296E+00
         21   -1    0    0  501  502  0.00000000000E+00  0.00000000000E+00  0.16897667931E+03  0.16897667931E+03  0.00000000000E+00 0. -1.
         21   -1    0    0  502  503 -0.00000000000E+00 -0.00000000000E+00 -0.76882529599E+03  0.76882529599E+03  0.00000000000E+00 0.  1.
          6    1    1    2  501    0  0.19095037613E+03  0.66086851923E+01  0.27845063038E+02  0.25924904706E+03  0.17300000000E+03 0. -1.
         -6    1    1    2    0  503 -0.19095037613E+03 -0.66086851923E+01 -0.62769367972E+03  0.67855292824E+03  0.17300000000E+03 0.  1.
</event>
<event>
 4    1  0.6239288E+000  0.1000000E+03  0.7546771E-02  0.1280296E+00
         21   -1    0    0  501  502  0.00000000000E+00  0.00000000000E+00  0.19524042122E+03  0.19524042122E+03  0.00000000000E+00 0. -1.
         21   -1    0    0  502  503 -0.00000000000E+00 -0.00000000000E+00 -0.34229112150E+03  0.34229112150E+03  0.00000000000E+00 0.  1.
          6    1    1    2  501    0 -0.75781040019E+02  0.75144895277E+02 -0.23958002678E+03  0.31419279200E+03  0.17300000000E+03 0.  1.
         -6    1    1    2    0  503  0.75781040019E+02 -0.75144895277E+02  0.92529326499E+02  0.22333875072E+03  0.17300000000E+03 0. -1.
</event>
<event>
 4    1  0.6239288E+000  0.1000000E+03  0.7546771E-02  0.1280296E+00
         21   -1    0    0  501  502  0.00000000000E+00  0.00000000000E+00  0.24177413051E+03  0.24177413051E+03  0.00000000000E+00 0. -1.
         21   -1    0    0  502  503 -0.00000000000E+00 -0.00000000000E+00 -0.48535880212E+03  0.48535880212E+03  0.00000000000E+00 0.  1.
          6    1    1    2  501    0  0.19534392736E+03 -0.78189185320E+02  0.98660006463E+02  0.28971640536E+03  0.17300000000E+03 0.  1.
         -6    1    1    2    0  503 -0.19534392736E+03  0.78189185320E+02 -0.34224467807E+03  0.43741652727E+03  0.17300000000E+03 0. -1.
</event>
<event>
 4    1  0.6239288E+000  0.1000000E+03  0.7546771E-02  0.1280296E+00
         21   -1    0    0  501  502  0.00000000000E+00  0.00000000000E+00  0.72269705175E+03  0.72269705175E+03  0.00000000000E+00 0. -1.
         21   -1    0    0  502  503 -0.00000000000E+00 -0.00000000000E+00 -0.83125479366E+02  0.83125479366E+02  0.00000000000E+00 0.  1.
          6    1    1    2  501    0  0.93504297205E+00 -0.92451907676E+01  0.60479101758E+03  0.62911646204E+03  0.17300000000E+03 0.  1.
         -6    1    1    2    0  503 -0.93504297205E+00  0.92451907676E+01  0.34780554803E+02  0.17670606908E+03  0.17300000000E+03 0. -1.
</event>
<event>
 4    1  0.6239288E+000  0.1000000E+03  0.7546771E-02  0.1280296E+00
         21   -1    0    0  503  502  0.00000000000E+00  0.00000000000E+00  0.68536302723E+03  0.68536302723E+03  0.00000000000E+00 0. -1.
         21   -1    0    0  501  503 -0.00000000000E+00 -0.00000000000E+00 -0.20528089576E+03  0.20528089576E+03  0.00000000000E+00 0. -1.
          6    1    1    2  501    0  0.76310291348E+02  0.29388761724E+03  0.78254495371E+02  0.35811444844E+03  0.17300000000E+03 0. -1.
         -6    1    1    2    0  502 -0.76310291348E+02 -0.29388761724E+03  0.40182763610E+03  0.53252947455E+03  0.17300000000E+03 0. -1.
</event>
<event>
 4    1  0.6239288E+000  0.1000000E+03  0.7546771E-02  0.1280296E+00
         21   -1    0    0  503  502  0.00000000000E+00  0.00000000000E+00  0.18970697613E+03  0.18970697613E+03  0.00000000000E+00 0. -1.
         21   -1    0    0  501  503 -0.00000000000E+00 -0.00000000000E+00 -0.22143164406E+03  0.22143164406E+03  0.00000000000E+00 0. -1.
          6    1    1    2  501    0  0.90251772916E+02  0.59461060174E+02 -0.35849983441E+02  0.20711161605E+03  0.17300000000E+03 0. -1.
         -6    1    1    2    0  502 -0.90251772916E+02 -0.59461060174E+02  0.41253155114E+01  0.20402700414E+03  0.17300000000E+03 0. -1.
</event>
<event>
 4    1  0.6239288E+000  0.1000000E+03  0.7546771E-02  0.1280296E+00
         21   -1    0    0  503  502  0.00000000000E+00  0.00000000000E+00  0.12312303079E+04  0.12312303079E+04  0.00000000000E+00 0. -1.
         21   -1    0    0  501  503 -0.00000000000E+00 -0.00000000000E+00 -0.26907664696E+03  0.26907664696E+03  0.00000000000E+00 0. -1.
          6    1    1    2  501    0  0.21261936799E+03 -0.28027602457E+03 -0.68172674210E+02  0.39791727670E+03  0.17300000000E+03 0. -1.
         -6    1    1    2    0  502 -0.21261936799E+03  0.28027602457E+03  0.10303263352E+04  0.11023896782E+04  0.17300000000E+03 0. -1.
</event>
<event>
 4    1  0.6239288E+000  0.1000000E+03  0.7546771E-02  0.1280296E+00
         21   -1    0    0  503  502  0.00000000000E+00  0.00000000000E+00  0.20043639454E+03  0.20043639454E+03  0.00000000000E+00 0. -1.
         21   -1    0    0  501  503 -0.00000000000E+00 -0.00000000000E+00 -0.27143034262E+03  0.27143034262E+03  0.00000000000E+00 0. -1.
          6    1    1    2  501    0 -0.15828208886E+02 -0.65559948064E+02 -0.17828491649E+03  0.25741629792E+03  0.17300000000E+03 0. -1.
         -6    1    1    2    0  502  0.15828208886E+02  0.65559948064E+02  0.10729096841E+03  0.21445043924E+03  0.17300000000E+03 0. -1.
</event>
<event>
 4    1  0.6239288E+000  0.1000000E+03  0.7546771E-02  0.1280296E+00
         21   -1    0    0  503  502  0.00000000000E+00  0.00000000000E+00  0.20530245104E+03  0.20530245104E+03  0.00000000000E+00 0. -1.
         21   -1    0    0  501  503 -0.00000000000E+00 -0.00000000000E+00 -0.16387015545E+03  0.16387015545E+03  0.00000000000E+00 0.  1.
          6    1    1    2  501    0  0.21639741999E+02  0.11511826685E+02  0.76866447087E+02  0.19088805954E+03  0.17300000000E+03 0. -1.
         -6    1    1    2    0  502 -0.21639741999E+02 -0.11511826685E+02 -0.35434151493E+02  0.17828454695E+03  0.17300000000E+03 0.  1.
</event>
<event>
 4    1  0.6239288E+000  0.1000000E+03  0.7546771E-02  0.1280296E+00
         21   -1    0    0  501  502  0.00000000000E+00  0.00000000000E+00  0.12719283943E+03  0.12719283943E+03  0.00000000000E+00 0. -1.
         21   -1    0    0  502  503 -0.00000000000E+00 -0.00000000000E+00 -0.71414807014E+03  0.71414807014E+03  0.00000000000E+00 0.  1.
          6    1    1    2  501    0 -0.18873353885E+03 -0.15821161845E+03 -0.27122136075E+03  0.40514354423E+03  0.17300000000E+03 0.  1.
         -6    1    1    2    0  503  0.18873353885E+03  0.15821161845E+03 -0.31573386996E+03  0.43619736535E+03  0.17300000000E+03 0. -1.
</event>
<event>
 4    1  0.6239288E+000  0.1000000E+03  0.7546771E-02  0.1280296E+00
         21   -1    0    0  501  502  0.00000000000E+00  0.00000000000E+00  0.51755306458E+03  0.51755306458E+03  0.00000000000E+00 0.  1.
         21   -1    0    0  502  503 -0.00000000000E+00 -0.00000000000E+00 -0.71384421761E+02  0.71384421761E+02  0.00000000000E+00 0. -1.
          6    1    1    2  501    0 -0.23717067461E+02 -0.70565719259E+02  0.16426240666E+03  0.24990629897E+03  0.17300000000E+03 0.  1.
         -6    1    1    2    0  503  0.23717067461E+02  0.70565719259E+02  0.28190623616E+03  0.33903118737E+03  0.17300000000E+03 0.  1.
</event>
<event>
 4    1  0.6239288E+000  0.1000000E+03  0.7546771E-02  0.1280296E+00
         21   -1    0    0  501  502  0.00000000000E+00  0.00000000000E+00  0.89367032974E+03  0.89367032974E+03  0.00000000000E+00 0.  1.
         21   -1    0    0  502  503 -0.00000000000E+00 -0.00000000000E+00 -0.46065774524E+02  0.46065774524E+02  0.00000000000E+00 0. -1.
          6    1    1    2  501    0  0.30782015114E+02 -0.10104558616E+03  0.44462798499E+03  0.48865201112E+03  0.17300000000E+03 0.  1.
         -6    1    1    2    0  503 -0.30782015114E+02  0.10104558616E+03  0.40297657023E+03  0.45108409315E+03  0.17300000000E+03 0.  1.
</event>
<event>
 4    1  0.6239288E+000  0.1000000E+03  0.7546771E-02  0.1280296E+00
         21   -1    0    0  501  502  0.00000000000E+00  0.00000000000E+00  0.14899654812E+03  0.14899654812E+03  0.00000000000E+00 0.  1.
         21   -1    0    0  502  503 -0.00000000000E+00 -0.00000000000E+00 -0.32032061237E+03  0.32032061237E+03  0.00000000000E+00 0. -1.
          6    1    1    2  501    0  0.54261878227E+02  0.92245107725E+02 -0.10755180017E+00  0.20342694732E+03  0.17300000000E+03 0.  1.
         -6    1    1    2    0  503 -0.54261878227E+02 -0.92245107725E+02 -0.17121651245E+03  0.26589021317E+03  0.17300000000E+03 0.  1.
</event>
<event>
 4    1  0.6239288E+000  0.1000000E+03  0.7546771E-02  0.1280296E+00
         21   -1    0    0  501  502  0.00000000000E+00  0.00000000000E+00  0.18812041211E+03  0.18812041211E+03  0.00000000000E+00 0.  1.
         21   -1    0    0  502  503 -0.00000000000E+00 -0.00000000000E+00 -0.40023573140E+03  0.40023573140E+03  0.00000000000E+00 0. -1.
          6    1    1    2  501    0  0.15179810361E+02 -0.14980200058E+03  0.55443278784E+02  0.23595343435E+03  0.17300000000E+03 0.  1.
         -6    1    1    2    0  503 -0.15179810361E+02  0.14980200058E+03 -0.26755859807E+03  0.35240270916E+03  0.17300000000E+03 0.  1.
</event>
<event>
 4    1  0.6239288E+000  0.1000000E+03  0.7546771E-02  0.1280296E+00
         21   -1    0    0  501  502  0.00000000000E+00  0.00000000000E+00  0.79552352271E+03  0.79552352271E+03  0.00000000000E+00 0.  1.
         21   -1    0    0  502  503 -0.00000000000E+00 -0.00000000000E+00 -0.47198253457E+02  0.47198253457E+02  0.00000000000E+00 0.  1.
          6    1    1    2  501    0 -0.28862854822E+02  0.30008159493E+02  0.54097543518E+03  0.56948834535E+03  0.17300000000E+03 0.  1.
         -6    1    1    2    0  503  0.28862854822E+02 -0.30008159493E+02  0.20734983407E+03  0.27323343081E+03  0.17300000000E+03 0.  1.
</event>
<event>
 4    1  0.6239288E+000  0.1000000E+03  0.7546771E-02  0.1280296E+00
         21   -1    0    0  503  502  0.00000000000E+00  0.00000000000E+00  0.62227563107E+03  0.62227563107E+03  0.00000000000E+00 0. -1.
         21   -1    0    0  501  503 -0.00000000000E+00 -0.00000000000E+00 -0.33024916689E+03  0.33024916689E+03  0.00000000000E+00 0. -1.
          6    1    1    2  501    0  0.58889809951E+02  0.10686446486E+03 -0.27512734402E+03  0.34714849704E+03  0.17300000000E+03 0. -1.
         -6    1    1    2    0  502 -0.58889809951E+02 -0.10686446486E+03  0.56715380820E+03  0.60537630092E+03  0.17300000000E+03 0. -1.
</event>
<event>
 4    1  0.6239288E+000  0.1000000E+03  0.7546771E-02  0.1280296E+00
         21   -1    0    0  503  502  0.00000000000E+00  0.00000000000E+00  0.19679929404E+03  0.19679929404E+03  0.00000000000E+00 0. -1.
         21   -1    0    0  501  503 -0.00000000000E+00 -0.00000000000E+00 -0.29051125409E+03  0.29051125409E+03  0.00000000000E+00 0. -1.
          6    1    1    2  501    0  0.10209794989E+03 -0.32052030563E+02 -0.17491268227E+03  0.26828114069E+03  0.17300000000E+03 0. -1.
         -6    1    1    2    0  502 -0.10209794989E+03  0.32052030563E+02  0.81200722214E+02  0.21902940744E+03  0.17300000000E+03 0. -1.
</event>
<event>
 4    1  0.6239288E+000  0.1000000E+03  0.7546771E-02  0.1280296E+00
         21   -1    0    0  503  502  0.00000000000E+00  0.00000000000E+00  0.65063346336E+03  0.65063346336E+03  0.00000000000E+00 0. -1.
         21   -1    0    0  501  503 -0.00000000000E+00 -0.00000000000E+00 -0.89295904757E+02  0.89295904757E+02  0.00000000000E+00 0. -1.
          6    1    1    2  501    0  0.14822909310E+02 -0.55384653575E+02  0.38551785645E+02  0.18628585204E+03  0.17300000000E+03 0. -1.
         -6    1    1    2    0  502 -0.14822909310E+02  0.55384653575E+02  0.52278577296E+03  0.55364351608E+03  0.17300000000E+03 0. -1.
</event>
<event>
 4    1  0.6239288E+000  0.1000000E+03  0.7546771E-02  0.1280296E+00
         21   -1    0    0  501  502  0.00000000000E+00  0.00000000000E+00  0.11403120161E+04  0.11403120161E+04  0.00000000000E+00 0. -1.
         21   -1    0    0  502  503 -0.00000000000E+00 -0.00000000000E+00 -0.45268357388E+02  0.45268357388E+02  0.00000000000E+00 0.  1.
          6    1    1    2  501    0 -0.14370200906E+03 -0.23305637803E+02  0.60572488865E+03  0.64654857582E+03  0.17300000000E+03 0.  1.
         -6    1    1    2    0  503  0.14370200906E+03  0.23305637803E+02  0.48931877003E+03  0.53903179764E+03  0.17300000000E+03 0.  1.
</event>
<event>
 4    1  0.6239288E+000  0.1000000E+03  0.7546771E-02  0.1280296E+00
         21   -1    0    0  501  502  0.00000000000E+00  0.00000000000E+00  0.17094930842E+03  0.17094930842E+03  0.00000000000E+00 0. -1.
         21   -1    0    0  502  503 -0.00000000000E+00 -0.00000000000E+00 -0.41732900130E+03  0.41732900130E+03  0.00000000000E+00 0.  1.
          6    1    1    2  501    0  0.14211043459E+03 -0.14512360535E+03 -0.10939723008E+03  0.28836260229E+03  0.17300000000E+03 0.  1.
         -6    1    1    2    0  503 -0.14211043459E+03  0.14512360535E+03 -0.13698246280E+03  0.29991570744E+03  0.17300000000E+03 0.  1.
</event>
<event>
 4    1  0.6239288E+000  0.1000000E+03  0.7546771E-02  0.1280296E+00
         21   -1    0    0  501  502  0.00000000000E+00  0.00000000000E+00  0.66398905599E+03  0.66398905599E+03  0.00000000000E+00 0. -1.
         21   -1    0    0  502  503 -0.00000000000E+00 -0.00000000000E+00 -0.66439476995E+02  0.66439476995E+02  0.00000000000E+00 0. -1.
          6    1    1    2  501    0 -0.51117462760E+02  0.56225729735E+02  0.45825160469E+03  0.49567919150E+03  0.17300000000E+03 0. -1.
         -6    1    1    2    0  503  0.51117462760E+02 -0.56225729735E+02  0.13929797431E+03  0.23474934149E+03  0.17300000000E+03 0. -1.
</event>
<event>
 4    1  0.6239288E+000  0.1000000E+03  0.7546771E-02  0.1280296E+00
         21   -1    0    0  501  502  0.00000000000E+00  0.00000000000E+00  0.49009615706E+03  0.49009615706E+03  0.00000000000E+00 0. -1.
         21   -1    0    0  502  503 -0.00000000000E+00 -0.00000000000E+00 -0.94806750861E+02  0.94806750861E+02  0.00000000000E+00 0. -1.
          6    1    1    2  501    0  0.38013658928E+02 -0.44463913872E+02  0.35300865904E+03  0.39744960845E+03  0.17300000000E+03 0. -1.
         -6    1    1    2    0  503 -0.38013658928E+02  0.44463913872E+02  0.42280747160E+02  0.18745329947E+03  0.17300000000E+03 0. -1.
</event>
<event>
 4    1  0.6239288E+000  0.1000000E+03  0.7546771E-02  0.1280296E+00
         21   -1    0    0  501  502  0.00000000000E+00  0.00000000000E+00  0.23120809288E+03  0.23120809288E+03  0.00000000000E+00 0. -1.
         21   -1    0    0  502  503 -0.00000000000E+00 -0.00000000000E+00 -0.50592311821E+03  0.50592311821E+03  0.00000000000E+00 0. -1.
          6    1    1    2  501    0 -0.23562626061E+03 -0.46253694693E+02  0.47372170098E+02  0.29972030539E+03  0.17300000000E+03 0. -1.
         -6    1    1    2    0  503  0.23562626061E+03  0.46253694693E+02 -0.32208719543E+03  0.43741090570E+03  0.17300000000E+03 0. -1.
</event>
<event>
 4    1  0.6239288E+000  0.1000000E+03  0.7546771E-02  0.1280296E+00
         21   -1    0    0  503  502  0.00000000000E+00  0.00000000000E+00  0.14921291450E+04  0.14921291450E+04  0.00000000000E+00 0. -1.
         21   -1    0    0  501  503 -0.00000000000E+00 -0.00000000000E+00 -0.87808277351E+02  0.87808277351E+02  0.00000000000E+00 0. -1.
          6    1    1    2  501    0 -0.10130014659E+03  0.36943199186E+02  0.49379580874E+02  0.20974713984E+03  0.17300000000E+03 0. -1.
         -6    1    1    2    0  502  0.10130014659E+03 -0.36943199186E+02  0.13549412868E+04  0.13701902825E+04  0.17300000000E+03 0. -1.
</event>
<event>
 4    1  0.6239288E+000  0.1000000E+03  0.7546771E-02  0.1280296E+00
         21   -1    0    0  503  502  0.00000000000E+00  0.00000000000E+00  0.20988278450E+03  0.20988278450E+03  0.00000000000E+00 0. -1.
         21   -1    0    0  501  503 -0.00000000000E+00 -0.00000000000E+00 -0.17851568473E+03  0.17851568473E+03  0.00000000000E+00 0. -1.
          6    1    1    2  501    0  0.42526758714E+02  0.69710080177E+02 -0.13914800587E+02  0.19180886883E+03  0.17300000000E+03 0. -1.
         -6    1    1    2    0  502 -0.42526758714E+02 -0.69710080177E+02  0.45281900355E+02  0.19658960040E+03  0.17300000000E+03 0. -1.
</event>
<event>
 4    1  0.6239288E+000  0.1000000E+03  0.7546771E-02  0.1280296E+00
         21   -1    0    0  503  502  0.00000000000E+00  0.00000000000E+00  0.82222142551E+03  0.82222142551E+03  0.00000000000E+00 0. -1.
         21   -1    0    0  501  503 -0.00000000000E+00 -0.00000000000E+00 -0.83256114359E+02  0.83256114359E+02  0.00000000000E+00 0. -1.
          6    1    1    2  501    0 -0.21031861131E+02 -0.34650638411E+02  0.37161432358E+02  0.18152955126E+03  0.17300000000E+03 0. -1.
         -6    1    1    2    0  502  0.21031861131E+02  0.34650638411E+02  0.70180387880E+03  0.72394798862E+03  0.17300000000E+03 0. -1.
</event>
<event>
 4    1  0.6239288E+000  0.1000000E+03  0.7546771E-02  0.1280296E+00
         21   -1    0    0  501  502  0.00000000000E+00  0.00000000000E+00  0.17486967588E+03  0.17486967588E+03  0.00000000000E+00 0.  1.
         21   -1    0    0  502  503 -0.00000000000E+00 -0.00000000000E+00 -0.24361609406E+03  0.24361609406E+03  0.00000000000E+00 0.  1.
          6    1    1    2  501    0 -0.19540742222E+02 -0.27864692485E+02 -0.14315332822E+03  0.22711265282E+03  0.17300000000E+03 0.  1.
         -6    1    1    2    0  503  0.19540742222E+02  0.27864692485E+02  0.74406910029E+02  0.19137311711E+03  0.17300000000E+03 0.  1.
</event>
<event>
 4    1  0.6239288E+000  0.1000000E+03  0.7546771E-02  0.1280296E+00
         21   -1    0    0  501  502  0.00000000000E+00  0.00000000000E+00  0.22149226599E+03  0.22149226599E+03  0.00000000000E+00 0.  1.
         21   -1    0    0  502  503 -0.00000000000E+00 -0.00000000000E+00 -0.60079495951E+03  0.60079495951E+03  0.00000000000E+00 0.  1.
          6    1    1    2  501    0  0.25013752397E+03 -0.14679032660E+03 -0.34511461500E+03  0.48285533896E+03  0.17300000000E+03 0.  1.
         -6    1    1    2    0  503 -0.25013752397E+03  0.14679032660E+03 -0.34188078525E+02  0.33943188653E+03  0.17300000000E+03 0.  1.
</event>
<event>
 4    1  0.6239288E+000  0.1000000E+03  0.7546771E-02  0.1280296E+00
         21   -1    0    0  501  502  0.00000000000E+00  0.00000000000E+00  0.18656445825E+04  0.18656445825E+04  0.00000000000E+00 0.  1.
         21   -1    0    0  502  503 -0.00000000000E+00 -0.00000000000E+00 -0.18284619658E+02  0.18284619658E+02  0.00000000000E+00 0.  1.
          6    1    1    2  501    0  0.49755663909E+02 -0.33572627575E+02  0.10465966344E+04  0.10624953000E+04  0.17300000000E+03 0.  1.
         -6    1    1    2    0  503 -0.49755663909E+02  0.33572627575E+02  0.80076332841E+03  0.82143390211E+03  0.17300000000E+03 0.  1.
</event>
<event>
 4    1  0.6239288E+000  0.1000000E+03  0.7546771E-02  0.1280296E+00
         21   -1    0    0  503  502  0.00000000000E+00  0.00000000000E+00  0.22509454320E+03  0.22509454320E+03  0.00000000000E+00 0. -1.
         21   -1    0    0  501  503 -0.00000000000E+00 -0.00000000000E+00 -0.59345576880E+03  0.59345576880E+03  0.00000000000E+00 0.  1.
          6    1    1    2  501    0 -0.18065461381E+03  0.25588680328E+03 -0.26753214306E+03  0.44678472797E+03  0.17300000000E+03 0. -1.
         -6    1    1    2    0  502  0.18065461381E+03 -0.25588680328E+03 -0.10082908255E+03  0.37176558403E+03  0.17300000000E+03 0. -1.
</event>
<event>
 4    1  0.6239288E+000  0.1000000E+03  0.7546771E-02  0.1280296E+00
         21   -1    0    0  503  502  0.00000000000E+00  0.00000000000E+00  0.31376768131E+03  0.31376768131E+03  0.00000000000E+00 0. -1.
         21   -1    0    0  501  503 -0.00000000000E+00 -0.00000000000E+00 -0.18371350988E+03  0.18371350988E+03  0.00000000000E+00 0.  1.
          6    1    1    2  501    0  0.14460069876E+03 -0.74642704363E+02  0.28640968012E+02  0.23922834373E+03  0.17300000000E+03 0. -1.
         -6    1    1    2    0  502 -0.14460069876E+03  0.74642704363E+02  0.10141320342E+03  0.25825284746E+03  0.17300000000E+03 0. -1.
</event>
<event>
 4    1  0.6239288E+000  0.1000000E+03  0.7546771E-02  0.1280296E+00
         21   -1    0    0  503  502  0.00000000000E+00  0.00000000000E+00  0.64028838747E+03  0.64028838747E+03  0.00000000000E+00 0.  1.
         21   -1    0    0  501  503 -0.00000000000E+00 -0.00000000000E+00 -0.77426857384E+02  0.77426857384E+02  0.00000000000E+00 0.  1.
          6    1    1    2  501    0 -0.96650264393E+02 -0.10027588542E+03  0.25594776177E+03  0.33887281325E+03  0.17300000000E+03 0.  1.
         -6    1    1    2    0  502  0.96650264393E+02  0.10027588542E+03  0.30691376831E+03  0.37884243160E+03  0.17300000000E+03 0.  1.
</event>
<event>
 4    1  0.6239288E+000  0.1000000E+03  0.7546771E-02  0.1280296E+00
         21   -1    0    0  503  502  0.00000000000E+00  0.00000000000E+00  0.21366177546E+04  0.21366177546E+04  0.00000000000E+00 0.  1.
         21   -1    0    0  501  503 -0.00000000000E+00 -0.00000000000E+00 -0.16172857029E+02  0.16172857029E+02  0.00000000000E+00 0.  1.
          6    1    1    2  501    0  0.44847300870E+02  0.22822186732E+02  0.79524328238E+03  0.81539745571E+03  0.17300000000E+03 0.  1.
         -6    1    1    2    0  502 -0.44847300870E+02 -0.22822186732E+02  0.13252016152E+04  0.13373931559E+04  0.17300000000E+03 0.  1.
</event>
<event>
 4    1  0.6239288E+000  0.1000000E+03  0.7546771E-02  0.1280296E+00
         21   -1    0    0  501  502  0.00000000000E+00  0.00000000000E+00  0.13468303652E+03  0.13468303652E+03  0.00000000000E+00 0.  1.
         21   -1    0    0  502  503 -0.00000000000E+00 -0.00000000000E+00 -0.25041659726E+03  0.25041659726E+03  0.00000000000E+00 0.  1.
          6    1    1    2  501    0  0.46759668388E+02 -0.39923541112E+02 -0.62254338164E+02  0.19386840471E+03  0.17300000000E+03 0.  1.
         -6    1    1    2    0  503 -0.46759668388E+02  0.39923541112E+02 -0.53479222576E+02  0.19123122907E+03  0.17300000000E+03 0.  1.
</event>
<event>
 4    1  0.6239288E+000  0.1000000E+03  0.7546771E-02  0.1280296E+00
         21   -1    0    0  501  502  0.00000000000E+00  0.00000000000E+00  0.37719352823E+02  0.37719352823E+02  0.00000000000E+00 0.  1.
         21   -1    0    0  502  503 -0.00000000000E+00 -0.00000000000E+00 -0.10041218244E+04  0.10041218244E+04  0.00000000000E+00 0.  1.
          6    1    1    2  501    0  0.46564974197E+02  0.72114315340E+02 -0.54750027116E+03  0.58056379341E+03  0.17300000000E+03 0.  1.
         -6    1    1    2    0  503 -0.46564974197E+02 -0.72114315340E+02 -0.41890220037E+03  0.46127738377E+03  0.17300000000E+03 0.  1.
</event>
<event>
 4    1  0.6239288E+000  0.1000000E+03  0.7546771E-02  0.1280296E+00
         21   -1    0    0  503  502  0.00000000000E+00  0.00000000000E+00  0.92580281902E+03  0.92580281902E+03  0.00000000000E+00 0. -1.
         21   -1    0    0  501  503 -0.00000000000E+00 -0.00000000000E+00 -0.68998598664E+02  0.68998598664E+02  0.00000000000E+00 0. -1.
          6    1    1    2  501    0  0.12906417360E+03  0.91691909206E+02  0.24289570516E+03  0.33762744365E+03  0.17300000000E+03 0. -1.
         -6    1    1    2    0  502 -0.12906417360E+03 -0.91691909206E+02  0.61390851520E+03  0.65717397404E+03  0.17300000000E+03 0. -1.
</event>
<event>
 4    1  0.6239288E+000  0.1000000E+03  0.7546771E-02  0.1280296E+00
         21   -1    0    0  503  502  0.00000000000E+00  0.00000000000E+00  0.77646611767E+03  0.77646611767E+03  0.00000000000E+00 0. -1.
         21   -1    0    0  501  503 -0.00000000000E+00 -0.00000000000E+00 -0.68876934420E+02  0.68876934420E+02  0.00000000000E+00 0. -1.
          6    1    1    2  501    0  0.91663037306E+01 -0.10961614450E+03  0.15820608391E+03  0.25895537307E+03  0.17300000000E+03 0. -1.
         -6    1    1    2    0  502 -0.91663037306E+01  0.10961614450E+03  0.54938309934E+03  0.58638767901E+03  0.17300000000E+03 0. -1.
</event>
<event>
 4    1  0.6239288E+000  0.1000000E+03  0.7546771E-02  0.1280296E+00
         21   -1    0    0  501  502  0.00000000000E+00  0.00000000000E+00  0.52044577254E+03  0.52044577254E+03  0.00000000000E+00 0.  1.
         21   -1    0    0  502  503 -0.00000000000E+00 -0.00000000000E+00 -0.73542654181E+02  0.73542654181E+02  0.00000000000E+00 0.  1.
          6    1    1    2  501    0 -0.61503253451E+01  0.73915129196E+02  0.14248454626E+03  0.23607651037E+03  0.17300000000E+03 0.  1.
         -6    1    1    2    0  503  0.61503253451E+01 -0.73915129196E+02  0.30441857209E+03  0.35791191634E+03  0.17300000000E+03 0.  1.
</event>
<event>
 4    1  0.6239288E+000  0.1000000E+03  0.7546771E-02  0.1280296E+00
         21   -1    0    0  501  502  0.00000000000E+00  0.00000000000E+00  0.22455300287E+04  0.22455300287E+04  0.00000000000E+00 0.  1.
         21   -1    0    0  502  503 -0.00000000000E+00 -0.00000000000E+00 -0.90711901298E+02  0.90711901298E+02  0.00000000000E+00 0.  1.
          6    1    1    2  501    0  0.34988925189E+03 -0.10583761591E+03  0.55884514894E+03  0.68982678262E+03  0.17300000000E+03 0.  1.
         -6    1    1    2    0  503 -0.34988925189E+03  0.10583761591E+03  0.15959729785E+04  0.16464151474E+04  0.17300000000E+03 0.  1.
</event>
<event>
 4    1  0.6239288E+000  0.1000000E+03  0.7546771E-02  0.1280296E+00
         21   -1    0    0  503  502  0.00000000000E+00  0.00000000000E+00  0.15397013352E+04  0.15397013352E+04  0.00000000000E+00 0. -1.
         21   -1    0    0  501  503 -0.00000000000E+00 -0.00000000000E+00 -0.42923580152E+02  0.42923580152E+02  0.00000000000E+00 0. -1.
          6    1    1    2  501    0  0.81762029177E+02  0.16769217694E+03  0.63509170489E+03  0.68416092350E+03  0.17300000000E+03 0.  1.
         -6    1    1    2    0  502 -0.81762029177E+02 -0.16769217694E+03  0.86168605012E+03  0.89846399182E+03  0.17300000000E+03 0.  1.
</event>
<event>
 4    1  0.6239288E+000  0.1000000E+03  0.7546771E-02  0.1280296E+00
         21   -1    0    0  503  502  0.00000000000E+00  0.00000000000E+00  0.18964955893E+03  0.18964955893E+03  0.00000000000E+00 0. -1.
         21   -1    0    0  501  503 -0.00000000000E+00 -0.00000000000E+00 -0.74982003072E+03  0.74982003072E+03  0.00000000000E+00 0. -1.
          6    1    1    2  501    0  0.70125344273E+02 -0.31939211977E+03 -0.18901464348E+03  0.41543281711E+03  0.17300000000E+03 0.  1.
         -6    1    1    2    0  502 -0.70125344273E+02  0.31939211977E+03 -0.37115582831E+03  0.52403677253E+03  0.17300000000E+03 0.  1.
</event>
<event>
 4    1  0.6239288E+000  0.1000000E+03  0.7546771E-02  0.1280296E+00
         21   -1    0    0  503  502  0.00000000000E+00  0.00000000000E+00  0.19660297715E+03  0.19660297715E+03  0.00000000000E+00 0. -1.
         21   -1    0    0  501  503 -0.00000000000E+00 -0.00000000000E+00 -0.22247233168E+03  0.22247233168E+03  0.00000000000E+00 0. -1.
          6    1    1    2  501    0 -0.13448721949E+02  0.47266731865E+02 -0.11988465069E+03  0.21613963435E+03  0.17300000000E+03 0.  1.
         -6    1    1    2    0  502  0.13448721949E+02 -0.47266731865E+02  0.94015296173E+02  0.20293567448E+03  0.17300000000E+03 0.  1.
</event>
<event>
 4    1  0.6239288E+000  0.1000000E+03  0.7546771E-02  0.1280296E+00
         21   -1    0    0  503  502  0.00000000000E+00  0.00000000000E+00  0.86635294807E+03  0.86635294807E+03  0.00000000000E+00 0. -1.
         21   -1    0    0  501  503 -0.00000000000E+00 -0.00000000000E+00 -0.44502213051E+02  0.44502213051E+02  0.00000000000E+00 0. -1.
          6    1    1    2  501    0 -0.29124128563E+02 -0.85879010793E+02  0.36440915470E+03  0.41345671042E+03  0.17300000000E+03 0. -1.
         -6    1    1    2    0  502  0.29124128563E+02  0.85879010793E+02  0.45744158032E+03  0.49739845071E+03  0.17300000000E+03 0. -1.
</event>
<event>
 4    1  0.6239288E+000  0.1000000E+03  0.7546771E-02  0.1280296E+00
         21   -1    0    0  501  502  0.00000000000E+00  0.00000000000E+00  0.44254396588E+03  0.44254396588E+03  0.00000000000E+00 0. -1.
         21   -1    0    0  502  503 -0.00000000000E+00 -0.00000000000E+00 -0.10800113700E+03  0.10800113700E+03  0.00000000000E+00 0.  1.
          6    1    1    2  501    0 -0.97399667454E+01 -0.81036254722E+02  0.30055202271E+03  0.35626150492E+03  0.17300000000E+03 0. -1.
         -6    1    1    2    0  503  0.97399667454E+01  0.81036254722E+02  0.33990806172E+02  0.19428359796E+03  0.17300000000E+03 0.  1.
</event>
<event>
 4    1  0.6239288E+000  0.1000000E+03  0.7546771E-02  0.1280296E+00
         21   -1    0    0  501  502  0.00000000000E+00  0.00000000000E+00  0.37385367328E+03  0.37385367328E+03  0.00000000000E+00 0. -1.
         21   -1    0    0  502  503 -0.00000000000E+00 -0.00000000000E+00 -0.38239310442E+03  0.38239310442E+03  0.00000000000E+00 0.  1.
          6    1    1    2  501    0  0.19217316749E+03 -0.43139126120E+02  0.26821518914E+03  0.37504652803E+03  0.17300000000E+03 0. -1.
         -6    1    1    2    0  503 -0.19217316749E+03  0.43139126120E+02 -0.27675462027E+03  0.38120024967E+03  0.17300000000E+03 0.  1.
</event>
<event>
 4    1  0.6239288E+000  0.1000000E+03  0.7546771E-02  0.1280296E+00
         21   -1    0    0  501  502  0.00000000000E+00  0.00000000000E+00  0.47193213581E+03  0.47193213581E+03  0.00000000000E+00 0. -1.
         21   -1    0    0  502  503 -0.00000000000E+00 -0.00000000000E+00 -0.10386658351E+03  0.10386658351E+03  0.00000000000E+00 0.  1.
          6    1    1    2  501    0  0.84546807899E+02  0.10720139450E+03  0.21157695628E+03  0.30550631767E+03  0.17300000000E+03 0. -1.
         -6    1    1    2    0  503 -0.84546807899E+02 -0.10720139450E+03  0.15648859602E+03  0.27029240165E+03  0.17300000000E+03 0.  1.
</event>
<event>
 4    1  0.6239288E+000  0.1000000E+03  0.7546771E-02  0.1280296E+00
         21   -1    0    0  501  502  0.00000000000E+00  0.00000000000E+00  0.44539784863E+03  0.44539784863E+03  0.00000000000E+00 0. -1.
         21   -1    0    0  502  503 -0.00000000000E+00 -0.00000000000E+00 -0.13512412653E+03  0.13512412653E+03  0.00000000000E+00 0. -1.
          6    1    1    2  501    0 -0.94442179874E+02  0.14572657482E+03  0.14333858735E+03  0.28395512070E+03  0.17300000000E+03 0. -1.
         -6    1    1    2    0  503  0.94442179874E+02 -0.14572657482E+03  0.16693513476E+03  0.29656685446E+03  0.17300000000E+03 0. -1.
</event>
<event>
 4    1  0.6239288E+000  0.1000000E+03  0.7546771E-02  0.1280296E+00
         21   -1    0    0  503  502  0.00000000000E+00  0.00000000000E+00  0.19973257723E+03  0.19973257723E+03  0.00000000000E+00 0.  1.
         21   -1    0    0  501  503 -0.00000000000E+00 -0.00000000000E+00 -0.56219416076E+03  0.56219416076E+03  0.00000000000E+00 0.  1.
          6    1    1    2  501    0  0.23494078542E+03 -0.11733004884E+03 -0.31281469795E+03  0.44356008417E+03  0.17300000000E+03 0. -1.
         -6    1    1    2    0  502 -0.23494078542E+03  0.11733004884E+03 -0.49646885572E+02  0.31836665382E+03  0.17300000000E+03 0. -1.
</event>
<event>
 4    1  0.6239288E+000  0.1000000E+03  0.7546771E-02  0.1280296E+00
         21   -1    0    0  501  502  0.00000000000E+00  0.00000000000E+00  0.82234890057E+03  0.82234890057E+03  0.00000000000E+00 0. -1.
         21   -1    0    0  502  503 -0.00000000000E+00 -0.00000000000E+00 -0.42349983464E+02  0.42349983464E+02  0.00000000000E+00 0. -1.
          6    1    1    2  501    0 -0.40316121077E+02 -0.26498348129E+02  0.50744572142E+03  0.53829147518E+03  0.17300000000E+03 0. -1.
         -6    1    1    2    0  503  0.40316121077E+02  0.26498348129E+02  0.27255319569E+03  0.32640740886E+03  0.17300000000E+03 0. -1.
</event>
<event>
 4    1  0.6239288E+000  0.1000000E+03  0.7546771E-02  0.1280296E+00
         21   -1    0    0  501  502  0.00000000000E+00  0.00000000000E+00  0.47420445779E+02  0.47420445779E+02  0.00000000000E+00 0. -1.
         21   -1    0    0  502  503 -0.00000000000E+00 -0.00000000000E+00 -0.11210982370E+04  0.11210982370E+04  0.00000000000E+00 0. -1.
          6    1    1    2  501    0 -0.13449410370E+02  0.10178904941E+03 -0.25136432367E+03  0.32195484223E+03  0.17300000000E+03 0. -1.
         -6    1    1    2    0  503  0.13449410370E+02 -0.10178904941E+03 -0.82231346754E+03  0.84656384055E+03  0.17300000000E+03 0. -1.
</event>
<event>
 4    1  0.6239288E+000  0.1000000E+03  0.7546771E-02  0.1280296E+00
         21   -1    0    0  501  502  0.00000000000E+00  0.00000000000E+00  0.19669236927E+03  0.19669236927E+03  0.00000000000E+00 0. -1.
         21   -1    0    0  502  503 -0.00000000000E+00 -0.00000000000E+00 -0.21203986088E+03  0.21203986088E+03  0.00000000000E+00 0. -1.
          6    1    1    2  501    0 -0.50841410445E+02  0.40932715259E+02 -0.94437218659E+02  0.20762399780E+03  0.17300000000E+03 0. -1.
         -6    1    1    2    0  503  0.50841410445E+02 -0.40932715259E+02  0.79089727051E+02  0.20110823235E+03  0.17300000000E+03 0. -1.
</event>
<event>
 4    1  0.6239288E+000  0.1000000E+03  0.7546771E-02  0.1280296E+00
         21   -1    0    0  501  502  0.00000000000E+00  0.00000000000E+00  0.14048421706E+04  0.14048421706E+04  0.00000000000E+00 0. -1.
         21   -1    0    0  502  503 -0.00000000000E+00 -0.00000000000E+00 -0.12110234922E+03  0.12110234922E+03  0.00000000000E+00 0.  1.
          6    1    1    2  501    0 -0.57974508332E+02 -0.36297535627E+03  0.77382162846E+03  0.87398001439E+03  0.17300000000E+03 0.  1.
         -6    1    1    2    0  503  0.57974508332E+02  0.36297535627E+03  0.50991819293E+03  0.65196450544E+03  0.17300000000E+03 0.  1.
</event>
<event>
 4    1  0.6239288E+000  0.1000000E+03  0.7546771E-02  0.1280296E+00
         21   -1    0    0  503  502  0.00000000000E+00  0.00000000000E+00  0.22185144169E+03  0.22185144169E+03  0.00000000000E+00 0.  1.
         21   -1    0    0  501  503 -0.00000000000E+00 -0.00000000000E+00 -0.18702580702E+03  0.18702580702E+03  0.00000000000E+00 0.  1.
          6    1    1    2  501    0 -0.92438026377E+02 -0.47649916027E+02 -0.10029944234E+02  0.20210121969E+03  0.17300000000E+03 0.  1.
         -6    1    1    2    0  502  0.92438026377E+02  0.47649916027E+02  0.44855578909E+02  0.20677602902E+03  0.17300000000E+03 0.  1.
</event>
<event>
 4    1  0.6239288E+000  0.1000000E+03  0.7546771E-02  0.1280296E+00
         21   -1    0    0  501  502  0.00000000000E+00  0.00000000000E+00  0.78543865935E+02  0.78543865935E+02  0.00000000000E+00 0.  1.
         21   -1    0    0  502  503 -0.00000000000E+00 -0.00000000000E+00 -0.59882474186E+03  0.59882474186E+03  0.00000000000E+00 0.  1.
          6    1    1    2  501    0 -0.28781210140E+02 -0.10319359231E+02 -0.61555518846E+02  0.18615297240E+03  0.17300000000E+03 0.  1.
         -6    1    1    2    0  503  0.28781210140E+02  0.10319359231E+02 -0.45872535708E+03  0.49121563540E+03  0.17300000000E+03 0.  1.
</event>
<event>
 4    1  0.6239288E+000  0.1000000E+03  0.7546771E-02  0.1280296E+00
         21   -1    0    0  501  502  0.00000000000E+00  0.00000000000E+00  0.72122296655E+02  0.72122296655E+02  0.00000000000E+00 0.  1.
         21   -1    0    0  502  503 -0.00000000000E+00 -0.00000000000E+00 -0.58907666551E+03  0.58907666551E+03  0.00000000000E+00 0. -1.
          6    1    1    2  501    0 -0.82334343354E+02  0.66808170325E+02 -0.31662407223E+03  0.37606127005E+03  0.17300000000E+03 0.  1.
         -6    1    1    2    0  503  0.82334343354E+02 -0.66808170325E+02 -0.20033029663E+03  0.28513769211E+03  0.17300000000E+03 0. -1.
</event>
<event>
 4    1  0.6239288E+000  0.1000000E+03  0.7546771E-02  0.1280296E+00
         21   -1    0    0  501  502  0.00000000000E+00  0.00000000000E+00  0.98360553067E+02  0.98360553067E+02  0.00000000000E+00 0.  1.
         21   -1    0    0  502  503 -0.00000000000E+00 -0.00000000000E+00 -0.44943471551E+03  0.44943471551E+03  0.00000000000E+00 0.  1.
          6    1    1    2  501    0 -0.21985445681E+02  0.37354050788E+01 -0.22613533023E+02  0.17589111674E+03  0.17300000000E+03 0.  1.
         -6    1    1    2    0  503  0.21985445681E+02 -0.37354050788E+01 -0.32846062942E+03  0.37190415183E+03  0.17300000000E+03 0.  1.
</event>
<event>
 4    1  0.6239288E+000  0.1000000E+03  0.7546771E-02  0.1280296E+00
         21   -1    0    0  501  502  0.00000000000E+00  0.00000000000E+00  0.39750256849E+03  0.39750256849E+03  0.00000000000E+00 0. -1.
         21   -1    0    0  502  503 -0.00000000000E+00 -0.00000000000E+00 -0.14500290953E+03  0.14500290953E+03  0.00000000000E+00 0. -1.
          6    1    1    2  501    0 -0.61418336316E+02  0.64174439676E+02  0.28531009158E+03  0.34528454802E+03  0.17300000000E+03 0.  1.
         -6    1    1    2    0  503  0.61418336316E+02 -0.64174439676E+02 -0.32810432617E+02  0.19722093000E+03  0.17300000000E+03 0.  1.
</event>
<event>
 4    1  0.6239288E+000  0.1000000E+03  0.7546771E-02  0.1280296E+00
         21   -1    0    0  503  502  0.00000000000E+00  0.00000000000E+00  0.46638397910E+03  0.46638397910E+03  0.00000000000E+00 0.  1.
         21   -1    0    0  501  503 -0.00000000000E+00 -0.00000000000E+00 -0.80906659542E+02  0.80906659542E+02  0.00000000000E+00 0.  1.
          6    1    1    2  501    0  0.66183732685E+02  0.42967213531E+01  0.11052669641E+03  0.21574035067E+03  0.17300000000E+03 0.  1.
         -6    1    1    2    0  502 -0.66183732685E+02 -0.42967213531E+01  0.27495062315E+03  0.33155028798E+03  0.17300000000E+03 0.  1.
</event>
<event>
 4    1  0.6239288E+000  0.1000000E+03  0.7546771E-02  0.1280296E+00
         21   -1    0    0  503  502  0.00000000000E+00  0.00000000000E+00  0.59566575095E+03  0.59566575095E+03  0.00000000000E+00 0.  1.
         21   -1    0    0  501  503 -0.00000000000E+00 -0.00000000000E+00 -0.16608352814E+03  0.16608352814E+03  0.00000000000E+00 0. -1.
          6    1    1    2  501    0  0.54031963754E+02  0.16901149986E+03 -0.19756547599E+02  0.24860342187E+03  0.17300000000E+03 0. -1.
         -6    1    1    2    0  502 -0.54031963754E+02 -0.16901149986E+03  0.44933877041E+03  0.51314585722E+03  0.17300000000E+03 0. -1.
</event>
<event>
 4    1  0.6239288E+000  0.1000000E+03  0.7546771E-02  0.1280296E+00
         21   -1    0    0  501  502  0.00000000000E+00  0.00000000000E+00  0.26184964037E+03  0.26184964037E+03  0.00000000000E+00 0.  1.
         21   -1    0    0  502  503 -0.00000000000E+00 -0.00000000000E+00 -0.14740048094E+03  0.14740048094E+03  0.00000000000E+00 0. -1.
          6    1    1    2  501    0  0.83923218183E+02 -0.31877397599E+02  0.82917256420E+02  0.21181016605E+03  0.17300000000E+03 0.  1.
         -6    1    1    2    0  503 -0.83923218183E+02  0.31877397599E+02  0.31531903003E+02  0.19743995526E+03  0.17300000000E+03 0. -1.
</event>
<event>
 4    1  0.6239288E+000  0.1000000E+03  0.7546771E-02  0.1280296E+00
         21   -1    0    0  501  502  0.00000000000E+00  0.00000000000E+00  0.30502945173E+03  0.30502945173E+03  0.00000000000E+00 0.  1.
         21   -1    0    0  502  503 -0.00000000000E+00 -0.00000000000E+00 -0.31244049742E+03  0.31244049742E+03  0.00000000000E+00 0. -1.
          6    1    1    2  501    0  0.59806103369E+02  0.72149001403E+02  0.23420298643E+03  0.30587953063E+03  0.17300000000E+03 0.  1.
         -6    1    1    2    0  503 -0.59806103369E+02 -0.72149001403E+02 -0.24161403211E+03  0.31159041853E+03  0.17300000000E+03 0. -1.
</event>
<event>
 4    1  0.6239288E+000  0.1000000E+03  0.7546771E-02  0.1280296E+00
         21   -1    0    0  501  502  0.00000000000E+00  0.00000000000E+00  0.13507240277E+03  0.13507240277E+03  0.00000000000E+00 0.  1.
         21   -1    0    0  502  503 -0.00000000000E+00 -0.00000000000E+00 -0.46805461495E+03  0.46805461495E+03  0.00000000000E+00 0. -1.
          6    1    1    2  501    0  0.15434104713E+03  0.25760562624E+02 -0.53933865406E+02  0.23942144276E+03  0.17300000000E+03 0.  1.
         -6    1    1    2    0  503 -0.15434104713E+03 -0.25760562624E+02 -0.27904834678E+03  0.36370557496E+03  0.17300000000E+03 0. -1.
</event>
<event>
 4    1  0.6239288E+000  0.1000000E+03  0.7546771E-02  0.1280296E+00
         21   -1    0    0  501  502  0.00000000000E+00  0.00000000000E+00  0.29796033609E+03  0.29796033609E+03  0.00000000000E+00 0.  1.
         21   -1    0    0  502  503 -0.00000000000E+00 -0.00000000000E+00 -0.27799165759E+03  0.27799165759E+03  0.00000000000E+00 0. -1.
          6    1    1    2  501    0 -0.18506090727E+03  0.52422830673E+02  0.13617838776E+03  0.29235123716E+03  0.17300000000E+03 0.  1.
         -6    1    1    2    0  503  0.18506090727E+03 -0.52422830673E+02 -0.11620970926E+03  0.28360075653E+03  0.17300000000E+03 0. -1.
</event>
<event>
 4    1  0.6239288E+000  0.1000000E+03  0.7546771E-02  0.1280296E+00
         21   -1    0    0  503  502  0.00000000000E+00  0.00000000000E+00  0.16187117875E+03  0.16187117875E+03  0.00000000000E+00 0. -1.
         21   -1    0    0  501  503 -0.00000000000E+00 -0.00000000000E+00 -0.24481932930E+03  0.24481932930E+03  0.00000000000E+00 0. -1.
          6    1    1    2  501    0 -0.47038145034E+02  0.80929210623E+02 -0.72759630090E+02  0.20972622152E+03  0.17300000000E+03 0. -1.
         -6    1    1    2    0  502  0.47038145034E+02 -0.80929210623E+02 -0.10188520462E+02  0.19696428653E+03  0.17300000000E+03 0. -1.
</event>
<event>
 4    1  0.6239288E+000  0.1000000E+03  0.7546771E-02  0.1280296E+00
         21   -1    0    0  501  502  0.00000000000E+00  0.00000000000E+00  0.16433394910E+04  0.16433394910E+04  0.00000000000E+00 0. -1.
         21   -1    0    0  502  503 -0.00000000000E+00 -0.00000000000E+00 -0.22301148736E+02  0.22301148736E+02  0.00000000000E+00 0. -1.
          6    1    1    2  501    0 -0.26522384554E+02  0.25840134739E+02  0.11286664652E+04  0.11424483091E+04  0.17300000000E+03 0. -1.
         -6    1    1    2    0  503  0.26522384554E+02 -0.25840134739E+02  0.49237187706E+03  0.52319233057E+03  0.17300000000E+03 0. -1.
</event>
<event>
 4    1  0.6239288E+000  0.1000000E+03  0.7546771E-02  0.1280296E+00
         21   -1    0    0  501  502  0.00000000000E+00  0.00000000000E+00  0.91231178220E+02  0.91231178220E+02  0.00000000000E+00 0. -1.
         21   -1    0    0  502  503 -0.00000000000E+00 -0.00000000000E+00 -0.42790770710E+03  0.42790770710E+03  0.00000000000E+00 0. -1.
          6    1    1    2  501    0  0.11723483874E+02  0.89336538170E+02 -0.12698037083E+03  0.23274765671E+03  0.17300000000E+03 0. -1.
         -6    1    1    2    0  503 -0.11723483874E+02 -0.89336538170E+02 -0.20969615805E+03  0.28639122861E+03  0.17300000000E+03 0. -1.
</event>
<event>
 4    1  0.6239288E+000  0.1000000E+03  0.7546771E-02  0.1280296E+00
         21   -1    0    0  503  502  0.00000000000E+00  0.00000000000E+00  0.18695502138E+02  0.18695502138E+02  0.00000000000E+00 0. -1.
         21   -1    0    0  501  503 -0.00000000000E+00 -0.00000000000E+00 -0.20481568283E+04  0.20481568283E+04  0.00000000000E+00 0.  1.
          6    1    1    2  501    0  0.97390415340E+01 -0.79987071490E+02 -0.12430783637E+04  0.12576428742E+04  0.17300000000E+03 0.  1.
         -6    1    1    2    0  502 -0.97390415340E+01  0.79987071490E+02 -0.78638296241E+03  0.80920945626E+03  0.17300000000E+03 0. -1.
</event>
<event>
 4    1  0.6239288E+000  0.1000000E+03  0.7546771E-02  0.1280296E+00
         21   -1    0    0  503  502  0.00000000000E+00  0.00000000000E+00  0.13937133853E+03  0.13937133853E+03  0.00000000000E+00 0. -1.
         21   -1    0    0  501  503 -0.00000000000E+00 -0.00000000000E+00 -0.43649060403E+03  0.43649060403E+03  0.00000000000E+00 0.  1.
          6    1    1    2  501    0  0.28611968693E+02  0.15211849407E+03 -0.24585682411E+03  0.33813201409E+03  0.17300000000E+03 0.  1.
         -6    1    1    2    0  502 -0.28611968693E+02 -0.15211849407E+03 -0.51262441388E+02  0.23772992846E+03  0.17300000000E+03 0. -1.
</event>
<event>
 4    1  0.6239288E+000  0.1000000E+03  0.7546771E-02  0.1280296E+00
         21   -1    0    0  503  502  0.00000000000E+00  0.00000000000E+00  0.30270226232E+03  0.30270226232E+03  0.00000000000E+00 0. -1.
         21   -1    0    0  501  503 -0.00000000000E+00 -0.00000000000E+00 -0.11200920954E+03  0.11200920954E+03  0.00000000000E+00 0.  1.
          6    1    1    2  501    0 -0.43704045495E+02 -0.27421656390E+02  0.13617408756E+03  0.22612910683E+03  0.17300000000E+03 0.  1.
         -6    1    1    2    0  502  0.43704045495E+02  0.27421656390E+02  0.54518965219E+02  0.18858236503E+03  0.17300000000E+03 0. -1.
</event>
<event>
 4    1  0.6239288E+000  0.1000000E+03  0.7546771E-02  0.1280296E+00
         21   -1    0    0  503  502  0.00000000000E+00  0.00000000000E+00  0.21482178645E+03  0.21482178645E+03  0.00000000000E+00 0. -1.
         21   -1    0    0  501  503 -0.00000000000E+00 -0.00000000000E+00 -0.23826764204E+03  0.23826764204E+03  0.00000000000E+00 0.  1.
          6    1    1    2  501    0 -0.11396641647E+03  0.44806568306E+02 -0.90949916002E+02  0.23064444469E+03  0.17300000000E+03 0.  1.
         -6    1    1    2    0  502  0.11396641647E+03 -0.44806568306E+02  0.67504060409E+02  0.22244498380E+03  0.17300000000E+03 0. -1.
</event>
<event>
 4    1  0.6239288E+000  0.1000000E+03  0.7546771E-02  0.1280296E+00
         21   -1    0    0  501  502  0.00000000000E+00  0.00000000000E+00  0.81530756240E+03  0.81530756240E+03  0.00000000000E+00 0.  1.
         21   -1    0    0  502  503 -0.00000000000E+00 -0.00000000000E+00 -0.52048769641E+02  0.52048769641E+02  0.00000000000E+00 0. -1.
          6    1    1    2  501    0 -0.10156884742E+03  0.43715137136E+02  0.41682605578E+03  0.46465062656E+03  0.17300000000E+03 0.  1.
         -6    1    1    2    0  503  0.10156884742E+03 -0.43715137136E+02  0.34643273698E+03  0.40270570548E+03  0.17300000000E+03 0. -1.
</event>
<event>
 4    1  0.6239288E+000  0.1000000E+03  0.7546771E-02  0.1280296E+00
         21   -1    0    0  501  502  0.00000000000E+00  0.00000000000E+00  0.51377284293E+03  0.51377284293E+03  0.00000000000E+00 0.  1.
         21   -1    0    0  502  503 -0.00000000000E+00 -0.00000000000E+00 -0.91578667271E+02  0.91578667271E+02  0.00000000000E+00 0.  1.
          6    1    1    2  501    0  0.72252860725E+02 -0.52707375182E+02  0.34437735588E+03  0.39563026492E+03  0.17300000000E+03 0.  1.
         -6    1    1    2    0  503 -0.72252860725E+02  0.52707375182E+02  0.77816819787E+02  0.20972124528E+03  0.17300000000E+03 0.  1.
</event>
<event>
 4    1  0.6239288E+000  0.1000000E+03  0.7546771E-02  0.1280296E+00
         21   -1    0    0  503  502  0.00000000000E+00  0.00000000000E+00  0.18659854243E+03  0.18659854243E+03  0.00000000000E+00 0.  1.
         21   -1    0    0  501  503 -0.00000000000E+00 -0.00000000000E+00 -0.32612823108E+03  0.32612823108E+03  0.00000000000E+00 0.  1.
          6    1    1    2  501    0  0.95381997913E+02 -0.18910618566E+02 -0.22204066138E+03  0.29780260632E+03  0.17300000000E+03 0.  1.
         -6    1    1    2    0  502 -0.95381997913E+02  0.18910618566E+02  0.82510972736E+02  0.21492416719E+03  0.17300000000E+03 0.  1.
</event>
<event>
 4    1  0.6239288E+000  0.1000000E+03  0.7546771E-02  0.1280296E+00
         21   -1    0    0  503  502  0.00000000000E+00  0.00000000000E+00  0.11106215066E+03  0.11106215066E+03  0.00000000000E+00 0.  1.
         21   -1    0    0  501  503 -0.00000000000E+00 -0.00000000000E+00 -0.10822751166E+04  0.10822751166E+04  0.00000000000E+00 0.  1.
          6    1    1    2  501    0  0.63176492527E+02 -0.14260353376E+02 -0.99052676028E+03  0.10076045304E+04  0.17300000000E+03 0.  1.
         -6    1    1    2    0  502 -0.63176492527E+02  0.14260353376E+02  0.19313794341E+02  0.18573273685E+03  0.17300000000E+03 0.  1.
</event>
<event>
 4    1  0.6239288E+000  0.1000000E+03  0.7546771E-02  0.1280296E+00
         21   -1    0    0  503  502  0.00000000000E+00  0.00000000000E+00  0.10685633325E+03  0.10685633325E+03  0.00000000000E+00 0.  1.
         21   -1    0    0  501  503 -0.00000000000E+00 -0.00000000000E+00 -0.28902887740E+03  0.28902887740E+03  0.00000000000E+00 0.  1.
          6    1    1    2  501    0  0.67849762085E+01 -0.10685513758E+02 -0.12285118400E+03  0.21255970812E+03  0.17300000000E+03 0.  1.
         -6    1    1    2    0  502 -0.67849762085E+01  0.10685513758E+02 -0.59321360154E+02  0.18332550253E+03  0.17300000000E+03 0.  1.
</event>
<event>
 4    1  0.6239288E+000  0.1000000E+03  0.7546771E-02  0.1280296E+00
         21   -1    0    0  503  502  0.00000000000E+00  0.00000000000E+00  0.28160226147E+03  0.28160226147E+03  0.00000000000E+00 0.  1.
         21   -1    0    0  501  503 -0.00000000000E+00 -0.00000000000E+00 -0.52253161746E+03  0.52253161746E+03  0.00000000000E+00 0.  1.
          6    1    1    2  501    0 -0.21640977342E+03 -0.26389136675E+03 -0.91851072976E+02  0.39349391747E+03  0.17300000000E+03 0.  1.
         -6    1    1    2    0  502  0.21640977342E+03  0.26389136675E+03 -0.14907828301E+03  0.41063996146E+03  0.17300000000E+03 0.  1.
</event>
<event>
 4    1  0.6239288E+000  0.1000000E+03  0.7546771E-02  0.1280296E+00
         21   -1    0    0  503  502  0.00000000000E+00  0.00000000000E+00  0.10042358701E+03  0.10042358701E+03  0.00000000000E+00 0.  1.
         21   -1    0    0  501  503 -0.00000000000E+00 -0.00000000000E+00 -0.39117429061E+03  0.39117429061E+03  0.00000000000E+00 0.  1.
          6    1    1    2  501    0 -0.23812715045E+02 -0.10900851679E+02 -0.26083832518E+03  0.31408837267E+03  0.17300000000E+03 0.  1.
         -6    1    1    2    0  502  0.23812715045E+02  0.10900851679E+02 -0.29912378418E+02  0.17750950495E+03  0.17300000000E+03 0.  1.
</event>
<event>
 4    1  0.6239288E+000  0.1000000E+03  0.7546771E-02  0.1280296E+00
         21   -1    0    0  501  502  0.00000000000E+00  0.00000000000E+00  0.64725803157E+03  0.64725803157E+03  0.00000000000E+00 0.  1.
         21   -1    0    0  502  503 -0.00000000000E+00 -0.00000000000E+00 -0.69617492791E+02  0.69617492791E+02  0.00000000000E+00 0.  1.
          6    1    1    2  501    0  0.89679314902E+02  0.18876282842E+01  0.14668486133E+03  0.24390857141E+03  0.17300000000E+03 0. -1.
         -6    1    1    2    0  503 -0.89679314902E+02 -0.18876282842E+01  0.43095567745E+03  0.47296695295E+03  0.17300000000E+03 0. -1.
</event>
<event>
 4    1  0.6239288E+000  0.1000000E+03  0.7546771E-02  0.1280296E+00
         21   -1    0    0  503  502  0.00000000000E+00  0.00000000000E+00  0.54368345461E+02  0.54368345461E+02  0.00000000000E+00 0. -1.
         21   -1    0    0  501  503 -0.00000000000E+00 -0.00000000000E+00 -0.10675062583E+04  0.10675062583E+04  0.00000000000E+00 0. -1.
          6    1    1    2  501    0 -0.73889547312E+02 -0.14620816729E+03 -0.58964575306E+03  0.63596195444E+03  0.17300000000E+03 0. -1.
         -6    1    1    2    0  502  0.73889547312E+02  0.14620816729E+03 -0.42349215979E+03  0.48591264934E+03  0.17300000000E+03 0. -1.
</event>
