<event>
 4    1  0.5712137E+000  0.1000000E+03  0.7546771E-02  0.1280296E+00
         21   -1    0    0  503  502  0.00000000000E+00  0.00000000000E+00  0.55388877792E+02  0.55388877792E+02  0.00000000000E+00 0. -1.
         21   -1    0    0  501  503 -0.00000000000E+00 -0.00000000000E+00 -0.88875331816E+03  0.88875331816E+03  0.00000000000E+00 0.  1.
          6    1    1    2  501    0 -0.11916990370E+03  0.52575952071E+02 -0.51943712980E+03  0.56276960516E+03  0.17300000000E+03 0. -1.
         -6    1    1    2    0  502  0.11916990370E+03 -0.52575952071E+02 -0.31392731057E+03  0.38137259079E+03  0.17300000000E+03 0.  1.
</event>
<event>
 4    1  0.5712137E+000  0.1000000E+03  0.7546771E-02  0.1280296E+00
         21   -1    0    0  501  502  0.00000000000E+00  0.00000000000E+00  0.42710800027E+03  0.42710800027E+03  0.00000000000E+00 0.  1.
         21   -1    0    0  502  503 -0.00000000000E+00 -0.00000000000E+00 -0.31200789189E+03  0.31200789189E+03  0.00000000000E+00 0.  1.
          6    1    1    2  501    0  0.21606055537E+03 -0.14806228719E+03  0.24620466594E+03  0.39893651376E+03  0.17300000000E+03 0.  1.
         -6    1    1    2    0  503 -0.21606055537E+03  0.14806228719E+03 -0.13110455756E+03  0.34017937840E+03  0.17300000000E+03 0.  1.
</event>
<event>
 4    1  0.5712137E+000  0.1000000E+03  0.7546771E-02  0.1280296E+00
         21   -1    0    0  501  502  0.00000000000E+00  0.00000000000E+00  0.10684152542E+04  0.10684152542E+04  0.00000000000E+00 0. -1.
         21   -1    0    0  502  503 -0.00000000000E+00 -0.00000000000E+00 -0.10544440916E+03  0.10544440916E+03  0.00000000000E+00 0. -1.
          6    1    1    2  501    0 -0.15358892575E+03  0.12968268274E+03  0.84122546758E+03  0.88204106686E+03  0.17300000000E+03 0. -1.
         -6    1    1    2    0  503  0.15358892575E+03 -0.12968268274E+03  0.12174537742E+03  0.29181859646E+03  0.17300000000E+03 0. -1.
</event>
<event>
 4    1  0.5712137E+000  0.1000000E+03  0.7546771E-02  0.1280296E+00
         21   -1    0    0  503  502  0.00000000000E+00  0.00000000000E+00  0.59554873746E+03  0.59554873746E+03  0.00000000000E+00 0. -1.
         21   -1    0    0  501  503 -0.00000000000E+00 -0.00000000000E+00 -0.11517172546E+03  0.11517172546E+03  0.00000000000E+00 0.  1.
          6    1    1    2  501    0 -0.48485668071E+02  0.10202758842E+03  0.21817713174E+02  0.20776308963E+03  0.17300000000E+03 0.  1.
         -6    1    1    2    0  502  0.48485668071E+02 -0.10202758842E+03  0.45855929882E+03  0.50295737329E+03  0.17300000000E+03 0. -1.
</event>
<event>
 4    1  0.5712137E+000  0.1000000E+03  0.7546771E-02  0.1280296E+00
         21   -1    0    0  503  502  0.00000000000E+00  0.00000000000E+00  0.10289467461E+04  0.10289467461E+04  0.00000000000E+00 0. -1.
         21   -1    0    0  501  503 -0.00000000000E+00 -0.00000000000E+00 -0.11925505525E+03  0.11925505525E+03  0.00000000000E+00 0.  1.
          6    1    1    2  501    0 -0.26342095848E+03  0.22747775104E+02  0.20699704164E+03  0.37773646619E+03  0.17300000000E+03 0.  1.
         -6    1    1    2    0  502  0.26342095848E+03 -0.22747775104E+02  0.70269464919E+03  0.77046533513E+03  0.17300000000E+03 0. -1.
</event>
<event>
 4    1  0.5712137E+000  0.1000000E+03  0.7546771E-02  0.1280296E+00
         21   -1    0    0  503  502  0.00000000000E+00  0.00000000000E+00  0.18059100426E+03  0.18059100426E+03  0.00000000000E+00 0. -1.
         21   -1    0    0  501  503 -0.00000000000E+00 -0.00000000000E+00 -0.76673535892E+03  0.76673535892E+03  0.00000000000E+00 0.  1.
          6    1    1    2  501    0 -0.12270705479E+03 -0.28162437332E+03 -0.44458201419E+03  0.56740768085E+03  0.17300000000E+03 0.  1.
         -6    1    1    2    0  502  0.12270705479E+03  0.28162437332E+03 -0.14156234047E+03  0.37991868233E+03  0.17300000000E+03 0. -1.
</event>
<event>
 4    1  0.5712137E+000  0.1000000E+03  0.7546771E-02  0.1280296E+00
         21   -1    0    0  501  502  0.00000000000E+00  0.00000000000E+00  0.81711788308E+03  0.81711788308E+03  0.00000000000E+00 0. -1.
         21   -1    0    0  502  503 -0.00000000000E+00 -0.00000000000E+00 -0.27067860619E+03  0.27067860619E+03  0.00000000000E+00 0.  1.
          6    1    1    2  501    0 -0.28691591941E+03 -0.79043393610E+00  0.65491249490E+03  0.73563628620E+03  0.17300000000E+03 0.  1.
         -6    1    1    2    0  503  0.28691591941E+03  0.79043393610E+00 -0.10847321801E+03  0.35216020307E+03  0.17300000000E+03 0. -1.
</event>
<event>
 4    1  0.5712137E+000  0.1000000E+03  0.7546771E-02  0.1280296E+00
         21   -1    0    0  501  502  0.00000000000E+00  0.00000000000E+00  0.15785014144E+03  0.15785014144E+03  0.00000000000E+00 0. -1.
         21   -1    0    0  502  503 -0.00000000000E+00 -0.00000000000E+00 -0.62151529153E+03  0.62151529153E+03  0.00000000000E+00 0.  1.
          6    1    1    2  501    0  0.25074689397E+03  0.75547079495E+00 -0.14123609563E+03  0.33578446998E+03  0.17300000000E+03 0.  1.
         -6    1    1    2    0  503 -0.25074689397E+03 -0.75547079495E+00 -0.32242905445E+03  0.44358096299E+03  0.17300000000E+03 0. -1.
</event>
<event>
 4    1  0.5712137E+000  0.1000000E+03  0.7546771E-02  0.1280296E+00
         21   -1    0    0  503  502  0.00000000000E+00  0.00000000000E+00  0.56049850281E+03  0.56049850281E+03  0.00000000000E+00 0. -1.
         21   -1    0    0  501  503 -0.00000000000E+00 -0.00000000000E+00 -0.19714020844E+03  0.19714020844E+03  0.00000000000E+00 0. -1.
          6    1    1    2  501    0  0.10939220678E+03 -0.63402447010E+02 -0.10792888696E+03  0.23992534221E+03  0.17300000000E+03 0. -1.
         -6    1    1    2    0  502 -0.10939220678E+03  0.63402447010E+02  0.47128718134E+03  0.51771336904E+03  0.17300000000E+03 0. -1.
</event>
<event>
 4    1  0.5712137E+000  0.1000000E+03  0.7546771E-02  0.1280296E+00
         21   -1    0    0  503  502  0.00000000000E+00  0.00000000000E+00  0.33544783032E+03  0.33544783032E+03  0.00000000000E+00 0. -1.
         21   -1    0    0  501  503 -0.00000000000E+00 -0.00000000000E+00 -0.13925354176E+03  0.13925354176E+03  0.00000000000E+00 0. -1.
          6    1    1    2  501    0  0.48031204505E+02  0.94320424569E+02  0.16063805001E+02  0.20344627037E+03  0.17300000000E+03 0. -1.
         -6    1    1    2    0  502 -0.48031204505E+02 -0.94320424569E+02  0.18013048355E+03  0.27125510171E+03  0.17300000000E+03 0. -1.
</event>
<event>
 4    1  0.5712137E+000  0.1000000E+03  0.7546771E-02  0.1280296E+00
         21   -1    0    0  501  502  0.00000000000E+00  0.00000000000E+00  0.45925714517E+03  0.45925714517E+03  0.00000000000E+00 0.  1.
         21   -1    0    0  502  503 -0.00000000000E+00 -0.00000000000E+00 -0.11786500402E+03  0.11786500402E+03  0.00000000000E+00 0.  1.
          6    1    1    2  501    0 -0.41135563765E+02  0.69191877941E+01  0.35657712844E+03  0.39851757589E+03  0.17300000000E+03 0.  1.
         -6    1    1    2    0  503  0.41135563765E+02 -0.69191877941E+01 -0.15184987293E+02  0.17860457330E+03  0.17300000000E+03 0.  1.
</event>
<event>
 4    1  0.5712137E+000  0.1000000E+03  0.7546771E-02  0.1280296E+00
         21   -1    0    0  501  502  0.00000000000E+00  0.00000000000E+00  0.48374174640E+02  0.48374174640E+02  0.00000000000E+00 0.  1.
         21   -1    0    0  502  503 -0.00000000000E+00 -0.00000000000E+00 -0.23943139621E+04  0.23943139621E+04  0.00000000000E+00 0.  1.
          6    1    1    2  501    0  0.14360058384E+02  0.81579844728E+02 -0.16408063605E+03  0.25241421804E+03  0.17300000000E+03 0.  1.
         -6    1    1    2    0  503 -0.14360058384E+02 -0.81579844728E+02 -0.21818591514E+04  0.21902739187E+04  0.17300000000E+03 0.  1.
</event>
<event>
 4    1  0.5712137E+000  0.1000000E+03  0.7546771E-02  0.1280296E+00
         21   -1    0    0  501  502  0.00000000000E+00  0.00000000000E+00  0.42133055088E+03  0.42133055088E+03  0.00000000000E+00 0.  1.
         21   -1    0    0  502  503 -0.00000000000E+00 -0.00000000000E+00 -0.21260542764E+03  0.21260542764E+03  0.00000000000E+00 0.  1.
          6    1    1    2  501    0 -0.18766685538E+03  0.13246521406E+03  0.19222089021E+03  0.34589557988E+03  0.17300000000E+03 0.  1.
         -6    1    1    2    0  503  0.18766685538E+03 -0.13246521406E+03  0.16504233032E+02  0.28804039865E+03  0.17300000000E+03 0.  1.
</event>
<event>
 4    1  0.5712137E+000  0.1000000E+03  0.7546771E-02  0.1280296E+00
         21   -1    0    0  501  502  0.00000000000E+00  0.00000000000E+00  0.32844609626E+03  0.32844609626E+03  0.00000000000E+00 0.  1.
         21   -1    0    0  502  503 -0.00000000000E+00 -0.00000000000E+00 -0.22236034539E+03  0.22236034539E+03  0.00000000000E+00 0.  1.
          6    1    1    2  501    0  0.71274899425E+02 -0.19311077611E+03  0.80624089087E+02  0.28071538412E+03  0.17300000000E+03 0.  1.
         -6    1    1    2    0  503 -0.71274899425E+02  0.19311077611E+03  0.25461661779E+02  0.27009105753E+03  0.17300000000E+03 0.  1.
</event>
<event>
 4    1  0.5712137E+000  0.1000000E+03  0.7546771E-02  0.1280296E+00
         21   -1    0    0  503  502  0.00000000000E+00  0.00000000000E+00  0.57841488406E+03  0.57841488406E+03  0.00000000000E+00 0. -1.
         21   -1    0    0  501  503 -0.00000000000E+00 -0.00000000000E+00 -0.78701334404E+02  0.78701334404E+02  0.00000000000E+00 0.  1.
          6    1    1    2  501    0  0.86274318345E+02  0.41392420649E+02  0.12631210029E+03  0.23460677137E+03  0.17300000000E+03 0.  1.
         -6    1    1    2    0  502 -0.86274318345E+02 -0.41392420649E+02  0.37340144937E+03  0.42250944709E+03  0.17300000000E+03 0.  1.
</event>
<event>
 4    1  0.5712137E+000  0.1000000E+03  0.7546771E-02  0.1280296E+00
         21   -1    0    0  503  502  0.00000000000E+00  0.00000000000E+00  0.18209007726E+03  0.18209007726E+03  0.00000000000E+00 0. -1.
         21   -1    0    0  501  503 -0.00000000000E+00 -0.00000000000E+00 -0.36933743274E+03  0.36933743274E+03  0.00000000000E+00 0.  1.
          6    1    1    2  501    0  0.11271939446E+03  0.60477112235E+02 -0.24754714925E+03  0.32798130144E+03  0.17300000000E+03 0.  1.
         -6    1    1    2    0  502 -0.11271939446E+03 -0.60477112235E+02  0.60299793770E+02  0.22344620856E+03  0.17300000000E+03 0.  1.
</event>
<event>
 4    1  0.5712137E+000  0.1000000E+03  0.7546771E-02  0.1280296E+00
         21   -1    0    0  503  502  0.00000000000E+00  0.00000000000E+00  0.12926605617E+04  0.12926605617E+04  0.00000000000E+00 0. -1.
         21   -1    0    0  501  503 -0.00000000000E+00 -0.00000000000E+00 -0.79134413313E+02  0.79134413313E+02  0.00000000000E+00 0.  1.
          6    1    1    2  501    0  0.14984265073E+03  0.20764417886E+03  0.42997161552E+03  0.52950308322E+03  0.17300000000E+03 0.  1.
         -6    1    1    2    0  502 -0.14984265073E+03 -0.20764417886E+03  0.78355453287E+03  0.84229189179E+03  0.17300000000E+03 0.  1.
</event>
<event>
 4    1  0.5712137E+000  0.1000000E+03  0.7546771E-02  0.1280296E+00
         21   -1    0    0  503  502  0.00000000000E+00  0.00000000000E+00  0.13993006359E+03  0.13993006359E+03  0.00000000000E+00 0. -1.
         21   -1    0    0  501  503 -0.00000000000E+00 -0.00000000000E+00 -0.49391294322E+03  0.49391294322E+03  0.00000000000E+00 0.  1.
          6    1    1    2  501    0 -0.17227188460E+02 -0.27405828349E+02 -0.41241011721E+03  0.44839598596E+03  0.17300000000E+03 0.  1.
         -6    1    1    2    0  502  0.17227188460E+02  0.27405828349E+02  0.58427237584E+02  0.18544702085E+03  0.17300000000E+03 0.  1.
</event>
<event>
 4    1  0.5712137E+000  0.1000000E+03  0.7546771E-02  0.1280296E+00
         21   -1    0    0  501  502  0.00000000000E+00  0.00000000000E+00  0.54970276634E+03  0.54970276634E+03  0.00000000000E+00 0. -1.
         21   -1    0    0  502  503 -0.00000000000E+00 -0.00000000000E+00 -0.79201166336E+02  0.79201166336E+02  0.00000000000E+00 0.  1.
          6    1    1    2  501    0  0.76110805743E+02 -0.82336825944E+02  0.28375528803E+03  0.35073960590E+03  0.17300000000E+03 0.  1.
         -6    1    1    2    0  503 -0.76110805743E+02  0.82336825944E+02  0.18674631197E+03  0.27816432678E+03  0.17300000000E+03 0. -1.
</event>
<event>
 4    1  0.5712137E+000  0.1000000E+03  0.7546771E-02  0.1280296E+00
         21   -1    0    0  501  502  0.00000000000E+00  0.00000000000E+00  0.10144894811E+04  0.10144894811E+04  0.00000000000E+00 0. -1.
         21   -1    0    0  502  503 -0.00000000000E+00 -0.00000000000E+00 -0.31814564953E+02  0.31814564953E+02  0.00000000000E+00 0.  1.
          6    1    1    2  501    0 -0.34334762225E+02 -0.33018476783E+01  0.59037809157E+03  0.61616967558E+03  0.17300000000E+03 0.  1.
         -6    1    1    2    0  503  0.34334762225E+02  0.33018476783E+01  0.39229682463E+03  0.43013437053E+03  0.17300000000E+03 0. -1.
</event>
<event>
 4    1  0.5712137E+000  0.1000000E+03  0.7546771E-02  0.1280296E+00
         21   -1    0    0  503  502  0.00000000000E+00  0.00000000000E+00  0.23848022682E+03  0.23848022682E+03  0.00000000000E+00 0. -1.
         21   -1    0    0  501  503 -0.00000000000E+00 -0.00000000000E+00 -0.15511064649E+03  0.15511064649E+03  0.00000000000E+00 0.  1.
          6    1    1    2  501    0  0.10073089068E+01 -0.54153791176E+02  0.10742741642E+03  0.21072089970E+03  0.17300000000E+03 0.  1.
         -6    1    1    2    0  502 -0.10073089068E+01  0.54153791176E+02 -0.24057836097E+02  0.18286997361E+03  0.17300000000E+03 0. -1.
</event>
<event>
 4    1  0.5712137E+000  0.1000000E+03  0.7546771E-02  0.1280296E+00
         21   -1    0    0  503  502  0.00000000000E+00  0.00000000000E+00  0.19061673532E+02  0.19061673532E+02  0.00000000000E+00 0. -1.
         21   -1    0    0  501  503 -0.00000000000E+00 -0.00000000000E+00 -0.24135139393E+04  0.24135139393E+04  0.00000000000E+00 0.  1.
          6    1    1    2  501    0 -0.11193350202E+03 -0.90417941706E+01 -0.86339282484E+03  0.88768633701E+03  0.17300000000E+03 0.  1.
         -6    1    1    2    0  502  0.11193350202E+03  0.90417941706E+01 -0.15310594410E+04  0.15448892759E+04  0.17300000000E+03 0. -1.
</event>
<event>
 4    1  0.5712137E+000  0.1000000E+03  0.7546771E-02  0.1280296E+00
         21   -1    0    0  501  502  0.00000000000E+00  0.00000000000E+00  0.89818017072E+03  0.89818017072E+03  0.00000000000E+00 0. -1.
         21   -1    0    0  502  503 -0.00000000000E+00 -0.00000000000E+00 -0.24412962095E+03  0.24412962095E+03  0.00000000000E+00 0.  1.
          6    1    1    2  501    0 -0.38606656561E+02 -0.35519086601E+03  0.62997992572E+03  0.74461717146E+03  0.17300000000E+03 0. -1.
         -6    1    1    2    0  503  0.38606656561E+02  0.35519086601E+03  0.24070624057E+02  0.39769262021E+03  0.17300000000E+03 0.  1.
</event>
<event>
 4    1  0.5712137E+000  0.1000000E+03  0.7546771E-02  0.1280296E+00
         21   -1    0    0  501  502  0.00000000000E+00  0.00000000000E+00  0.21763526822E+04  0.21763526822E+04  0.00000000000E+00 0. -1.
         21   -1    0    0  502  503 -0.00000000000E+00 -0.00000000000E+00 -0.90013377340E+02  0.90013377340E+02  0.00000000000E+00 0.  1.
          6    1    1    2  501    0  0.13342887513E+03 -0.24423184174E+03  0.18048997606E+04  0.18344057901E+04  0.17300000000E+03 0. -1.
         -6    1    1    2    0  503 -0.13342887513E+03  0.24423184174E+03  0.28143954428E+03  0.43196026938E+03  0.17300000000E+03 0.  1.
</event>
<event>
 4    1  0.5712137E+000  0.1000000E+03  0.7546771E-02  0.1280296E+00
         21   -1    0    0  501  502  0.00000000000E+00  0.00000000000E+00  0.72379802591E+02  0.72379802591E+02  0.00000000000E+00 0. -1.
         21   -1    0    0  502  503 -0.00000000000E+00 -0.00000000000E+00 -0.98207625746E+03  0.98207625746E+03  0.00000000000E+00 0. -1.
          6    1    1    2  501    0 -0.33602716289E+02 -0.17447206141E+02 -0.60734583649E+02  0.18721975642E+03  0.17300000000E+03 0.  1.
         -6    1    1    2    0  503  0.33602716289E+02  0.17447206141E+02 -0.84896187122E+03  0.86723630363E+03  0.17300000000E+03 0.  1.
</event>
<event>
 4    1  0.5712137E+000  0.1000000E+03  0.7546771E-02  0.1280296E+00
         21   -1    0    0  501  502  0.00000000000E+00  0.00000000000E+00  0.31251475066E+03  0.31251475066E+03  0.00000000000E+00 0. -1.
         21   -1    0    0  502  503 -0.00000000000E+00 -0.00000000000E+00 -0.15529116451E+03  0.15529116451E+03  0.00000000000E+00 0. -1.
          6    1    1    2  501    0  0.60981048733E+02  0.92259645098E+01  0.20777183947E+03  0.27731199758E+03  0.17300000000E+03 0.  1.
         -6    1    1    2    0  503 -0.60981048733E+02 -0.92259645098E+01 -0.50548253319E+02  0.19049391759E+03  0.17300000000E+03 0.  1.
</event>
<event>
 4    1  0.5712137E+000  0.1000000E+03  0.7546771E-02  0.1280296E+00
         21   -1    0    0  503  502  0.00000000000E+00  0.00000000000E+00  0.26267744067E+03  0.26267744067E+03  0.00000000000E+00 0.  1.
         21   -1    0    0  501  503 -0.00000000000E+00 -0.00000000000E+00 -0.39043089501E+03  0.39043089501E+03  0.00000000000E+00 0.  1.
          6    1    1    2  501    0  0.11670340407E+03  0.23247462333E+03  0.79686318169E+01  0.31250061457E+03  0.17300000000E+03 0.  1.
         -6    1    1    2    0  502 -0.11670340407E+03 -0.23247462333E+03 -0.13572208615E+03  0.34060772111E+03  0.17300000000E+03 0.  1.
</event>
<event>
 4    1  0.5712137E+000  0.1000000E+03  0.7546771E-02  0.1280296E+00
         21   -1    0    0  503  502  0.00000000000E+00  0.00000000000E+00  0.24714907373E+04  0.24714907373E+04  0.00000000000E+00 0.  1.
         21   -1    0    0  501  503 -0.00000000000E+00 -0.00000000000E+00 -0.21762401996E+02  0.21762401996E+02  0.00000000000E+00 0.  1.
          6    1    1    2  501    0  0.50447421833E+02 -0.14208811925E+03  0.14049650280E+04  0.14235834032E+04  0.17300000000E+03 0.  1.
         -6    1    1    2    0  502 -0.50447421833E+02  0.14208811925E+03  0.10447633073E+04  0.10696697361E+04  0.17300000000E+03 0.  1.
</event>
<event>
 4    1  0.5712137E+000  0.1000000E+03  0.7546771E-02  0.1280296E+00
         21   -1    0    0  501  502  0.00000000000E+00  0.00000000000E+00  0.53881829245E+02  0.53881829245E+02  0.00000000000E+00 0. -1.
         21   -1    0    0  502  503 -0.00000000000E+00 -0.00000000000E+00 -0.66256896198E+03  0.66256896198E+03  0.00000000000E+00 0. -1.
          6    1    1    2  501    0  0.47794281348E+02 -0.36977355030E+02 -0.21705284458E+03  0.28406435091E+03  0.17300000000E+03 0. -1.
         -6    1    1    2    0  503 -0.47794281348E+02  0.36977355030E+02 -0.39163428815E+03  0.43238644032E+03  0.17300000000E+03 0. -1.
</event>
<event>
 4    1  0.5712137E+000  0.1000000E+03  0.7546771E-02  0.1280296E+00
         21   -1    0    0  501  502  0.00000000000E+00  0.00000000000E+00  0.47435517609E+02  0.47435517609E+02  0.00000000000E+00 0. -1.
         21   -1    0    0  502  503 -0.00000000000E+00 -0.00000000000E+00 -0.86762987629E+03  0.86762987629E+03  0.00000000000E+00 0. -1.
          6    1    1    2  501    0  0.95812001497E+02 -0.30025210909E+02 -0.33374893745E+03  0.38909999508E+03  0.17300000000E+03 0. -1.
         -6    1    1    2    0  503 -0.95812001497E+02  0.30025210909E+02 -0.48644542123E+03  0.52596539882E+03  0.17300000000E+03 0. -1.
</event>
<event>
 4    1  0.5712137E+000  0.1000000E+03  0.7546771E-02  0.1280296E+00
         21   -1    0    0  503  502  0.00000000000E+00  0.00000000000E+00  0.94434359458E+03  0.94434359458E+03  0.00000000000E+00 0. -1.
         21   -1    0    0  501  503 -0.00000000000E+00 -0.00000000000E+00 -0.39555215874E+02  0.39555215874E+02  0.00000000000E+00 0. -1.
          6    1    1    2  501    0  0.62471085358E+02  0.57473963945E+02  0.49004711618E+03  0.52657484664E+03  0.17300000000E+03 0. -1.
         -6    1    1    2    0  502 -0.62471085358E+02 -0.57473963945E+02  0.41474126253E+03  0.45732396382E+03  0.17300000000E+03 0. -1.
</event>
<event>
 4    1  0.5712137E+000  0.1000000E+03  0.7546771E-02  0.1280296E+00
         21   -1    0    0  503  502  0.00000000000E+00  0.00000000000E+00  0.15872169106E+04  0.15872169106E+04  0.00000000000E+00 0.  1.
         21   -1    0    0  501  503 -0.00000000000E+00 -0.00000000000E+00 -0.98207979118E+02  0.98207979118E+02  0.00000000000E+00 0.  1.
          6    1    1    2  501    0  0.56671072200E+02  0.13450732559E+02 -0.27265182434E+01  0.18256222647E+03  0.17300000000E+03 0.  1.
         -6    1    1    2    0  502 -0.56671072200E+02 -0.13450732559E+02  0.14917354498E+04  0.15028626633E+04  0.17300000000E+03 0.  1.
</event>
<event>
 4    1  0.5712137E+000  0.1000000E+03  0.7546771E-02  0.1280296E+00
         21   -1    0    0  503  502  0.00000000000E+00  0.00000000000E+00  0.19172558215E+03  0.19172558215E+03  0.00000000000E+00 0.  1.
         21   -1    0    0  501  503 -0.00000000000E+00 -0.00000000000E+00 -0.49416797416E+03  0.49416797416E+03  0.00000000000E+00 0.  1.
          6    1    1    2  501    0 -0.83879627271E+00  0.13651719542E+03 -0.39064478097E+03  0.44851978008E+03  0.17300000000E+03 0.  1.
         -6    1    1    2    0  502  0.83879627271E+00 -0.13651719542E+03  0.88202388965E+02  0.23737377623E+03  0.17300000000E+03 0.  1.
</event>
<event>
 4    1  0.5712137E+000  0.1000000E+03  0.7546771E-02  0.1280296E+00
         21   -1    0    0  503  502  0.00000000000E+00  0.00000000000E+00  0.18493822332E+03  0.18493822332E+03  0.00000000000E+00 0. -1.
         21   -1    0    0  501  503 -0.00000000000E+00 -0.00000000000E+00 -0.18265295206E+03  0.18265295206E+03  0.00000000000E+00 0.  1.
          6    1    1    2  501    0  0.44293939271E+02 -0.26585300494E+02 -0.33235073113E+02  0.18358186551E+03  0.17300000000E+03 0.  1.
         -6    1    1    2    0  502 -0.44293939271E+02  0.26585300494E+02  0.35520344373E+02  0.18400930988E+03  0.17300000000E+03 0. -1.
</event>
<event>
 4    1  0.5712137E+000  0.1000000E+03  0.7546771E-02  0.1280296E+00
         21   -1    0    0  501  502  0.00000000000E+00  0.00000000000E+00  0.21229290693E+03  0.21229290693E+03  0.00000000000E+00 0. -1.
         21   -1    0    0  502  503 -0.00000000000E+00 -0.00000000000E+00 -0.36491673411E+03  0.36491673411E+03  0.00000000000E+00 0. -1.
          6    1    1    2  501    0  0.10563091147E+03  0.18915565586E+03 -0.50860539888E+02  0.28187505410E+03  0.17300000000E+03 0. -1.
         -6    1    1    2    0  503 -0.10563091147E+03 -0.18915565586E+03 -0.10176328729E+03  0.29533458694E+03  0.17300000000E+03 0. -1.
</event>
<event>
 4    1  0.5712137E+000  0.1000000E+03  0.7546771E-02  0.1280296E+00
         21   -1    0    0  503  502  0.00000000000E+00  0.00000000000E+00  0.91080689908E+02  0.91080689908E+02  0.00000000000E+00 0. -1.
         21   -1    0    0  501  503 -0.00000000000E+00 -0.00000000000E+00 -0.72912041254E+03  0.72912041254E+03  0.00000000000E+00 0.  1.
          6    1    1    2  501    0  0.16695871017E+03 -0.45086608598E+02 -0.44802855526E+03  0.51045724552E+03  0.17300000000E+03 0.  1.
         -6    1    1    2    0  502 -0.16695871017E+03  0.45086608598E+02 -0.19001116738E+03  0.30974385693E+03  0.17300000000E+03 0. -1.
</event>
<event>
 4    1  0.5712137E+000  0.1000000E+03  0.7546771E-02  0.1280296E+00
         21   -1    0    0  503  502  0.00000000000E+00  0.00000000000E+00  0.93694797839E+03  0.93694797839E+03  0.00000000000E+00 0. -1.
         21   -1    0    0  501  503 -0.00000000000E+00 -0.00000000000E+00 -0.52399263532E+02  0.52399263532E+02  0.00000000000E+00 0.  1.
          6    1    1    2  501    0 -0.89753383468E+02  0.78417566392E+02  0.28502078548E+03  0.35407743887E+03  0.17300000000E+03 0.  1.
         -6    1    1    2    0  502  0.89753383468E+02 -0.78417566392E+02  0.59952792938E+03  0.63526980305E+03  0.17300000000E+03 0. -1.
</event>
<event>
 4    1  0.5712137E+000  0.1000000E+03  0.7546771E-02  0.1280296E+00
         21   -1    0    0  503  502  0.00000000000E+00  0.00000000000E+00  0.28058825757E+03  0.28058825757E+03  0.00000000000E+00 0.  1.
         21   -1    0    0  501  503 -0.00000000000E+00 -0.00000000000E+00 -0.34027066416E+03  0.34027066416E+03  0.00000000000E+00 0.  1.
          6    1    1    2  501    0  0.54276625363E+02 -0.21955351855E+03 -0.15038802136E+03  0.32201747862E+03  0.17300000000E+03 0.  1.
         -6    1    1    2    0  502 -0.54276625363E+02  0.21955351855E+03  0.90705614761E+02  0.29884144311E+03  0.17300000000E+03 0.  1.
</event>
<event>
 4    1  0.5712137E+000  0.1000000E+03  0.7546771E-02  0.1280296E+00
         21   -1    0    0  501  502  0.00000000000E+00  0.00000000000E+00  0.72711465017E+03  0.72711465017E+03  0.00000000000E+00 0. -1.
         21   -1    0    0  502  503 -0.00000000000E+00 -0.00000000000E+00 -0.16606540425E+03  0.16606540425E+03  0.00000000000E+00 0. -1.
          6    1    1    2  501    0 -0.21300646069E+03  0.15096865951E+02  0.55382037896E+03  0.61826020397E+03  0.17300000000E+03 0. -1.
         -6    1    1    2    0  503  0.21300646069E+03 -0.15096865951E+02  0.72288669533E+01  0.27491985045E+03  0.17300000000E+03 0. -1.
</event>
<event>
 4    1  0.5712137E+000  0.1000000E+03  0.7546771E-02  0.1280296E+00
         21   -1    0    0  503  502  0.00000000000E+00  0.00000000000E+00  0.27124469746E+03  0.27124469746E+03  0.00000000000E+00 0. -1.
         21   -1    0    0  501  503 -0.00000000000E+00 -0.00000000000E+00 -0.35219385019E+03  0.35219385019E+03  0.00000000000E+00 0.  1.
          6    1    1    2  501    0 -0.11483917520E+03 -0.91698523896E+02 -0.25203939329E+03  0.33918949160E+03  0.17300000000E+03 0. -1.
         -6    1    1    2    0  502  0.11483917520E+03  0.91698523896E+02  0.17109024056E+03  0.28424905604E+03  0.17300000000E+03 0.  1.
</event>
<event>
 4    1  0.5712137E+000  0.1000000E+03  0.7546771E-02  0.1280296E+00
         21   -1    0    0  503  502  0.00000000000E+00  0.00000000000E+00  0.59145336457E+03  0.59145336457E+03  0.00000000000E+00 0. -1.
         21   -1    0    0  501  503 -0.00000000000E+00 -0.00000000000E+00 -0.70118049586E+02  0.70118049586E+02  0.00000000000E+00 0. -1.
          6    1    1    2  501    0  0.24431649554E+02  0.10073990389E+03  0.21480764880E+03  0.29464683897E+03  0.17300000000E+03 0. -1.
         -6    1    1    2    0  502 -0.24431649554E+02 -0.10073990389E+03  0.30652766619E+03  0.36692457519E+03  0.17300000000E+03 0. -1.
</event>
<event>
 4    1  0.5712137E+000  0.1000000E+03  0.7546771E-02  0.1280296E+00
         21   -1    0    0  503  502  0.00000000000E+00  0.00000000000E+00  0.40820955422E+03  0.40820955422E+03  0.00000000000E+00 0. -1.
         21   -1    0    0  501  503 -0.00000000000E+00 -0.00000000000E+00 -0.29419439619E+03  0.29419439619E+03  0.00000000000E+00 0. -1.
          6    1    1    2  501    0 -0.19988712680E+03  0.15643383334E+03 -0.10557792380E+03  0.32481087677E+03  0.17300000000E+03 0. -1.
         -6    1    1    2    0  502  0.19988712680E+03 -0.15643383334E+03  0.21959308183E+03  0.37759307364E+03  0.17300000000E+03 0. -1.
</event>
<event>
 4    1  0.5712137E+000  0.1000000E+03  0.7546771E-02  0.1280296E+00
         21   -1    0    0  503  502  0.00000000000E+00  0.00000000000E+00  0.14221640999E+04  0.14221640999E+04  0.00000000000E+00 0. -1.
         21   -1    0    0  501  503 -0.00000000000E+00 -0.00000000000E+00 -0.85689451808E+02  0.85689451808E+02  0.00000000000E+00 0.  1.
          6    1    1    2  501    0 -0.18889725789E+03  0.16455613353E+03  0.29935075840E+03  0.42696694447E+03  0.17300000000E+03 0.  1.
         -6    1    1    2    0  502  0.18889725789E+03 -0.16455613353E+03  0.10371238897E+04  0.10808866073E+04  0.17300000000E+03 0. -1.
</event>
<event>
 4    1  0.5712137E+000  0.1000000E+03  0.7546771E-02  0.1280296E+00
         21   -1    0    0  501  502  0.00000000000E+00  0.00000000000E+00  0.33901961733E+03  0.33901961733E+03  0.00000000000E+00 0. -1.
         21   -1    0    0  502  503 -0.00000000000E+00 -0.00000000000E+00 -0.19630291996E+03  0.19630291996E+03  0.00000000000E+00 0.  1.
          6    1    1    2  501    0 -0.10548444980E+03 -0.77660617604E+02  0.21610852222E+03  0.30625158620E+03  0.17300000000E+03 0. -1.
         -6    1    1    2    0  503  0.10548444980E+03  0.77660617604E+02 -0.73391824854E+02  0.22907095109E+03  0.17300000000E+03 0.  1.
</event>
<event>
 4    1  0.5712137E+000  0.1000000E+03  0.7546771E-02  0.1280296E+00
         21   -1    0    0  501  502  0.00000000000E+00  0.00000000000E+00  0.17637621744E+03  0.17637621744E+03  0.00000000000E+00 0. -1.
         21   -1    0    0  502  503 -0.00000000000E+00 -0.00000000000E+00 -0.26076303409E+03  0.26076303409E+03  0.00000000000E+00 0.  1.
          6    1    1    2  501    0 -0.86470348153E+02  0.90177176414E+02 -0.20469215480E+02  0.21437591525E+03  0.17300000000E+03 0. -1.
         -6    1    1    2    0  503  0.86470348153E+02 -0.90177176414E+02 -0.63917601166E+02  0.22276333629E+03  0.17300000000E+03 0.  1.
</event>
<event>
 4    1  0.5712137E+000  0.1000000E+03  0.7546771E-02  0.1280296E+00
         21   -1    0    0  501  502  0.00000000000E+00  0.00000000000E+00  0.37383995927E+03  0.37383995927E+03  0.00000000000E+00 0. -1.
         21   -1    0    0  502  503 -0.00000000000E+00 -0.00000000000E+00 -0.11854909626E+03  0.11854909626E+03  0.00000000000E+00 0. -1.
          6    1    1    2  501    0 -0.63722759850E+02 -0.95313135582E+02  0.86394624556E+02  0.22480706192E+03  0.17300000000E+03 0.  1.
         -6    1    1    2    0  503  0.63722759850E+02  0.95313135582E+02  0.16889623845E+03  0.26758199360E+03  0.17300000000E+03 0.  1.
</event>
<event>
 4    1  0.5712137E+000  0.1000000E+03  0.7546771E-02  0.1280296E+00
         21   -1    0    0  501  502  0.00000000000E+00  0.00000000000E+00  0.10265789166E+04  0.10265789166E+04  0.00000000000E+00 0. -1.
         21   -1    0    0  502  503 -0.00000000000E+00 -0.00000000000E+00 -0.86845725394E+02  0.86845725394E+02  0.00000000000E+00 0. -1.
          6    1    1    2  501    0  0.13995788507E+01 -0.80772178423E+01  0.92335523464E+03  0.93945787006E+03  0.17300000000E+03 0.  1.
         -6    1    1    2    0  503 -0.13995788507E+01  0.80772178423E+01  0.16377956537E+02  0.17396677191E+03  0.17300000000E+03 0.  1.
</event>
<event>
 4    1  0.5712137E+000  0.1000000E+03  0.7546771E-02  0.1280296E+00
         21   -1    0    0  501  502  0.00000000000E+00  0.00000000000E+00  0.37572067159E+02  0.37572067159E+02  0.00000000000E+00 0. -1.
         21   -1    0    0  502  503 -0.00000000000E+00 -0.00000000000E+00 -0.14481920435E+04  0.14481920435E+04  0.00000000000E+00 0. -1.
          6    1    1    2  501    0  0.25764923498E+02 -0.33309109234E+02 -0.22538258206E+03  0.28722749927E+03  0.17300000000E+03 0.  1.
         -6    1    1    2    0  503 -0.25764923498E+02  0.33309109234E+02 -0.11852373943E+04  0.11985366114E+04  0.17300000000E+03 0.  1.
</event>
<event>
 4    1  0.5712137E+000  0.1000000E+03  0.7546771E-02  0.1280296E+00
         21   -1    0    0  501  502  0.00000000000E+00  0.00000000000E+00  0.38777423041E+02  0.38777423041E+02  0.00000000000E+00 0.  1.
         21   -1    0    0  502  503 -0.00000000000E+00 -0.00000000000E+00 -0.85046639460E+03  0.85046639460E+03  0.00000000000E+00 0.  1.
          6    1    1    2  501    0 -0.20304972971E+01 -0.28599951715E+02 -0.29028319865E+03  0.33913922742E+03  0.17300000000E+03 0.  1.
         -6    1    1    2    0  503  0.20304972971E+01  0.28599951715E+02 -0.52140577290E+03  0.55010459022E+03  0.17300000000E+03 0.  1.
</event>
<event>
 4    1  0.5712137E+000  0.1000000E+03  0.7546771E-02  0.1280296E+00
         21   -1    0    0  501  502  0.00000000000E+00  0.00000000000E+00  0.36835603036E+03  0.36835603036E+03  0.00000000000E+00 0.  1.
         21   -1    0    0  502  503 -0.00000000000E+00 -0.00000000000E+00 -0.26069407818E+03  0.26069407818E+03  0.00000000000E+00 0.  1.
          6    1    1    2  501    0 -0.15269982035E+03  0.39050794276E+01  0.26372926582E+03  0.35044915527E+03  0.17300000000E+03 0.  1.
         -6    1    1    2    0  503  0.15269982035E+03 -0.39050794276E+01 -0.15606731364E+03  0.27860095327E+03  0.17300000000E+03 0.  1.
</event>
<event>
 4    1  0.5712137E+000  0.1000000E+03  0.7546771E-02  0.1280296E+00
         21   -1    0    0  501  502  0.00000000000E+00  0.00000000000E+00  0.32484358156E+03  0.32484358156E+03  0.00000000000E+00 0.  1.
         21   -1    0    0  502  503 -0.00000000000E+00 -0.00000000000E+00 -0.18162799742E+03  0.18162799742E+03  0.00000000000E+00 0.  1.
          6    1    1    2  501    0 -0.36854410578E+02 -0.94821839716E+02  0.21425907487E+03  0.29357346616E+03  0.17300000000E+03 0.  1.
         -6    1    1    2    0  503  0.36854410578E+02  0.94821839716E+02 -0.71043490730E+02  0.21289811282E+03  0.17300000000E+03 0.  1.
</event>
<event>
 4    1  0.5712137E+000  0.1000000E+03  0.7546771E-02  0.1280296E+00
         21   -1    0    0  501  502  0.00000000000E+00  0.00000000000E+00  0.23066134430E+03  0.23066134430E+03  0.00000000000E+00 0.  1.
         21   -1    0    0  502  503 -0.00000000000E+00 -0.00000000000E+00 -0.14533396983E+03  0.14533396983E+03  0.00000000000E+00 0.  1.
          6    1    1    2  501    0 -0.32220169381E+02 -0.22736691700E+01 -0.91929483546E+01  0.17622945039E+03  0.17300000000E+03 0.  1.
         -6    1    1    2    0  503  0.32220169381E+02  0.22736691700E+01  0.94520322823E+02  0.19976586373E+03  0.17300000000E+03 0.  1.
</event>
<event>
 4    1  0.5712137E+000  0.1000000E+03  0.7546771E-02  0.1280296E+00
         21   -1    0    0  503  502  0.00000000000E+00  0.00000000000E+00  0.18998610167E+04  0.18998610167E+04  0.00000000000E+00 0. -1.
         21   -1    0    0  501  503 -0.00000000000E+00 -0.00000000000E+00 -0.28956986487E+02  0.28956986487E+02  0.00000000000E+00 0. -1.
          6    1    1    2  501    0  0.14240080693E+03 -0.26235485738E+02  0.67156537344E+03  0.70844572222E+03  0.17300000000E+03 0.  1.
         -6    1    1    2    0  502 -0.14240080693E+03  0.26235485738E+02  0.11993386567E+04  0.12203722809E+04  0.17300000000E+03 0.  1.
</event>
<event>
 4    1  0.5712137E+000  0.1000000E+03  0.7546771E-02  0.1280296E+00
         21   -1    0    0  503  502  0.00000000000E+00  0.00000000000E+00  0.24981733311E+03  0.24981733311E+03  0.00000000000E+00 0. -1.
         21   -1    0    0  501  503 -0.00000000000E+00 -0.00000000000E+00 -0.18704649164E+03  0.18704649164E+03  0.00000000000E+00 0. -1.
          6    1    1    2  501    0  0.70979671643E+02 -0.58878165824E+02 -0.60639250315E+02  0.20520933428E+03  0.17300000000E+03 0. -1.
         -6    1    1    2    0  502 -0.70979671643E+02  0.58878165824E+02  0.12341009179E+03  0.23165449047E+03  0.17300000000E+03 0. -1.
</event>
<event>
 4    1  0.5712137E+000  0.1000000E+03  0.7546771E-02  0.1280296E+00
         21   -1    0    0  503  502  0.00000000000E+00  0.00000000000E+00  0.30125434376E+03  0.30125434376E+03  0.00000000000E+00 0. -1.
         21   -1    0    0  501  503 -0.00000000000E+00 -0.00000000000E+00 -0.21922032127E+03  0.21922032127E+03  0.00000000000E+00 0. -1.
          6    1    1    2  501    0 -0.16449927370E+03  0.16272222584E+02  0.13594400157E+03  0.27519914215E+03  0.17300000000E+03 0. -1.
         -6    1    1    2    0  502  0.16449927370E+03 -0.16272222584E+02 -0.53909979092E+02  0.24527552288E+03  0.17300000000E+03 0. -1.
</event>
<event>
 4    1  0.5712137E+000  0.1000000E+03  0.7546771E-02  0.1280296E+00
         21   -1    0    0  503  502  0.00000000000E+00  0.00000000000E+00  0.17059329591E+04  0.17059329591E+04  0.00000000000E+00 0. -1.
         21   -1    0    0  501  503 -0.00000000000E+00 -0.00000000000E+00 -0.15588978885E+03  0.15588978885E+03  0.00000000000E+00 0. -1.
          6    1    1    2  501    0  0.99652462361E+02  0.32632945359E+03  0.15076876401E+03  0.41119550792E+03  0.17300000000E+03 0. -1.
         -6    1    1    2    0  502 -0.99652462361E+02 -0.32632945359E+03  0.13992744063E+04  0.14506272400E+04  0.17300000000E+03 0. -1.
</event>
<event>
 4    1  0.5712137E+000  0.1000000E+03  0.7546771E-02  0.1280296E+00
         21   -1    0    0  503  502  0.00000000000E+00  0.00000000000E+00  0.26290632768E+03  0.26290632768E+03  0.00000000000E+00 0. -1.
         21   -1    0    0  501  503 -0.00000000000E+00 -0.00000000000E+00 -0.18304372134E+03  0.18304372134E+03  0.00000000000E+00 0. -1.
          6    1    1    2  501    0  0.79333509960E+02 -0.55051937409E+02 -0.55796028698E+02  0.20583177217E+03  0.17300000000E+03 0. -1.
         -6    1    1    2    0  502 -0.79333509960E+02  0.55051937409E+02  0.13565863504E+03  0.24011827685E+03  0.17300000000E+03 0. -1.
</event>
<event>
 4    1  0.5712137E+000  0.1000000E+03  0.7546771E-02  0.1280296E+00
         21   -1    0    0  503  502  0.00000000000E+00  0.00000000000E+00  0.51783852991E+03  0.51783852991E+03  0.00000000000E+00 0. -1.
         21   -1    0    0  501  503 -0.00000000000E+00 -0.00000000000E+00 -0.12167773178E+03  0.12167773178E+03  0.00000000000E+00 0. -1.
          6    1    1    2  501    0  0.40086584084E+02 -0.95610280948E+02  0.77166688127E+01  0.20183361223E+03  0.17300000000E+03 0. -1.
         -6    1    1    2    0  502 -0.40086584084E+02  0.95610280948E+02  0.38844412931E+03  0.43768264946E+03  0.17300000000E+03 0. -1.
</event>
<event>
 4    1  0.5712137E+000  0.1000000E+03  0.7546771E-02  0.1280296E+00
         21   -1    0    0  503  502  0.00000000000E+00  0.00000000000E+00  0.12406094400E+04  0.12406094400E+04  0.00000000000E+00 0.  1.
         21   -1    0    0  501  503 -0.00000000000E+00 -0.00000000000E+00 -0.67471734239E+02  0.67471734239E+02  0.00000000000E+00 0.  1.
          6    1    1    2  501    0  0.30208952709E+02 -0.25008881842E+01  0.66833149459E+02  0.18792153983E+03  0.17300000000E+03 0.  1.
         -6    1    1    2    0  502 -0.30208952709E+02  0.25008881842E+01  0.11063045563E+04  0.11201596345E+04  0.17300000000E+03 0.  1.
</event>
<event>
 4    1  0.5712137E+000  0.1000000E+03  0.7546771E-02  0.1280296E+00
         21   -1    0    0  503  502  0.00000000000E+00  0.00000000000E+00  0.49525624297E+03  0.49525624297E+03  0.00000000000E+00 0.  1.
         21   -1    0    0  501  503 -0.00000000000E+00 -0.00000000000E+00 -0.10110211665E+04  0.10110211665E+04  0.00000000000E+00 0.  1.
          6    1    1    2  501    0  0.21136457778E+03 -0.23732868438E+03 -0.90510687996E+03  0.97475502221E+03  0.17300000000E+03 0.  1.
         -6    1    1    2    0  502 -0.21136457778E+03  0.23732868438E+03  0.38934195641E+03  0.53152238729E+03  0.17300000000E+03 0.  1.
</event>
<event>
 4    1  0.5712137E+000  0.1000000E+03  0.7546771E-02  0.1280296E+00
         21   -1    0    0  501  502  0.00000000000E+00  0.00000000000E+00  0.22290902382E+03  0.22290902382E+03  0.00000000000E+00 0. -1.
         21   -1    0    0  502  503 -0.00000000000E+00 -0.00000000000E+00 -0.17973212832E+03  0.17973212832E+03  0.00000000000E+00 0. -1.
          6    1    1    2  501    0 -0.12339327228E+01  0.91814591680E+02  0.63100949707E+02  0.20577213536E+03  0.17300000000E+03 0. -1.
         -6    1    1    2    0  503  0.12339327228E+01 -0.91814591680E+02 -0.19924054206E+02  0.19686901679E+03  0.17300000000E+03 0. -1.
</event>
<event>
 4    1  0.5712137E+000  0.1000000E+03  0.7546771E-02  0.1280296E+00
         21   -1    0    0  501  502  0.00000000000E+00  0.00000000000E+00  0.73324336342E+02  0.73324336342E+02  0.00000000000E+00 0. -1.
         21   -1    0    0  502  503 -0.00000000000E+00 -0.00000000000E+00 -0.19443796280E+04  0.19443796280E+04  0.00000000000E+00 0. -1.
          6    1    1    2  501    0  0.29254718828E+02 -0.26920194745E+01 -0.42239598193E+02  0.18048897251E+03  0.17300000000E+03 0. -1.
         -6    1    1    2    0  503 -0.29254718828E+02  0.26920194745E+01 -0.18288156935E+04  0.18372149918E+04  0.17300000000E+03 0. -1.
</event>
<event>
 4    1  0.5712137E+000  0.1000000E+03  0.7546771E-02  0.1280296E+00
         21   -1    0    0  501  502  0.00000000000E+00  0.00000000000E+00  0.35539082287E+03  0.35539082287E+03  0.00000000000E+00 0. -1.
         21   -1    0    0  502  503 -0.00000000000E+00 -0.00000000000E+00 -0.58765881575E+03  0.58765881575E+03  0.00000000000E+00 0. -1.
          6    1    1    2  501    0 -0.29640317110E+01  0.37496834951E+03  0.85815174820E+02  0.42178583766E+03  0.17300000000E+03 0. -1.
         -6    1    1    2    0  503  0.29640317110E+01 -0.37496834951E+03 -0.31808316770E+03  0.52126380096E+03  0.17300000000E+03 0. -1.
</event>
<event>
 4    1  0.5712137E+000  0.1000000E+03  0.7546771E-02  0.1280296E+00
         21   -1    0    0  501  502  0.00000000000E+00  0.00000000000E+00  0.48489293877E+02  0.48489293877E+02  0.00000000000E+00 0. -1.
         21   -1    0    0  502  503 -0.00000000000E+00 -0.00000000000E+00 -0.93782502033E+03  0.93782502033E+03  0.00000000000E+00 0. -1.
          6    1    1    2  501    0  0.70688285631E+02 -0.87458708742E+02 -0.56919716804E+03  0.60544221489E+03  0.17300000000E+03 0. -1.
         -6    1    1    2    0  503 -0.70688285631E+02  0.87458708742E+02 -0.32013855841E+03  0.38087209932E+03  0.17300000000E+03 0. -1.
</event>
<event>
 4    1  0.5712137E+000  0.1000000E+03  0.7546771E-02  0.1280296E+00
         21   -1    0    0  501  502  0.00000000000E+00  0.00000000000E+00  0.10892342724E+03  0.10892342724E+03  0.00000000000E+00 0. -1.
         21   -1    0    0  502  503 -0.00000000000E+00 -0.00000000000E+00 -0.22517893889E+04  0.22517893889E+04  0.00000000000E+00 0. -1.
          6    1    1    2  501    0  0.16674649279E+03  0.12187734662E+03 -0.81020489706E+02  0.28133929734E+03  0.17300000000E+03 0. -1.
         -6    1    1    2    0  503 -0.16674649279E+03 -0.12187734662E+03 -0.20618454720E+04  0.20793735188E+04  0.17300000000E+03 0. -1.
</event>
<event>
 4    1  0.5712137E+000  0.1000000E+03  0.7546771E-02  0.1280296E+00
         21   -1    0    0  501  502  0.00000000000E+00  0.00000000000E+00  0.86257207089E+03  0.86257207089E+03  0.00000000000E+00 0. -1.
         21   -1    0    0  502  503 -0.00000000000E+00 -0.00000000000E+00 -0.10517608405E+03  0.10517608405E+03  0.00000000000E+00 0. -1.
          6    1    1    2  501    0 -0.16741237676E+03 -0.15819948915E+02  0.66838114476E+03  0.71059097190E+03  0.17300000000E+03 0. -1.
         -6    1    1    2    0  503  0.16741237676E+03  0.15819948915E+02  0.89014842080E+02  0.25715718304E+03  0.17300000000E+03 0. -1.
</event>
<event>
 4    1  0.5712137E+000  0.1000000E+03  0.7546771E-02  0.1280296E+00
         21   -1    0    0  501  502  0.00000000000E+00  0.00000000000E+00  0.35038927164E+03  0.35038927164E+03  0.00000000000E+00 0. -1.
         21   -1    0    0  502  503 -0.00000000000E+00 -0.00000000000E+00 -0.29698082521E+03  0.29698082521E+03  0.00000000000E+00 0. -1.
          6    1    1    2  501    0  0.55673282770E+02 -0.13074722500E+03  0.25973890738E+03  0.34291055869E+03  0.17300000000E+03 0. -1.
         -6    1    1    2    0  503 -0.55673282770E+02  0.13074722500E+03 -0.20633046095E+03  0.30445953816E+03  0.17300000000E+03 0. -1.
</event>
<event>
 4    1  0.5712137E+000  0.1000000E+03  0.7546771E-02  0.1280296E+00
         21   -1    0    0  503  502  0.00000000000E+00  0.00000000000E+00  0.56443229899E+03  0.56443229899E+03  0.00000000000E+00 0. -1.
         21   -1    0    0  501  503 -0.00000000000E+00 -0.00000000000E+00 -0.13221962940E+03  0.13221962940E+03  0.00000000000E+00 0. -1.
          6    1    1    2  501    0 -0.37003387569E+02 -0.14649435217E+03  0.27542602989E+02  0.23133836882E+03  0.17300000000E+03 0. -1.
         -6    1    1    2    0  502  0.37003387569E+02  0.14649435217E+03  0.40467006661E+03  0.46531355957E+03  0.17300000000E+03 0. -1.
</event>
<event>
 4    1  0.5712137E+000  0.1000000E+03  0.7546771E-02  0.1280296E+00
         21   -1    0    0  503  502  0.00000000000E+00  0.00000000000E+00  0.40157259496E+03  0.40157259496E+03  0.00000000000E+00 0. -1.
         21   -1    0    0  501  503 -0.00000000000E+00 -0.00000000000E+00 -0.15143352680E+03  0.15143352680E+03  0.00000000000E+00 0. -1.
          6    1    1    2  501    0 -0.90797343884E+02  0.11038585704E+03  0.10429890029E+02  0.22464856487E+03  0.17300000000E+03 0. -1.
         -6    1    1    2    0  502  0.90797343884E+02 -0.11038585704E+03  0.23970917813E+03  0.32835755690E+03  0.17300000000E+03 0. -1.
</event>
<event>
 4    1  0.5712137E+000  0.1000000E+03  0.7546771E-02  0.1280296E+00
         21   -1    0    0  503  502  0.00000000000E+00  0.00000000000E+00  0.94255727744E+02  0.94255727744E+02  0.00000000000E+00 0.  1.
         21   -1    0    0  501  503 -0.00000000000E+00 -0.00000000000E+00 -0.18152234947E+04  0.18152234947E+04  0.00000000000E+00 0.  1.
          6    1    1    2  501    0  0.33705737331E+02 -0.30810829442E+02 -0.17212787076E+04  0.17305533142E+04  0.17300000000E+03 0. -1.
         -6    1    1    2    0  502 -0.33705737331E+02  0.30810829442E+02  0.31094072266E+00  0.17892590820E+03  0.17300000000E+03 0. -1.
</event>
<event>
 4    1  0.5712137E+000  0.1000000E+03  0.7546771E-02  0.1280296E+00
         21   -1    0    0  503  502  0.00000000000E+00  0.00000000000E+00  0.43037079509E+03  0.43037079509E+03  0.00000000000E+00 0.  1.
         21   -1    0    0  501  503 -0.00000000000E+00 -0.00000000000E+00 -0.10246935997E+03  0.10246935997E+03  0.00000000000E+00 0.  1.
          6    1    1    2  501    0  0.10927349596E+03  0.31890072998E+02  0.11976263857E+03  0.23922743002E+03  0.17300000000E+03 0. -1.
         -6    1    1    2    0  502 -0.10927349596E+03 -0.31890072998E+02  0.20813879656E+03  0.29361272504E+03  0.17300000000E+03 0. -1.
</event>
<event>
 4    1  0.5712137E+000  0.1000000E+03  0.7546771E-02  0.1280296E+00
         21   -1    0    0  503  502  0.00000000000E+00  0.00000000000E+00  0.30076188010E+02  0.30076188010E+02  0.00000000000E+00 0.  1.
         21   -1    0    0  501  503 -0.00000000000E+00 -0.00000000000E+00 -0.17795560622E+04  0.17795560622E+04  0.00000000000E+00 0.  1.
          6    1    1    2  501    0 -0.10655225959E+03 -0.80285207646E+02 -0.11724465591E+04  0.11926269461E+04  0.17300000000E+03 0.  1.
         -6    1    1    2    0  502  0.10655225959E+03  0.80285207646E+02 -0.57703331508E+03  0.61700530412E+03  0.17300000000E+03 0.  1.
</event>
<event>
 4    1  0.5712137E+000  0.1000000E+03  0.7546771E-02  0.1280296E+00
         21   -1    0    0  503  502  0.00000000000E+00  0.00000000000E+00  0.43307839940E+03  0.43307839940E+03  0.00000000000E+00 0.  1.
         21   -1    0    0  501  503 -0.00000000000E+00 -0.00000000000E+00 -0.27106772922E+03  0.27106772922E+03  0.00000000000E+00 0.  1.
          6    1    1    2  501    0 -0.27052217908E+03  0.90967419119E+01 -0.41441722077E+02  0.32390031864E+03  0.17300000000E+03 0.  1.
         -6    1    1    2    0  502  0.27052217908E+03 -0.90967419119E+01  0.20345239226E+03  0.38024580998E+03  0.17300000000E+03 0.  1.
</event>
<event>
 4    1  0.5712137E+000  0.1000000E+03  0.7546771E-02  0.1280296E+00
         21   -1    0    0  503  502  0.00000000000E+00  0.00000000000E+00  0.85663804840E+02  0.85663804840E+02  0.00000000000E+00 0.  1.
         21   -1    0    0  501  503 -0.00000000000E+00 -0.00000000000E+00 -0.83900332706E+03  0.83900332706E+03  0.00000000000E+00 0.  1.
          6    1    1    2  501    0 -0.28159952420E+02 -0.89381560452E+02 -0.69071327807E+03  0.71818930567E+03  0.17300000000E+03 0.  1.
         -6    1    1    2    0  502  0.28159952420E+02  0.89381560452E+02 -0.62626244145E+02  0.20647782623E+03  0.17300000000E+03 0.  1.
</event>
<event>
 4    1  0.5712137E+000  0.1000000E+03  0.7546771E-02  0.1280296E+00
         21   -1    0    0  503  502  0.00000000000E+00  0.00000000000E+00  0.10114982888E+04  0.10114982888E+04  0.00000000000E+00 0.  1.
         21   -1    0    0  501  503 -0.00000000000E+00 -0.00000000000E+00 -0.60241717198E+02  0.60241717198E+02  0.00000000000E+00 0.  1.
          6    1    1    2  501    0 -0.15297183451E+01 -0.72324737859E+02  0.12712744636E+03  0.22654711511E+03  0.17300000000E+03 0.  1.
         -6    1    1    2    0  502  0.15297183451E+01  0.72324737859E+02  0.82412912527E+03  0.84519289092E+03  0.17300000000E+03 0.  1.
</event>
<event>
 4    1  0.5712137E+000  0.1000000E+03  0.7546771E-02  0.1280296E+00
         21   -1    0    0  503  502  0.00000000000E+00  0.00000000000E+00  0.34542978183E+03  0.34542978183E+03  0.00000000000E+00 0.  1.
         21   -1    0    0  501  503 -0.00000000000E+00 -0.00000000000E+00 -0.11922478652E+03  0.11922478652E+03  0.00000000000E+00 0.  1.
          6    1    1    2  501    0 -0.31974484808E+02 -0.99339993230E+02  0.13494396508E+03  0.24296023470E+03  0.17300000000E+03 0.  1.
         -6    1    1    2    0  502  0.31974484808E+02  0.99339993230E+02  0.91261030221E+02  0.22169433365E+03  0.17300000000E+03 0.  1.
</event>
<event>
 4    1  0.5712137E+000  0.1000000E+03  0.7546771E-02  0.1280296E+00
         21   -1    0    0  503  502  0.00000000000E+00  0.00000000000E+00  0.12803125207E+03  0.12803125207E+03  0.00000000000E+00 0. -1.
         21   -1    0    0  501  503 -0.00000000000E+00 -0.00000000000E+00 -0.26962302572E+03  0.26962302572E+03  0.00000000000E+00 0.  1.
          6    1    1    2  501    0 -0.38682079823E+02 -0.55335092845E+02 -0.64657950001E+02  0.19664161894E+03  0.17300000000E+03 0.  1.
         -6    1    1    2    0  502  0.38682079823E+02  0.55335092845E+02 -0.76933823651E+02  0.20101265886E+03  0.17300000000E+03 0. -1.
</event>
<event>
 4    1  0.5712137E+000  0.1000000E+03  0.7546771E-02  0.1280296E+00
         21   -1    0    0  501  502  0.00000000000E+00  0.00000000000E+00  0.24326705662E+04  0.24326705662E+04  0.00000000000E+00 0.  1.
         21   -1    0    0  502  503 -0.00000000000E+00 -0.00000000000E+00 -0.60620148270E+02  0.60620148270E+02  0.00000000000E+00 0. -1.
          6    1    1    2  501    0  0.37273430827E+02  0.14468107854E+02  0.22914054606E+04  0.22982747050E+04  0.17300000000E+03 0.  1.
         -6    1    1    2    0  503 -0.37273430827E+02 -0.14468107854E+02  0.80644957263E+02  0.19501600940E+03  0.17300000000E+03 0. -1.
</event>
<event>
 4    1  0.5712137E+000  0.1000000E+03  0.7546771E-02  0.1280296E+00
         21   -1    0    0  501  502  0.00000000000E+00  0.00000000000E+00  0.18582715984E+04  0.18582715984E+04  0.00000000000E+00 0.  1.
         21   -1    0    0  502  503 -0.00000000000E+00 -0.00000000000E+00 -0.43473073711E+02  0.43473073711E+02  0.00000000000E+00 0.  1.
          6    1    1    2  501    0 -0.63695687103E+02 -0.14653932590E+03  0.14397906256E+04  0.14589232194E+04  0.17300000000E+03 0.  1.
         -6    1    1    2    0  503  0.63695687103E+02  0.14653932590E+03  0.37500789912E+03  0.44282145273E+03  0.17300000000E+03 0.  1.
</event>
<event>
 4    1  0.5712137E+000  0.1000000E+03  0.7546771E-02  0.1280296E+00
         21   -1    0    0  501  502  0.00000000000E+00  0.00000000000E+00  0.53613888425E+03  0.53613888425E+03  0.00000000000E+00 0.  1.
         21   -1    0    0  502  503 -0.00000000000E+00 -0.00000000000E+00 -0.13790523105E+03  0.13790523105E+03  0.00000000000E+00 0.  1.
          6    1    1    2  501    0 -0.16907576023E+03 -0.20598803241E+02  0.35089988270E+03  0.42669737645E+03  0.17300000000E+03 0.  1.
         -6    1    1    2    0  503  0.16907576023E+03  0.20598803241E+02  0.47333770507E+02  0.24734673886E+03  0.17300000000E+03 0.  1.
</event>
<event>
 4    1  0.5712137E+000  0.1000000E+03  0.7546771E-02  0.1280296E+00
         21   -1    0    0  501  502  0.00000000000E+00  0.00000000000E+00  0.17090913718E+03  0.17090913718E+03  0.00000000000E+00 0. -1.
         21   -1    0    0  502  503 -0.00000000000E+00 -0.00000000000E+00 -0.61923293578E+03  0.61923293578E+03  0.00000000000E+00 0. -1.
          6    1    1    2  501    0  0.90764362420E+02  0.44770855949E+02  0.87023467690E+02  0.21850556734E+03  0.17300000000E+03 0. -1.
         -6    1    1    2    0  503 -0.90764362420E+02 -0.44770855949E+02 -0.53534726630E+03  0.57163650562E+03  0.17300000000E+03 0. -1.
</event>
<event>
 4    1  0.5712137E+000  0.1000000E+03  0.7546771E-02  0.1280296E+00
         21   -1    0    0  501  502  0.00000000000E+00  0.00000000000E+00  0.24455705415E+03  0.24455705415E+03  0.00000000000E+00 0. -1.
         21   -1    0    0  502  503 -0.00000000000E+00 -0.00000000000E+00 -0.12898935840E+03  0.12898935840E+03  0.00000000000E+00 0. -1.
          6    1    1    2  501    0 -0.33847945918E+02  0.21470280648E+02  0.61042277142E+02  0.18778129830E+03  0.17300000000E+03 0. -1.
         -6    1    1    2    0  503  0.33847945918E+02 -0.21470280648E+02  0.54525418612E+02  0.18576511424E+03  0.17300000000E+03 0. -1.
</event>
<event>
 4    1  0.5712137E+000  0.1000000E+03  0.7546771E-02  0.1280296E+00
         21   -1    0    0  501  502  0.00000000000E+00  0.00000000000E+00  0.18743339148E+04  0.18743339148E+04  0.00000000000E+00 0. -1.
         21   -1    0    0  502  503 -0.00000000000E+00 -0.00000000000E+00 -0.51828303790E+02  0.51828303790E+02  0.00000000000E+00 0. -1.
          6    1    1    2  501    0 -0.25163315560E+02  0.11227340391E+03  0.16291402960E+04  0.16423354145E+04  0.17300000000E+03 0. -1.
         -6    1    1    2    0  503  0.25163315560E+02 -0.11227340391E+03  0.19336531504E+03  0.28382680412E+03  0.17300000000E+03 0. -1.
</event>
<event>
 4    1  0.5712137E+000  0.1000000E+03  0.7546771E-02  0.1280296E+00
         21   -1    0    0  501  502  0.00000000000E+00  0.00000000000E+00  0.32261146736E+03  0.32261146736E+03  0.00000000000E+00 0. -1.
         21   -1    0    0  502  503 -0.00000000000E+00 -0.00000000000E+00 -0.11320972487E+03  0.11320972487E+03  0.00000000000E+00 0. -1.
          6    1    1    2  501    0 -0.55655718706E+02 -0.50409476623E+02  0.13993931393E+03  0.23484183175E+03  0.17300000000E+03 0. -1.
         -6    1    1    2    0  503  0.55655718706E+02  0.50409476623E+02  0.69462428556E+02  0.20097936048E+03  0.17300000000E+03 0. -1.
</event>
<event>
 4    1  0.5712137E+000  0.1000000E+03  0.7546771E-02  0.1280296E+00
         21   -1    0    0  503  502  0.00000000000E+00  0.00000000000E+00  0.41508585426E+03  0.41508585426E+03  0.00000000000E+00 0. -1.
         21   -1    0    0  501  503 -0.00000000000E+00 -0.00000000000E+00 -0.22638416960E+03  0.22638416960E+03  0.00000000000E+00 0. -1.
          6    1    1    2  501    0  0.60050870457E+02 -0.39726529778E+02 -0.15948218721E+03  0.24606477246E+03  0.17300000000E+03 0. -1.
         -6    1    1    2    0  502 -0.60050870457E+02  0.39726529778E+02  0.34818387187E+03  0.39540525141E+03  0.17300000000E+03 0. -1.
</event>
<event>
 4    1  0.5712137E+000  0.1000000E+03  0.7546771E-02  0.1280296E+00
         21   -1    0    0  503  502  0.00000000000E+00  0.00000000000E+00  0.98092267398E+03  0.98092267398E+03  0.00000000000E+00 0.  1.
         21   -1    0    0  501  503 -0.00000000000E+00 -0.00000000000E+00 -0.10895062283E+03  0.10895062283E+03  0.00000000000E+00 0. -1.
          6    1    1    2  501    0  0.20740251381E+03 -0.16485492540E+03  0.29903298561E+03  0.43536499130E+03  0.17300000000E+03 0.  1.
         -6    1    1    2    0  502 -0.20740251381E+03  0.16485492540E+03  0.57293906553E+03  0.65450830551E+03  0.17300000000E+03 0. -1.
</event>
<event>
 4    1  0.5712137E+000  0.1000000E+03  0.7546771E-02  0.1280296E+00
         21   -1    0    0  503  502  0.00000000000E+00  0.00000000000E+00  0.33346787885E+03  0.33346787885E+03  0.00000000000E+00 0.  1.
         21   -1    0    0  501  503 -0.00000000000E+00 -0.00000000000E+00 -0.13835104329E+03  0.13835104329E+03  0.00000000000E+00 0. -1.
          6    1    1    2  501    0  0.54201107736E+02  0.43439019703E+02 -0.19616567680E+02  0.18745270934E+03  0.17300000000E+03 0.  1.
         -6    1    1    2    0  502 -0.54201107736E+02 -0.43439019703E+02  0.21473340324E+03  0.28436621279E+03  0.17300000000E+03 0. -1.
</event>
<event>
 4    1  0.5712137E+000  0.1000000E+03  0.7546771E-02  0.1280296E+00
         21   -1    0    0  503  502  0.00000000000E+00  0.00000000000E+00  0.48029484520E+03  0.48029484520E+03  0.00000000000E+00 0.  1.
         21   -1    0    0  501  503 -0.00000000000E+00 -0.00000000000E+00 -0.95071266138E+02  0.95071266138E+02  0.00000000000E+00 0. -1.
          6    1    1    2  501    0  0.72038226823E+02  0.49398625486E+02  0.71420269259E+02  0.20654196955E+03  0.17300000000E+03 0.  1.
         -6    1    1    2    0  502 -0.72038226823E+02 -0.49398625486E+02  0.31380330981E+03  0.36882414179E+03  0.17300000000E+03 0. -1.
</event>
<event>
 4    1  0.5712137E+000  0.1000000E+03  0.7546771E-02  0.1280296E+00
         21   -1    0    0  501  502  0.00000000000E+00  0.00000000000E+00  0.28047864029E+03  0.28047864029E+03  0.00000000000E+00 0.  1.
         21   -1    0    0  502  503 -0.00000000000E+00 -0.00000000000E+00 -0.18643351861E+03  0.18643351861E+03  0.00000000000E+00 0. -1.
          6    1    1    2  501    0  0.29363553253E+02 -0.11803606267E+03 -0.41785418319E+02  0.21556843817E+03  0.17300000000E+03 0.  1.
         -6    1    1    2    0  503 -0.29363553253E+02  0.11803606267E+03  0.13583054000E+03  0.25134372073E+03  0.17300000000E+03 0. -1.
</event>
<event>
 4    1  0.5712137E+000  0.1000000E+03  0.7546771E-02  0.1280296E+00
         21   -1    0    0  501  502  0.00000000000E+00  0.00000000000E+00  0.38261205556E+03  0.38261205556E+03  0.00000000000E+00 0.  1.
         21   -1    0    0  502  503 -0.00000000000E+00 -0.00000000000E+00 -0.11529256236E+03  0.11529256236E+03  0.00000000000E+00 0. -1.
          6    1    1    2  501    0 -0.73631172235E+02 -0.37908233497E+02  0.23510513564E+03  0.30341721852E+03  0.17300000000E+03 0.  1.
         -6    1    1    2    0  503  0.73631172235E+02  0.37908233497E+02  0.32214357566E+02  0.19448739940E+03  0.17300000000E+03 0. -1.
</event>
<event>
 4    1  0.5712137E+000  0.1000000E+03  0.7546771E-02  0.1280296E+00
         21   -1    0    0  501  502  0.00000000000E+00  0.00000000000E+00  0.25235969239E+04  0.25235969239E+04  0.00000000000E+00 0.  1.
         21   -1    0    0  502  503 -0.00000000000E+00 -0.00000000000E+00 -0.14408251311E+02  0.14408251311E+02  0.00000000000E+00 0. -1.
          6    1    1    2  501    0 -0.36677946562E+02  0.10511243033E+01  0.78002170282E+03  0.79981825029E+03  0.17300000000E+03 0.  1.
         -6    1    1    2    0  503  0.36677946562E+02 -0.10511243033E+01  0.17291669698E+04  0.17381869249E+04  0.17300000000E+03 0. -1.
</event>
<event>
 4    1  0.5712137E+000  0.1000000E+03  0.7546771E-02  0.1280296E+00
         21   -1    0    0  503  502  0.00000000000E+00  0.00000000000E+00  0.32504252357E+03  0.32504252357E+03  0.00000000000E+00 0. -1.
         21   -1    0    0  501  503 -0.00000000000E+00 -0.00000000000E+00 -0.22311428219E+03  0.22311428219E+03  0.00000000000E+00 0. -1.
          6    1    1    2  501    0  0.10588988492E+03  0.10680787745E+02 -0.12899604459E+03  0.24061530806E+03  0.17300000000E+03 0. -1.
         -6    1    1    2    0  502 -0.10588988492E+03 -0.10680787745E+02  0.23092428597E+03  0.30754149770E+03  0.17300000000E+03 0. -1.
</event>
<event>
 4    1  0.5712137E+000  0.1000000E+03  0.7546771E-02  0.1280296E+00
         21   -1    0    0  503  502  0.00000000000E+00  0.00000000000E+00  0.30870491619E+02  0.30870491619E+02  0.00000000000E+00 0. -1.
         21   -1    0    0  501  503 -0.00000000000E+00 -0.00000000000E+00 -0.25130037523E+04  0.25130037523E+04  0.00000000000E+00 0. -1.
          6    1    1    2  501    0  0.12611312374E+03 -0.29375670658E+02 -0.20435655647E+04  0.20549590428E+04  0.17300000000E+03 0. -1.
         -6    1    1    2    0  502 -0.12611312374E+03  0.29375670658E+02 -0.43856769595E+03  0.48891520117E+03  0.17300000000E+03 0. -1.
</event>
<event>
 4    1  0.5712137E+000  0.1000000E+03  0.7546771E-02  0.1280296E+00
         21   -1    0    0  501  502  0.00000000000E+00  0.00000000000E+00  0.23736124930E+03  0.23736124930E+03  0.00000000000E+00 0. -1.
         21   -1    0    0  502  503 -0.00000000000E+00 -0.00000000000E+00 -0.19015107154E+03  0.19015107154E+03  0.00000000000E+00 0.  1.
          6    1    1    2  501    0 -0.77490998235E+02  0.62093909364E+02  0.97164406039E+02  0.22187931447E+03  0.17300000000E+03 0.  1.
         -6    1    1    2    0  503  0.77490998235E+02 -0.62093909364E+02 -0.49954228275E+02  0.20563300637E+03  0.17300000000E+03 0. -1.
</event>
<event>
 4    1  0.5712137E+000  0.1000000E+03  0.7546771E-02  0.1280296E+00
         21   -1    0    0  501  502  0.00000000000E+00  0.00000000000E+00  0.53247817415E+02  0.53247817415E+02  0.00000000000E+00 0. -1.
         21   -1    0    0  502  503 -0.00000000000E+00 -0.00000000000E+00 -0.75021092390E+03  0.75021092390E+03  0.00000000000E+00 0.  1.
          6    1    1    2  501    0  0.57601397982E+02 -0.51896867311E+02 -0.22125006389E+03  0.29136196845E+03  0.17300000000E+03 0.  1.
         -6    1    1    2    0  503 -0.57601397982E+02  0.51896867311E+02 -0.47571304259E+03  0.51209677287E+03  0.17300000000E+03 0. -1.
</event>
<event>
 4    1  0.5712137E+000  0.1000000E+03  0.7546771E-02  0.1280296E+00
         21   -1    0    0  503  502  0.00000000000E+00  0.00000000000E+00  0.70166955323E+02  0.70166955323E+02  0.00000000000E+00 0. -1.
         21   -1    0    0  501  503 -0.00000000000E+00 -0.00000000000E+00 -0.64151388985E+03  0.64151388985E+03  0.00000000000E+00 0. -1.
          6    1    1    2  501    0  0.36332970593E+02  0.16572674329E+02 -0.48047001430E+03  0.51222570506E+03  0.17300000000E+03 0. -1.
         -6    1    1    2    0  502 -0.36332970593E+02 -0.16572674329E+02 -0.90876920230E+02  0.19945514011E+03  0.17300000000E+03 0. -1.
</event>
<event>
 4    1  0.5712137E+000  0.1000000E+03  0.7546771E-02  0.1280296E+00
         21   -1    0    0  503  502  0.00000000000E+00  0.00000000000E+00  0.51442814818E+02  0.51442814818E+02  0.00000000000E+00 0. -1.
         21   -1    0    0  501  503 -0.00000000000E+00 -0.00000000000E+00 -0.93521073239E+03  0.93521073239E+03  0.00000000000E+00 0. -1.
          6    1    1    2  501    0  0.11197391170E+03 -0.69358800052E+02 -0.50676206450E+03  0.55143956157E+03  0.17300000000E+03 0. -1.
         -6    1    1    2    0  502 -0.11197391170E+03  0.69358800052E+02 -0.37700585307E+03  0.43521398563E+03  0.17300000000E+03 0. -1.
</event>
<event>
 4    1  0.5712137E+000  0.1000000E+03  0.7546771E-02  0.1280296E+00
         21   -1    0    0  503  502  0.00000000000E+00  0.00000000000E+00  0.63575897120E+03  0.63575897120E+03  0.00000000000E+00 0.  1.
         21   -1    0    0  501  503 -0.00000000000E+00 -0.00000000000E+00 -0.95561691317E+02  0.95561691317E+02  0.00000000000E+00 0.  1.
          6    1    1    2  501    0  0.81402403582E+02 -0.67221906391E+02  0.61983839310E+02  0.21193426420E+03  0.17300000000E+03 0.  1.
         -6    1    1    2    0  502 -0.81402403582E+02  0.67221906391E+02  0.47821344057E+03  0.51938639831E+03  0.17300000000E+03 0.  1.
</event>
<event>
 4    1  0.5712137E+000  0.1000000E+03  0.7546771E-02  0.1280296E+00
         21   -1    0    0  503  502  0.00000000000E+00  0.00000000000E+00  0.15482186082E+03  0.15482186082E+03  0.00000000000E+00 0.  1.
         21   -1    0    0  501  503 -0.00000000000E+00 -0.00000000000E+00 -0.23509226998E+04  0.23509226998E+04  0.00000000000E+00 0.  1.
          6    1    1    2  501    0 -0.16677078328E+03  0.27586758814E+03 -0.20942765313E+04  0.21259912065E+04  0.17300000000E+03 0.  1.
         -6    1    1    2    0  502  0.16677078328E+03 -0.27586758814E+03 -0.10182430763E+03  0.37975335412E+03  0.17300000000E+03 0.  1.
</event>
<event>
 4    1  0.5712137E+000  0.1000000E+03  0.7546771E-02  0.1280296E+00
         21   -1    0    0  503  502  0.00000000000E+00  0.00000000000E+00  0.24931759108E+03  0.24931759108E+03  0.00000000000E+00 0.  1.
         21   -1    0    0  501  503 -0.00000000000E+00 -0.00000000000E+00 -0.21524379727E+03  0.21524379727E+03  0.00000000000E+00 0.  1.
          6    1    1    2  501    0  0.44657252863E+02  0.13181592675E+03 -0.49212385346E+02  0.22742156373E+03  0.17300000000E+03 0.  1.
         -6    1    1    2    0  502 -0.44657252863E+02 -0.13181592675E+03  0.83286179159E+02  0.23713982461E+03  0.17300000000E+03 0.  1.
</event>
<event>
 4    1  0.5712137E+000  0.1000000E+03  0.7546771E-02  0.1280296E+00
         21   -1    0    0  503  502  0.00000000000E+00  0.00000000000E+00  0.24074748250E+02  0.24074748250E+02  0.00000000000E+00 0.  1.
         21   -1    0    0  501  503 -0.00000000000E+00 -0.00000000000E+00 -0.20155147085E+04  0.20155147085E+04  0.00000000000E+00 0.  1.
          6    1    1    2  501    0  0.12173600498E+03  0.38337409833E+02 -0.77347271578E+03  0.80279415416E+03  0.17300000000E+03 0.  1.
         -6    1    1    2    0  502 -0.12173600498E+03 -0.38337409833E+02 -0.12179672445E+04  0.12367953026E+04  0.17300000000E+03 0.  1.
</event>
<event>
 4    1  0.5712137E+000  0.1000000E+03  0.7546771E-02  0.1280296E+00
         21   -1    0    0  503  502  0.00000000000E+00  0.00000000000E+00  0.36227441626E+03  0.36227441626E+03  0.00000000000E+00 0.  1.
         21   -1    0    0  501  503 -0.00000000000E+00 -0.00000000000E+00 -0.13683629907E+03  0.13683629907E+03  0.00000000000E+00 0.  1.
          6    1    1    2  501    0 -0.57458748250E+02  0.12783452558E+03  0.11310193310E+03  0.24972829426E+03  0.17300000000E+03 0.  1.
         -6    1    1    2    0  502  0.57458748250E+02 -0.12783452558E+03  0.11233618410E+03  0.24938242107E+03  0.17300000000E+03 0.  1.
</event>
<event>
 4    1  0.5712137E+000  0.1000000E+03  0.7546771E-02  0.1280296E+00
         21   -1    0    0  503  502  0.00000000000E+00  0.00000000000E+00  0.42170986765E+03  0.42170986765E+03  0.00000000000E+00 0.  1.
         21   -1    0    0  501  503 -0.00000000000E+00 -0.00000000000E+00 -0.21424478706E+03  0.21424478706E+03  0.00000000000E+00 0.  1.
          6    1    1    2  501    0  0.15654943702E+03 -0.18457912463E+03  0.58318279389E+02  0.30316200486E+03  0.17300000000E+03 0.  1.
         -6    1    1    2    0  502 -0.15654943702E+03  0.18457912463E+03  0.14914680120E+03  0.33279264984E+03  0.17300000000E+03 0.  1.
</event>
<event>
 4    1  0.5712137E+000  0.1000000E+03  0.7546771E-02  0.1280296E+00
         21   -1    0    0  501  502  0.00000000000E+00  0.00000000000E+00  0.89425863811E+02  0.89425863811E+02  0.00000000000E+00 0. -1.
         21   -1    0    0  502  503 -0.00000000000E+00 -0.00000000000E+00 -0.53986430026E+03  0.53986430026E+03  0.00000000000E+00 0. -1.
          6    1    1    2  501    0 -0.60577010932E+02  0.12004669320E+03 -0.24866441241E+03  0.33142687398E+03  0.17300000000E+03 0. -1.
         -6    1    1    2    0  503  0.60577010932E+02 -0.12004669320E+03 -0.20177402404E+03  0.29786329008E+03  0.17300000000E+03 0. -1.
</event>
<event>
 4    1  0.5712137E+000  0.1000000E+03  0.7546771E-02  0.1280296E+00
         21   -1    0    0  503  502  0.00000000000E+00  0.00000000000E+00  0.18484545522E+03  0.18484545522E+03  0.00000000000E+00 0. -1.
         21   -1    0    0  501  503 -0.00000000000E+00 -0.00000000000E+00 -0.24061839820E+03  0.24061839820E+03  0.00000000000E+00 0. -1.
          6    1    1    2  501    0  0.12087217463E+02 -0.10096807391E+02 -0.14851068224E+03  0.22854423879E+03  0.17300000000E+03 0. -1.
         -6    1    1    2    0  502 -0.12087217463E+02  0.10096807391E+02  0.92737739257E+02  0.19691961463E+03  0.17300000000E+03 0. -1.
</event>
<event>
 4    1  0.5712137E+000  0.1000000E+03  0.7546771E-02  0.1280296E+00
         21   -1    0    0  503  502  0.00000000000E+00  0.00000000000E+00  0.21778613661E+03  0.21778613661E+03  0.00000000000E+00 0. -1.
         21   -1    0    0  501  503 -0.00000000000E+00 -0.00000000000E+00 -0.17919838564E+03  0.17919838564E+03  0.00000000000E+00 0. -1.
          6    1    1    2  501    0 -0.94106169309E+02  0.10943439116E+01  0.37037561776E+01  0.19697686793E+03  0.17300000000E+03 0. -1.
         -6    1    1    2    0  502  0.94106169309E+02 -0.10943439116E+01  0.34883994789E+02  0.20000765431E+03  0.17300000000E+03 0. -1.
</event>
<event>
 4    1  0.5712137E+000  0.1000000E+03  0.7546771E-02  0.1280296E+00
         21   -1    0    0  503  502  0.00000000000E+00  0.00000000000E+00  0.10918742602E+03  0.10918742602E+03  0.00000000000E+00 0. -1.
         21   -1    0    0  501  503 -0.00000000000E+00 -0.00000000000E+00 -0.13748410334E+04  0.13748410334E+04  0.00000000000E+00 0. -1.
          6    1    1    2  501    0  0.22904807446E+03  0.11917663036E+02 -0.11306933623E+04  0.11666197027E+04  0.17300000000E+03 0. -1.
         -6    1    1    2    0  502 -0.22904807446E+03 -0.11917663036E+02 -0.13496024505E+03  0.31740875673E+03  0.17300000000E+03 0. -1.
</event>
<event>
 4    1  0.5712137E+000  0.1000000E+03  0.7546771E-02  0.1280296E+00
         21   -1    0    0  501  502  0.00000000000E+00  0.00000000000E+00  0.86375390973E+03  0.86375390973E+03  0.00000000000E+00 0.  1.
         21   -1    0    0  502  503 -0.00000000000E+00 -0.00000000000E+00 -0.13113581677E+03  0.13113581677E+03  0.00000000000E+00 0.  1.
          6    1    1    2  501    0 -0.17193077264E+03  0.13189923296E+03  0.64823522312E+03  0.70505000017E+03  0.17300000000E+03 0.  1.
         -6    1    1    2    0  503  0.17193077264E+03 -0.13189923296E+03  0.84382869835E+02  0.28983972633E+03  0.17300000000E+03 0.  1.
</event>
<event>
 4    1  0.5712137E+000  0.1000000E+03  0.7546771E-02  0.1280296E+00
         21   -1    0    0  501  502  0.00000000000E+00  0.00000000000E+00  0.45037959701E+03  0.45037959701E+03  0.00000000000E+00 0.  1.
         21   -1    0    0  502  503 -0.00000000000E+00 -0.00000000000E+00 -0.81845622157E+02  0.81845622157E+02  0.00000000000E+00 0.  1.
          6    1    1    2  501    0  0.28350609429E+02 -0.64044583077E+02  0.24667199737E+03  0.30932432811E+03  0.17300000000E+03 0.  1.
         -6    1    1    2    0  503 -0.28350609429E+02  0.64044583077E+02  0.12186197749E+03  0.22290089106E+03  0.17300000000E+03 0.  1.
</event>
<event>
 4    1  0.5712137E+000  0.1000000E+03  0.7546771E-02  0.1280296E+00
         21   -1    0    0  501  502  0.00000000000E+00  0.00000000000E+00  0.47997495680E+02  0.47997495680E+02  0.00000000000E+00 0.  1.
         21   -1    0    0  502  503 -0.00000000000E+00 -0.00000000000E+00 -0.79071039087E+03  0.79071039087E+03  0.00000000000E+00 0.  1.
          6    1    1    2  501    0  0.43114448003E+02  0.39424149126E+02 -0.51751127147E+03  0.54878049825E+03  0.17300000000E+03 0.  1.
         -6    1    1    2    0  503 -0.43114448003E+02 -0.39424149126E+02 -0.22520162373E+03  0.28992738831E+03  0.17300000000E+03 0.  1.
</event>
<event>
 4    1  0.5712137E+000  0.1000000E+03  0.7546771E-02  0.1280296E+00
         21   -1    0    0  501  502  0.00000000000E+00  0.00000000000E+00  0.46308860310E+03  0.46308860310E+03  0.00000000000E+00 0.  1.
         21   -1    0    0  502  503 -0.00000000000E+00 -0.00000000000E+00 -0.18860347855E+03  0.18860347855E+03  0.00000000000E+00 0.  1.
          6    1    1    2  501    0 -0.40499382528E+02  0.72642773515E+02  0.38499915565E+03  0.43019823614E+03  0.17300000000E+03 0.  1.
         -6    1    1    2    0  503  0.40499382528E+02 -0.72642773515E+02 -0.11051403110E+03  0.22149384551E+03  0.17300000000E+03 0.  1.
</event>
<event>
 4    1  0.5712137E+000  0.1000000E+03  0.7546771E-02  0.1280296E+00
         21   -1    0    0  503  502  0.00000000000E+00  0.00000000000E+00  0.14972287331E+04  0.14972287331E+04  0.00000000000E+00 0.  1.
         21   -1    0    0  501  503 -0.00000000000E+00 -0.00000000000E+00 -0.95290107232E+02  0.95290107232E+02  0.00000000000E+00 0.  1.
          6    1    1    2  501    0 -0.11535028138E+03  0.70043498181E+02  0.52824373928E+02  0.22567940432E+03  0.17300000000E+03 0.  1.
         -6    1    1    2    0  502  0.11535028138E+03 -0.70043498181E+02  0.13491142520E+04  0.13668394360E+04  0.17300000000E+03 0.  1.
</event>
<event>
 4    1  0.5712137E+000  0.1000000E+03  0.7546771E-02  0.1280296E+00
         21   -1    0    0  501  502  0.00000000000E+00  0.00000000000E+00  0.38211050020E+03  0.38211050020E+03  0.00000000000E+00 0. -1.
         21   -1    0    0  502  503 -0.00000000000E+00 -0.00000000000E+00 -0.10050980317E+03  0.10050980317E+03  0.00000000000E+00 0. -1.
          6    1    1    2  501    0  0.62584541208E+01 -0.63686823557E+02  0.22230770329E+03  0.28886829989E+03  0.17300000000E+03 0. -1.
         -6    1    1    2    0  503 -0.62584541208E+01  0.63686823557E+02  0.59292993750E+02  0.19375200348E+03  0.17300000000E+03 0. -1.
</event>
<event>
 4    1  0.5712137E+000  0.1000000E+03  0.7546771E-02  0.1280296E+00
         21   -1    0    0  503  502  0.00000000000E+00  0.00000000000E+00  0.40356023185E+03  0.40356023185E+03  0.00000000000E+00 0.  1.
         21   -1    0    0  501  503 -0.00000000000E+00 -0.00000000000E+00 -0.11829132468E+03  0.11829132468E+03  0.00000000000E+00 0.  1.
          6    1    1    2  501    0  0.43599121810E+02  0.85778661144E+02  0.32210155261E+02  0.20056259929E+03  0.17300000000E+03 0.  1.
         -6    1    1    2    0  502 -0.43599121810E+02 -0.85778661144E+02  0.25305875191E+03  0.32128895725E+03  0.17300000000E+03 0.  1.
</event>
<event>
 4    1  0.5712137E+000  0.1000000E+03  0.7546771E-02  0.1280296E+00
         21   -1    0    0  503  502  0.00000000000E+00  0.00000000000E+00  0.28955985062E+03  0.28955985062E+03  0.00000000000E+00 0.  1.
         21   -1    0    0  501  503 -0.00000000000E+00 -0.00000000000E+00 -0.18729848604E+03  0.18729848604E+03  0.00000000000E+00 0.  1.
          6    1    1    2  501    0 -0.91578231173E+02 -0.10278381635E+03  0.12604481131E+03  0.25449436101E+03  0.17300000000E+03 0.  1.
         -6    1    1    2    0  502  0.91578231173E+02  0.10278381635E+03 -0.23783446728E+02  0.22236397565E+03  0.17300000000E+03 0.  1.
</event>
<event>
 4    1  0.5712137E+000  0.1000000E+03  0.7546771E-02  0.1280296E+00
         21   -1    0    0  503  502  0.00000000000E+00  0.00000000000E+00  0.44238700860E+03  0.44238700860E+03  0.00000000000E+00 0.  1.
         21   -1    0    0  501  503 -0.00000000000E+00 -0.00000000000E+00 -0.11793652087E+04  0.11793652087E+04  0.00000000000E+00 0.  1.
          6    1    1    2  501    0 -0.16194664630E+02 -0.39695650783E+03 -0.10172474589E+04  0.11056935059E+04  0.17300000000E+03 0.  1.
         -6    1    1    2    0  502  0.16194664630E+02  0.39695650783E+03  0.28026925877E+03  0.51605871147E+03  0.17300000000E+03 0.  1.
</event>
<event>
 4    1  0.5712137E+000  0.1000000E+03  0.7546771E-02  0.1280296E+00
         21   -1    0    0  503  502  0.00000000000E+00  0.00000000000E+00  0.16429706576E+03  0.16429706576E+03  0.00000000000E+00 0.  1.
         21   -1    0    0  501  503 -0.00000000000E+00 -0.00000000000E+00 -0.49453637471E+03  0.49453637471E+03  0.00000000000E+00 0.  1.
          6    1    1    2  501    0  0.64750789520E+02 -0.51089187500E+02 -0.40895958699E+03  0.45164113366E+03  0.17300000000E+03 0.  1.
         -6    1    1    2    0  502 -0.64750789520E+02  0.51089187500E+02  0.78720278041E+02  0.20719230680E+03  0.17300000000E+03 0.  1.
</event>
<event>
 4    1  0.5712137E+000  0.1000000E+03  0.7546771E-02  0.1280296E+00
         21   -1    0    0  503  502  0.00000000000E+00  0.00000000000E+00  0.11233266014E+03  0.11233266014E+03  0.00000000000E+00 0.  1.
         21   -1    0    0  501  503 -0.00000000000E+00 -0.00000000000E+00 -0.14147254962E+04  0.14147254962E+04  0.00000000000E+00 0.  1.
          6    1    1    2  501    0 -0.37370510525E+02 -0.11524666027E+03 -0.12987614496E+04  0.13158224237E+04  0.17300000000E+03 0.  1.
         -6    1    1    2    0  502  0.37370510525E+02  0.11524666027E+03 -0.36313864276E+01  0.21123573260E+03  0.17300000000E+03 0.  1.
</event>
<event>
 4    1  0.5712137E+000  0.1000000E+03  0.7546771E-02  0.1280296E+00
         21   -1    0    0  503  502  0.00000000000E+00  0.00000000000E+00  0.45870905656E+03  0.45870905656E+03  0.00000000000E+00 0.  1.
         21   -1    0    0  501  503 -0.00000000000E+00 -0.00000000000E+00 -0.16558172351E+03  0.16558172351E+03  0.00000000000E+00 0.  1.
          6    1    1    2  501    0 -0.92619782934E+02 -0.76663739123E+02 -0.54675751498E+02  0.21765612991E+03  0.17300000000E+03 0.  1.
         -6    1    1    2    0  502  0.92619782934E+02  0.76663739123E+02  0.34780308455E+03  0.40663465016E+03  0.17300000000E+03 0.  1.
</event>
<event>
 4    1  0.5712137E+000  0.1000000E+03  0.7546771E-02  0.1280296E+00
         21   -1    0    0  503  502  0.00000000000E+00  0.00000000000E+00  0.37819743687E+03  0.37819743687E+03  0.00000000000E+00 0.  1.
         21   -1    0    0  501  503 -0.00000000000E+00 -0.00000000000E+00 -0.30661647557E+03  0.30661647557E+03  0.00000000000E+00 0.  1.
          6    1    1    2  501    0  0.13499960025E+03  0.36964776940E+02 -0.22339133909E+03  0.31531567862E+03  0.17300000000E+03 0.  1.
         -6    1    1    2    0  502 -0.13499960025E+03 -0.36964776940E+02  0.29497230040E+03  0.36949823383E+03  0.17300000000E+03 0.  1.
</event>
<event>
 4    1  0.5712137E+000  0.1000000E+03  0.7546771E-02  0.1280296E+00
         21   -1    0    0  503  502  0.00000000000E+00  0.00000000000E+00  0.27403123343E+03  0.27403123343E+03  0.00000000000E+00 0.  1.
         21   -1    0    0  501  503 -0.00000000000E+00 -0.00000000000E+00 -0.58417002544E+03  0.58417002544E+03  0.00000000000E+00 0.  1.
          6    1    1    2  501    0  0.28387531507E+03 -0.69554256307E+02 -0.38189042646E+03  0.51106974759E+03  0.17300000000E+03 0.  1.
         -6    1    1    2    0  502 -0.28387531507E+03  0.69554256307E+02  0.71751634455E+02  0.34713151128E+03  0.17300000000E+03 0.  1.
</event>
<event>
 4    1  0.5712137E+000  0.1000000E+03  0.7546771E-02  0.1280296E+00
         21   -1    0    0  501  502  0.00000000000E+00  0.00000000000E+00  0.24158165521E+03  0.24158165521E+03  0.00000000000E+00 0. -1.
         21   -1    0    0  502  503 -0.00000000000E+00 -0.00000000000E+00 -0.16941103237E+03  0.16941103237E+03  0.00000000000E+00 0.  1.
          6    1    1    2  501    0 -0.54199014430E+02 -0.40544631512E+02  0.11745078071E+03  0.21978418096E+03  0.17300000000E+03 0. -1.
         -6    1    1    2    0  503  0.54199014430E+02  0.40544631512E+02 -0.45280157858E+02  0.19120850662E+03  0.17300000000E+03 0.  1.
</event>
<event>
 4    1  0.5712137E+000  0.1000000E+03  0.7546771E-02  0.1280296E+00
         21   -1    0    0  501  502  0.00000000000E+00  0.00000000000E+00  0.37654267484E+03  0.37654267484E+03  0.00000000000E+00 0. -1.
         21   -1    0    0  502  503 -0.00000000000E+00 -0.00000000000E+00 -0.34204644375E+03  0.34204644375E+03  0.00000000000E+00 0.  1.
          6    1    1    2  501    0 -0.23886769009E+03 -0.19007381777E+03  0.92702564186E+02  0.36291678795E+03  0.17300000000E+03 0. -1.
         -6    1    1    2    0  503  0.23886769009E+03  0.19007381777E+03 -0.58206333089E+02  0.35567233064E+03  0.17300000000E+03 0.  1.
</event>
<event>
 4    1  0.5712137E+000  0.1000000E+03  0.7546771E-02  0.1280296E+00
         21   -1    0    0  501  502  0.00000000000E+00  0.00000000000E+00  0.23236467722E+03  0.23236467722E+03  0.00000000000E+00 0. -1.
         21   -1    0    0  502  503 -0.00000000000E+00 -0.00000000000E+00 -0.25929488378E+03  0.25929488378E+03  0.00000000000E+00 0.  1.
          6    1    1    2  501    0  0.73689485724E+02  0.39043719347E+02  0.13962878157E+03  0.23744420180E+03  0.17300000000E+03 0. -1.
         -6    1    1    2    0  503 -0.73689485724E+02 -0.39043719347E+02 -0.16655898813E+03  0.25421535920E+03  0.17300000000E+03 0.  1.
</event>
<event>
 4    1  0.5712137E+000  0.1000000E+03  0.7546771E-02  0.1280296E+00
         21   -1    0    0  503  502  0.00000000000E+00  0.00000000000E+00  0.17381561405E+04  0.17381561405E+04  0.00000000000E+00 0.  1.
         21   -1    0    0  501  503 -0.00000000000E+00 -0.00000000000E+00 -0.38321495090E+02  0.38321495090E+02  0.00000000000E+00 0. -1.
          6    1    1    2  501    0  0.25823214679E+02 -0.77026358056E+02  0.25301685246E+03  0.31709056416E+03  0.17300000000E+03 0. -1.
         -6    1    1    2    0  502 -0.25823214679E+02  0.77026358056E+02  0.14468177929E+04  0.14593870714E+04  0.17300000000E+03 0.  1.
</event>
<event>
 4    1  0.5712137E+000  0.1000000E+03  0.7546771E-02  0.1280296E+00
         21   -1    0    0  503  502  0.00000000000E+00  0.00000000000E+00  0.24192281423E+03  0.24192281423E+03  0.00000000000E+00 0.  1.
         21   -1    0    0  501  503 -0.00000000000E+00 -0.00000000000E+00 -0.54813418789E+03  0.54813418789E+03  0.00000000000E+00 0. -1.
          6    1    1    2  501    0 -0.21618866770E+03 -0.17273456647E+03 -0.32836727782E+03  0.46295662825E+03  0.17300000000E+03 0. -1.
         -6    1    1    2    0  502  0.21618866770E+03  0.17273456647E+03  0.22155904158E+02  0.32710037387E+03  0.17300000000E+03 0.  1.
</event>
<event>
 4    1  0.5712137E+000  0.1000000E+03  0.7546771E-02  0.1280296E+00
         21   -1    0    0  501  502  0.00000000000E+00  0.00000000000E+00  0.14294684345E+04  0.14294684345E+04  0.00000000000E+00 0.  1.
         21   -1    0    0  502  503 -0.00000000000E+00 -0.00000000000E+00 -0.41179511146E+02  0.41179511146E+02  0.00000000000E+00 0.  1.
          6    1    1    2  501    0 -0.50976190830E+02  0.15150538757E+02  0.11838501599E+04  0.11976052405E+04  0.17300000000E+03 0.  1.
         -6    1    1    2    0  503  0.50976190830E+02 -0.15150538757E+02  0.20443876344E+03  0.27304270518E+03  0.17300000000E+03 0.  1.
</event>
<event>
 4    1  0.5712137E+000  0.1000000E+03  0.7546771E-02  0.1280296E+00
         21   -1    0    0  501  502  0.00000000000E+00  0.00000000000E+00  0.44344412124E+02  0.44344412124E+02  0.00000000000E+00 0.  1.
         21   -1    0    0  502  503 -0.00000000000E+00 -0.00000000000E+00 -0.73373484065E+03  0.73373484065E+03  0.00000000000E+00 0.  1.
          6    1    1    2  501    0 -0.14481715330E+02 -0.31704838984E+02 -0.26419452647E+03  0.31771475369E+03  0.17300000000E+03 0.  1.
         -6    1    1    2    0  503  0.14481715330E+02  0.31704838984E+02 -0.42519590205E+03  0.46036449909E+03  0.17300000000E+03 0.  1.
</event>
<event>
 4    1  0.5712137E+000  0.1000000E+03  0.7546771E-02  0.1280296E+00
         21   -1    0    0  501  502  0.00000000000E+00  0.00000000000E+00  0.47284909566E+03  0.47284909566E+03  0.00000000000E+00 0.  1.
         21   -1    0    0  502  503 -0.00000000000E+00 -0.00000000000E+00 -0.86334369186E+02  0.86334369186E+02  0.00000000000E+00 0.  1.
          6    1    1    2  501    0  0.46042762781E+02  0.18960053290E+01  0.32285162600E+03  0.36916893592E+03  0.17300000000E+03 0.  1.
         -6    1    1    2    0  503 -0.46042762781E+02 -0.18960053290E+01  0.63663100480E+02  0.19001452893E+03  0.17300000000E+03 0.  1.
</event>
<event>
 4    1  0.5712137E+000  0.1000000E+03  0.7546771E-02  0.1280296E+00
         21   -1    0    0  503  502  0.00000000000E+00  0.00000000000E+00  0.10959008082E+04  0.10959008082E+04  0.00000000000E+00 0.  1.
         21   -1    0    0  501  503 -0.00000000000E+00 -0.00000000000E+00 -0.54850013605E+02  0.54850013605E+02  0.00000000000E+00 0.  1.
          6    1    1    2  501    0 -0.11827204741E+03 -0.33640275621E+02  0.23251543584E+03  0.31482117661E+03  0.17300000000E+03 0.  1.
         -6    1    1    2    0  502  0.11827204741E+03  0.33640275621E+02  0.80853535872E+03  0.83592964515E+03  0.17300000000E+03 0.  1.
</event>
<event>
 4    1  0.5712137E+000  0.1000000E+03  0.7546771E-02  0.1280296E+00
         21   -1    0    0  503  502  0.00000000000E+00  0.00000000000E+00  0.12270652863E+04  0.12270652863E+04  0.00000000000E+00 0.  1.
         21   -1    0    0  501  503 -0.00000000000E+00 -0.00000000000E+00 -0.86892621995E+02  0.86892621995E+02  0.00000000000E+00 0.  1.
          6    1    1    2  501    0 -0.73218736270E+02 -0.24922788081E+03  0.37690998490E+03  0.48935228274E+03  0.17300000000E+03 0.  1.
         -6    1    1    2    0  502  0.73218736270E+02  0.24922788081E+03  0.76326267943E+03  0.82460562557E+03  0.17300000000E+03 0.  1.
</event>
<event>
 4    1  0.5712137E+000  0.1000000E+03  0.7546771E-02  0.1280296E+00
         21   -1    0    0  501  502  0.00000000000E+00  0.00000000000E+00  0.66387184327E+03  0.66387184327E+03  0.00000000000E+00 0.  1.
         21   -1    0    0  502  503 -0.00000000000E+00 -0.00000000000E+00 -0.11156615807E+03  0.11156615807E+03  0.00000000000E+00 0.  1.
          6    1    1    2  501    0 -0.12404347055E+03 -0.66973038679E+02  0.49807161483E+03  0.54578063725E+03  0.17300000000E+03 0.  1.
         -6    1    1    2    0  503  0.12404347055E+03  0.66973038679E+02  0.54234070374E+02  0.22965736410E+03  0.17300000000E+03 0.  1.
</event>
<event>
 4    1  0.5712137E+000  0.1000000E+03  0.7546771E-02  0.1280296E+00
         21   -1    0    0  501  502  0.00000000000E+00  0.00000000000E+00  0.65082160079E+02  0.65082160079E+02  0.00000000000E+00 0.  1.
         21   -1    0    0  502  503 -0.00000000000E+00 -0.00000000000E+00 -0.59907435286E+03  0.59907435286E+03  0.00000000000E+00 0.  1.
          6    1    1    2  501    0  0.86890726839E+02  0.36249933794E+02 -0.24345137198E+03  0.31314793090E+03  0.17300000000E+03 0.  1.
         -6    1    1    2    0  503 -0.86890726839E+02 -0.36249933794E+02 -0.29054082080E+03  0.35100858204E+03  0.17300000000E+03 0.  1.
</event>
<event>
 4    1  0.5712137E+000  0.1000000E+03  0.7546771E-02  0.1280296E+00
         21   -1    0    0  503  502  0.00000000000E+00  0.00000000000E+00  0.16850181783E+03  0.16850181783E+03  0.00000000000E+00 0. -1.
         21   -1    0    0  501  503 -0.00000000000E+00 -0.00000000000E+00 -0.56132630285E+03  0.56132630285E+03  0.00000000000E+00 0. -1.
          6    1    1    2  501    0 -0.98985761800E+02  0.54301492668E+02 -0.46674616955E+03  0.51041925898E+03  0.17300000000E+03 0.  1.
         -6    1    1    2    0  502  0.98985761800E+02 -0.54301492668E+02  0.73921684533E+02  0.21940886169E+03  0.17300000000E+03 0.  1.
</event>
<event>
 4    1  0.5712137E+000  0.1000000E+03  0.7546771E-02  0.1280296E+00
         21   -1    0    0  503  502  0.00000000000E+00  0.00000000000E+00  0.19910161186E+04  0.19910161186E+04  0.00000000000E+00 0. -1.
         21   -1    0    0  501  503 -0.00000000000E+00 -0.00000000000E+00 -0.39786309239E+02  0.39786309239E+02  0.00000000000E+00 0. -1.
          6    1    1    2  501    0  0.13919647851E+03 -0.16569912727E+03  0.11543456579E+04  0.11871287876E+04  0.17300000000E+03 0. -1.
         -6    1    1    2    0  502 -0.13919647851E+03  0.16569912727E+03  0.79688415145E+03  0.84367364024E+03  0.17300000000E+03 0. -1.
</event>
<event>
 4    1  0.5712137E+000  0.1000000E+03  0.7546771E-02  0.1280296E+00
         21   -1    0    0  503  502  0.00000000000E+00  0.00000000000E+00  0.42385224373E+03  0.42385224373E+03  0.00000000000E+00 0. -1.
         21   -1    0    0  501  503 -0.00000000000E+00 -0.00000000000E+00 -0.41833120302E+03  0.41833120302E+03  0.00000000000E+00 0. -1.
          6    1    1    2  501    0 -0.18285857117E+03  0.17242193269E+03 -0.28744399116E+03  0.41918925079E+03  0.17300000000E+03 0. -1.
         -6    1    1    2    0  502  0.18285857117E+03 -0.17242193269E+03  0.29296503186E+03  0.42299419596E+03  0.17300000000E+03 0. -1.
</event>
<event>
 4    1  0.5712137E+000  0.1000000E+03  0.7546771E-02  0.1280296E+00
         21   -1    0    0  503  502  0.00000000000E+00  0.00000000000E+00  0.37550073969E+03  0.37550073969E+03  0.00000000000E+00 0. -1.
         21   -1    0    0  501  503 -0.00000000000E+00 -0.00000000000E+00 -0.20987185760E+03  0.20987185760E+03  0.00000000000E+00 0. -1.
          6    1    1    2  501    0 -0.14404609439E+03  0.14775956025E+03  0.16554155315E+03  0.31609361078E+03  0.17300000000E+03 0. -1.
         -6    1    1    2    0  502  0.14404609439E+03 -0.14775956025E+03  0.87328941122E-01  0.26927898652E+03  0.17300000000E+03 0. -1.
</event>
<event>
 4    1  0.5712137E+000  0.1000000E+03  0.7546771E-02  0.1280296E+00
         21   -1    0    0  501  502  0.00000000000E+00  0.00000000000E+00  0.22384591772E+03  0.22384591772E+03  0.00000000000E+00 0.  1.
         21   -1    0    0  502  503 -0.00000000000E+00 -0.00000000000E+00 -0.54824407507E+03  0.54824407507E+03  0.00000000000E+00 0.  1.
          6    1    1    2  501    0  0.25421116701E+03  0.16311032265E+03 -0.20579241647E+03  0.40436099399E+03  0.17300000000E+03 0.  1.
         -6    1    1    2    0  503 -0.25421116701E+03 -0.16311032265E+03 -0.11860574089E+03  0.36772899880E+03  0.17300000000E+03 0.  1.
</event>
<event>
 4    1  0.5712137E+000  0.1000000E+03  0.7546771E-02  0.1280296E+00
         21   -1    0    0  503  502  0.00000000000E+00  0.00000000000E+00  0.25416053972E+03  0.25416053972E+03  0.00000000000E+00 0.  1.
         21   -1    0    0  501  503 -0.00000000000E+00 -0.00000000000E+00 -0.15186431808E+03  0.15186431808E+03  0.00000000000E+00 0.  1.
          6    1    1    2  501    0  0.74854857456E+02 -0.68102947320E+01 -0.56315651129E+01  0.18870703306E+03  0.17300000000E+03 0.  1.
         -6    1    1    2    0  502 -0.74854857456E+02  0.68102947320E+01  0.10792778676E+03  0.21731782475E+03  0.17300000000E+03 0.  1.
</event>
<event>
 4    1  0.5712137E+000  0.1000000E+03  0.7546771E-02  0.1280296E+00
         21   -1    0    0  503  502  0.00000000000E+00  0.00000000000E+00  0.11367765957E+04  0.11367765957E+04  0.00000000000E+00 0.  1.
         21   -1    0    0  501  503 -0.00000000000E+00 -0.00000000000E+00 -0.59747954862E+02  0.59747954862E+02  0.00000000000E+00 0.  1.
          6    1    1    2  501    0 -0.57007174822E+02  0.10956019593E+03  0.19236222286E+03  0.28668009923E+03  0.17300000000E+03 0.  1.
         -6    1    1    2    0  502  0.57007174822E+02 -0.10956019593E+03  0.88466641797E+03  0.90984445132E+03  0.17300000000E+03 0.  1.
</event>
<event>
 4    1  0.5712137E+000  0.1000000E+03  0.7546771E-02  0.1280296E+00
         21   -1    0    0  503  502  0.00000000000E+00  0.00000000000E+00  0.22993362864E+03  0.22993362864E+03  0.00000000000E+00 0. -1.
         21   -1    0    0  501  503 -0.00000000000E+00 -0.00000000000E+00 -0.41470880328E+03  0.41470880328E+03  0.00000000000E+00 0. -1.
          6    1    1    2  501    0 -0.20072921918E+03  0.71791188134E+02 -0.23993006927E+03  0.36461161839E+03  0.17300000000E+03 0. -1.
         -6    1    1    2    0  502  0.20072921918E+03 -0.71791188134E+02  0.55154894621E+02  0.28003081353E+03  0.17300000000E+03 0. -1.
</event>
<event>
 4    1  0.5712137E+000  0.1000000E+03  0.7546771E-02  0.1280296E+00
         21   -1    0    0  501  502  0.00000000000E+00  0.00000000000E+00  0.28820025254E+03  0.28820025254E+03  0.00000000000E+00 0.  1.
         21   -1    0    0  502  503 -0.00000000000E+00 -0.00000000000E+00 -0.14498734561E+03  0.14498734561E+03  0.00000000000E+00 0.  1.
          6    1    1    2  501    0  0.23791994336E+02  0.79420556128E+02  0.14640039449E+03  0.24132086366E+03  0.17300000000E+03 0.  1.
         -6    1    1    2    0  503 -0.23791994336E+02 -0.79420556128E+02 -0.31874875552E+01  0.19186673450E+03  0.17300000000E+03 0.  1.
</event>
<event>
 4    1  0.5712137E+000  0.1000000E+03  0.7546771E-02  0.1280296E+00
         21   -1    0    0  501  502  0.00000000000E+00  0.00000000000E+00  0.23641660868E+03  0.23641660868E+03  0.00000000000E+00 0.  1.
         21   -1    0    0  502  503 -0.00000000000E+00 -0.00000000000E+00 -0.34935185004E+03  0.34935185004E+03  0.00000000000E+00 0.  1.
          6    1    1    2  501    0  0.32910809084E+02 -0.15336548314E+03  0.11424488394E+03  0.25997112586E+03  0.17300000000E+03 0.  1.
         -6    1    1    2    0  503 -0.32910809084E+02  0.15336548314E+03 -0.22718012529E+03  0.32579733286E+03  0.17300000000E+03 0.  1.
</event>
<event>
 4    1  0.5712137E+000  0.1000000E+03  0.7546771E-02  0.1280296E+00
         21   -1    0    0  501  502  0.00000000000E+00  0.00000000000E+00  0.11423914395E+04  0.11423914395E+04  0.00000000000E+00 0.  1.
         21   -1    0    0  502  503 -0.00000000000E+00 -0.00000000000E+00 -0.36349986601E+02  0.36349986601E+02  0.00000000000E+00 0.  1.
          6    1    1    2  501    0  0.85598448221E+01 -0.26178101687E+02  0.85412057058E+03  0.87189994440E+03  0.17300000000E+03 0. -1.
         -6    1    1    2    0  503 -0.85598448221E+01  0.26178101687E+02  0.25192088236E+03  0.30684148175E+03  0.17300000000E+03 0. -1.
</event>
<event>
 4    1  0.5712137E+000  0.1000000E+03  0.7546771E-02  0.1280296E+00
         21   -1    0    0  501  502  0.00000000000E+00  0.00000000000E+00  0.55195711619E+02  0.55195711619E+02  0.00000000000E+00 0.  1.
         21   -1    0    0  502  503 -0.00000000000E+00 -0.00000000000E+00 -0.81106518155E+03  0.81106518155E+03  0.00000000000E+00 0.  1.
          6    1    1    2  501    0 -0.46778826572E+02  0.62865804345E+02 -0.18701682714E+03  0.26654204472E+03  0.17300000000E+03 0. -1.
         -6    1    1    2    0  503  0.46778826572E+02 -0.62865804345E+02 -0.56885264280E+03  0.59971884845E+03  0.17300000000E+03 0. -1.
</event>
<event>
 4    1  0.5712137E+000  0.1000000E+03  0.7546771E-02  0.1280296E+00
         21   -1    0    0  501  502  0.00000000000E+00  0.00000000000E+00  0.47291555915E+03  0.47291555915E+03  0.00000000000E+00 0.  1.
         21   -1    0    0  502  503 -0.00000000000E+00 -0.00000000000E+00 -0.10346107172E+03  0.10346107172E+03  0.00000000000E+00 0.  1.
          6    1    1    2  501    0 -0.12701299215E+03  0.22946611438E+02  0.24775773928E+03  0.32859054236E+03  0.17300000000E+03 0. -1.
         -6    1    1    2    0  503  0.12701299215E+03 -0.22946611438E+02  0.12169674814E+03  0.24778608851E+03  0.17300000000E+03 0. -1.
</event>
<event>
 4    1  0.5712137E+000  0.1000000E+03  0.7546771E-02  0.1280296E+00
         21   -1    0    0  501  502  0.00000000000E+00  0.00000000000E+00  0.57223047997E+03  0.57223047997E+03  0.00000000000E+00 0.  1.
         21   -1    0    0  502  503 -0.00000000000E+00 -0.00000000000E+00 -0.12015865773E+03  0.12015865773E+03  0.00000000000E+00 0.  1.
          6    1    1    2  501    0  0.80896047972E+02 -0.43341995555E+02  0.45625546323E+03  0.49650855671E+03  0.17300000000E+03 0. -1.
         -6    1    1    2    0  503 -0.80896047972E+02  0.43341995555E+02 -0.41836409862E+01  0.19588058099E+03  0.17300000000E+03 0. -1.
</event>
<event>
 4    1  0.5712137E+000  0.1000000E+03  0.7546771E-02  0.1280296E+00
         21   -1    0    0  501  502  0.00000000000E+00  0.00000000000E+00  0.70408648462E+03  0.70408648462E+03  0.00000000000E+00 0.  1.
         21   -1    0    0  502  503 -0.00000000000E+00 -0.00000000000E+00 -0.99189638540E+02  0.99189638540E+02  0.00000000000E+00 0.  1.
          6    1    1    2  501    0 -0.18854897105E+03  0.26645263023E+02  0.21064901272E+03  0.33250968570E+03  0.17300000000E+03 0. -1.
         -6    1    1    2    0  503  0.18854897105E+03 -0.26645263023E+02  0.39424783336E+03  0.47076643746E+03  0.17300000000E+03 0. -1.
</event>
<event>
 4    1  0.5712137E+000  0.1000000E+03  0.7546771E-02  0.1280296E+00
         21   -1    0    0  501  502  0.00000000000E+00  0.00000000000E+00  0.87674037317E+02  0.87674037317E+02  0.00000000000E+00 0.  1.
         21   -1    0    0  502  503 -0.00000000000E+00 -0.00000000000E+00 -0.39654079156E+03  0.39654079156E+03  0.00000000000E+00 0. -1.
          6    1    1    2  501    0 -0.38953248802E+02  0.27863873553E+02 -0.88946927111E+02  0.20033548583E+03  0.17300000000E+03 0. -1.
         -6    1    1    2    0  503  0.38953248802E+02 -0.27863873553E+02 -0.21991982714E+03  0.28387934305E+03  0.17300000000E+03 0. -1.
</event>
<event>
 4    1  0.5712137E+000  0.1000000E+03  0.7546771E-02  0.1280296E+00
         21   -1    0    0  501  502  0.00000000000E+00  0.00000000000E+00  0.24665226451E+03  0.24665226451E+03  0.00000000000E+00 0.  1.
         21   -1    0    0  502  503 -0.00000000000E+00 -0.00000000000E+00 -0.81720154047E+03  0.81720154047E+03  0.00000000000E+00 0. -1.
          6    1    1    2  501    0  0.87995352478E+02 -0.85796618227E+02  0.18347992159E+03  0.28053185806E+03  0.17300000000E+03 0. -1.
         -6    1    1    2    0  503 -0.87995352478E+02  0.85796618227E+02 -0.75402919756E+03  0.78332194692E+03  0.17300000000E+03 0. -1.
</event>
<event>
 4    1  0.5712137E+000  0.1000000E+03  0.7546771E-02  0.1280296E+00
         21   -1    0    0  501  502  0.00000000000E+00  0.00000000000E+00  0.55370581186E+03  0.55370581186E+03  0.00000000000E+00 0.  1.
         21   -1    0    0  502  503 -0.00000000000E+00 -0.00000000000E+00 -0.20249613380E+03  0.20249613380E+03  0.00000000000E+00 0. -1.
          6    1    1    2  501    0 -0.17093273158E+03 -0.13885962066E+03  0.38287560920E+03  0.47436560277E+03  0.17300000000E+03 0. -1.
         -6    1    1    2    0  503  0.17093273158E+03  0.13885962066E+03 -0.31665931137E+02  0.28183634288E+03  0.17300000000E+03 0. -1.
</event>
<event>
 4    1  0.5712137E+000  0.1000000E+03  0.7546771E-02  0.1280296E+00
         21   -1    0    0  501  502  0.00000000000E+00  0.00000000000E+00  0.39520201363E+03  0.39520201363E+03  0.00000000000E+00 0.  1.
         21   -1    0    0  502  503 -0.00000000000E+00 -0.00000000000E+00 -0.12445489991E+04  0.12445489991E+04  0.00000000000E+00 0. -1.
          6    1    1    2  501    0  0.67338699012E+03  0.31813304791E+02 -0.32372062705E+03  0.76758463325E+03  0.17300000000E+03 0. -1.
         -6    1    1    2    0  503 -0.67338699012E+03 -0.31813304791E+02 -0.52562635839E+03  0.87216637946E+03  0.17300000000E+03 0. -1.
</event>
<event>
 4    1  0.5712137E+000  0.1000000E+03  0.7546771E-02  0.1280296E+00
         21   -1    0    0  501  502  0.00000000000E+00  0.00000000000E+00  0.26086350200E+03  0.26086350200E+03  0.00000000000E+00 0.  1.
         21   -1    0    0  502  503 -0.00000000000E+00 -0.00000000000E+00 -0.18468562372E+04  0.18468562372E+04  0.00000000000E+00 0. -1.
          6    1    1    2  501    0 -0.44867746107E+03 -0.10037546943E+03 -0.48465674000E+02  0.49362396669E+03  0.17300000000E+03 0. -1.
         -6    1    1    2    0  503  0.44867746107E+03  0.10037546943E+03 -0.15375270612E+04  0.16140957725E+04  0.17300000000E+03 0. -1.
</event>
<event>
 4    1  0.5712137E+000  0.1000000E+03  0.7546771E-02  0.1280296E+00
         21   -1    0    0  501  502  0.00000000000E+00  0.00000000000E+00  0.57621621544E+03  0.57621621544E+03  0.00000000000E+00 0.  1.
         21   -1    0    0  502  503 -0.00000000000E+00 -0.00000000000E+00 -0.77951118069E+02  0.77951118069E+02  0.00000000000E+00 0. -1.
          6    1    1    2  501    0 -0.38083426366E+02 -0.11024369905E+03  0.30654054857E+03  0.37081009757E+03  0.17300000000E+03 0. -1.
         -6    1    1    2    0  503  0.38083426366E+02  0.11024369905E+03  0.19172454880E+03  0.28335723594E+03  0.17300000000E+03 0.  1.
</event>
<event>
 4    1  0.5712137E+000  0.1000000E+03  0.7546771E-02  0.1280296E+00
         21   -1    0    0  501  502  0.00000000000E+00  0.00000000000E+00  0.13053267273E+03  0.13053267273E+03  0.00000000000E+00 0.  1.
         21   -1    0    0  502  503 -0.00000000000E+00 -0.00000000000E+00 -0.26773383140E+03  0.26773383140E+03  0.00000000000E+00 0. -1.
          6    1    1    2  501    0  0.37832617595E+02  0.56336245363E+02 -0.46928647729E+02  0.19166736152E+03  0.17300000000E+03 0. -1.
         -6    1    1    2    0  503 -0.37832617595E+02 -0.56336245363E+02 -0.90272510945E+02  0.20659914261E+03  0.17300000000E+03 0.  1.
</event>
<event>
 4    1  0.5712137E+000  0.1000000E+03  0.7546771E-02  0.1280296E+00
         21   -1    0    0  501  502  0.00000000000E+00  0.00000000000E+00  0.12800250668E+03  0.12800250668E+03  0.00000000000E+00 0. -1.
         21   -1    0    0  502  503 -0.00000000000E+00 -0.00000000000E+00 -0.33082782831E+03  0.33082782831E+03  0.00000000000E+00 0. -1.
          6    1    1    2  501    0  0.96593070903E+02 -0.26237258999E+02 -0.46806336381E+02  0.20527651651E+03  0.17300000000E+03 0. -1.
         -6    1    1    2    0  503 -0.96593070903E+02  0.26237258999E+02 -0.15601898524E+03  0.25355381847E+03  0.17300000000E+03 0. -1.
</event>
<event>
 4    1  0.5712137E+000  0.1000000E+03  0.7546771E-02  0.1280296E+00
         21   -1    0    0  501  502  0.00000000000E+00  0.00000000000E+00  0.29968649317E+03  0.29968649317E+03  0.00000000000E+00 0. -1.
         21   -1    0    0  502  503 -0.00000000000E+00 -0.00000000000E+00 -0.16704688381E+03  0.16704688381E+03  0.00000000000E+00 0. -1.
          6    1    1    2  501    0  0.21777512094E+02 -0.44783103061E+02  0.20489778384E+03  0.27274876384E+03  0.17300000000E+03 0. -1.
         -6    1    1    2    0  503 -0.21777512094E+02  0.44783103061E+02 -0.72258174491E+02  0.19398461314E+03  0.17300000000E+03 0. -1.
</event>
<event>
 4    1  0.5712137E+000  0.1000000E+03  0.7546771E-02  0.1280296E+00
         21   -1    0    0  501  502  0.00000000000E+00  0.00000000000E+00  0.26277331251E+03  0.26277331251E+03  0.00000000000E+00 0. -1.
         21   -1    0    0  502  503 -0.00000000000E+00 -0.00000000000E+00 -0.14354774696E+03  0.14354774696E+03  0.00000000000E+00 0. -1.
          6    1    1    2  501    0  0.55281288944E+02  0.62001180827E+02  0.90842968411E+02  0.21232430911E+03  0.17300000000E+03 0. -1.
         -6    1    1    2    0  503 -0.55281288944E+02 -0.62001180827E+02  0.28382597137E+02  0.19399675036E+03  0.17300000000E+03 0. -1.
</event>
<event>
 4    1  0.5712137E+000  0.1000000E+03  0.7546771E-02  0.1280296E+00
         21   -1    0    0  501  502  0.00000000000E+00  0.00000000000E+00  0.18318345497E+03  0.18318345497E+03  0.00000000000E+00 0.  1.
         21   -1    0    0  502  503 -0.00000000000E+00 -0.00000000000E+00 -0.60239995329E+03  0.60239995329E+03  0.00000000000E+00 0.  1.
          6    1    1    2  501    0 -0.11482682250E+03  0.20969432873E+02  0.95990279779E+02  0.22971297328E+03  0.17300000000E+03 0.  1.
         -6    1    1    2    0  503  0.11482682250E+03 -0.20969432873E+02 -0.51520677810E+03  0.55587043498E+03  0.17300000000E+03 0.  1.
</event>
<event>
 4    1  0.5712137E+000  0.1000000E+03  0.7546771E-02  0.1280296E+00
         21   -1    0    0  501  502  0.00000000000E+00  0.00000000000E+00  0.84861100819E+03  0.84861100819E+03  0.00000000000E+00 0.  1.
         21   -1    0    0  502  503 -0.00000000000E+00 -0.00000000000E+00 -0.77362660286E+02  0.77362660286E+02  0.00000000000E+00 0.  1.
          6    1    1    2  501    0 -0.12702315147E+03  0.81030555832E+02  0.59181547299E+03  0.63472465373E+03  0.17300000000E+03 0.  1.
         -6    1    1    2    0  503  0.12702315147E+03 -0.81030555832E+02  0.17943287492E+03  0.29124901474E+03  0.17300000000E+03 0.  1.
</event>
<event>
 4    1  0.5712137E+000  0.1000000E+03  0.7546771E-02  0.1280296E+00
         21   -1    0    0  503  502  0.00000000000E+00  0.00000000000E+00  0.20851671187E+04  0.20851671187E+04  0.00000000000E+00 0.  1.
         21   -1    0    0  501  503 -0.00000000000E+00 -0.00000000000E+00 -0.26186765082E+02  0.26186765082E+02  0.00000000000E+00 0.  1.
          6    1    1    2  501    0  0.34860288909E+02  0.12273832778E+03  0.61556103073E+03  0.65201558218E+03  0.17300000000E+03 0.  1.
         -6    1    1    2    0  502 -0.34860288909E+02 -0.12273832778E+03  0.14434193229E+04  0.14593383016E+04  0.17300000000E+03 0.  1.
</event>
<event>
 4    1  0.5712137E+000  0.1000000E+03  0.7546771E-02  0.1280296E+00
         21   -1    0    0  503  502  0.00000000000E+00  0.00000000000E+00  0.25262011977E+03  0.25262011977E+03  0.00000000000E+00 0.  1.
         21   -1    0    0  501  503 -0.00000000000E+00 -0.00000000000E+00 -0.16990761209E+03  0.16990761209E+03  0.00000000000E+00 0.  1.
          6    1    1    2  501    0  0.10563142168E+03 -0.36139137759E+02  0.17901446036E+02  0.20667243719E+03  0.17300000000E+03 0.  1.
         -6    1    1    2    0  502 -0.10563142168E+03  0.36139137759E+02  0.64811061652E+02  0.21585529467E+03  0.17300000000E+03 0.  1.
</event>
<event>
 4    1  0.5712137E+000  0.1000000E+03  0.7546771E-02  0.1280296E+00
         21   -1    0    0  503  502  0.00000000000E+00  0.00000000000E+00  0.18649606516E+04  0.18649606516E+04  0.00000000000E+00 0.  1.
         21   -1    0    0  501  503 -0.00000000000E+00 -0.00000000000E+00 -0.30450686288E+02  0.30450686288E+02  0.00000000000E+00 0.  1.
          6    1    1    2  501    0  0.64118617364E+01 -0.47866095957E+02  0.29442190462E+03  0.34488481125E+03  0.17300000000E+03 0.  1.
         -6    1    1    2    0  502 -0.64118617364E+01  0.47866095957E+02  0.15400880607E+04  0.15505265266E+04  0.17300000000E+03 0.  1.
</event>
<event>
 4    1  0.5712137E+000  0.1000000E+03  0.7546771E-02  0.1280296E+00
         21   -1    0    0  503  502  0.00000000000E+00  0.00000000000E+00  0.13013533536E+03  0.13013533536E+03  0.00000000000E+00 0. -1.
         21   -1    0    0  501  503 -0.00000000000E+00 -0.00000000000E+00 -0.90359898299E+03  0.90359898299E+03  0.00000000000E+00 0.  1.
          6    1    1    2  501    0 -0.79778279842E+02 -0.37286459328E+02 -0.81280478281E+03  0.83566468690E+03  0.17300000000E+03 0.  1.
         -6    1    1    2    0  502  0.79778279842E+02  0.37286459328E+02  0.39341135182E+02  0.19806963145E+03  0.17300000000E+03 0. -1.
</event>
<event>
 4    1  0.5712137E+000  0.1000000E+03  0.7546771E-02  0.1280296E+00
         21   -1    0    0  501  502  0.00000000000E+00  0.00000000000E+00  0.11352834308E+04  0.11352834308E+04  0.00000000000E+00 0. -1.
         21   -1    0    0  502  503 -0.00000000000E+00 -0.00000000000E+00 -0.13084652366E+03  0.13084652366E+03  0.00000000000E+00 0.  1.
          6    1    1    2  501    0  0.24326901123E+03 -0.23591435511E+03  0.60325108291E+03  0.71321543996E+03  0.17300000000E+03 0. -1.
         -6    1    1    2    0  503 -0.24326901123E+03  0.23591435511E+03  0.40118582420E+03  0.55291451447E+03  0.17300000000E+03 0.  1.
</event>
<event>
 4    1  0.5712137E+000  0.1000000E+03  0.7546771E-02  0.1280296E+00
         21   -1    0    0  501  502  0.00000000000E+00  0.00000000000E+00  0.20894192955E+03  0.20894192955E+03  0.00000000000E+00 0. -1.
         21   -1    0    0  502  503 -0.00000000000E+00 -0.00000000000E+00 -0.23978650360E+03  0.23978650360E+03  0.00000000000E+00 0.  1.
          6    1    1    2  501    0  0.47513898843E+02 -0.65548382695E+02  0.10155182931E+03  0.21632368131E+03  0.17300000000E+03 0. -1.
         -6    1    1    2    0  503 -0.47513898843E+02  0.65548382695E+02 -0.13239640336E+03  0.23240475185E+03  0.17300000000E+03 0.  1.
</event>
<event>
 4    1  0.5712137E+000  0.1000000E+03  0.7546771E-02  0.1280296E+00
         21   -1    0    0  501  502  0.00000000000E+00  0.00000000000E+00  0.13560088376E+03  0.13560088376E+03  0.00000000000E+00 0. -1.
         21   -1    0    0  502  503 -0.00000000000E+00 -0.00000000000E+00 -0.32898268768E+03  0.32898268768E+03  0.00000000000E+00 0.  1.
          6    1    1    2  501    0  0.96081884640E+02  0.51290184104E+02 -0.38298230688E+02  0.20798597553E+03  0.17300000000E+03 0. -1.
         -6    1    1    2    0  503 -0.96081884640E+02 -0.51290184104E+02 -0.15508357324E+03  0.25659759591E+03  0.17300000000E+03 0.  1.
</event>
<event>
 4    1  0.5712137E+000  0.1000000E+03  0.7546771E-02  0.1280296E+00
         21   -1    0    0  501  502  0.00000000000E+00  0.00000000000E+00  0.32862350531E+03  0.32862350531E+03  0.00000000000E+00 0.  1.
         21   -1    0    0  502  503 -0.00000000000E+00 -0.00000000000E+00 -0.25632229753E+03  0.25632229753E+03  0.00000000000E+00 0. -1.
          6    1    1    2  501    0  0.16204147748E+03  0.39625097455E+02  0.20012538102E+03  0.31274071833E+03  0.17300000000E+03 0.  1.
         -6    1    1    2    0  503 -0.16204147748E+03 -0.39625097455E+02 -0.12782417325E+03  0.27220508452E+03  0.17300000000E+03 0. -1.
</event>
<event>
 4    1  0.5712137E+000  0.1000000E+03  0.7546771E-02  0.1280296E+00
         21   -1    0    0  501  502  0.00000000000E+00  0.00000000000E+00  0.49331643777E+03  0.49331643777E+03  0.00000000000E+00 0.  1.
         21   -1    0    0  502  503 -0.00000000000E+00 -0.00000000000E+00 -0.11068009311E+03  0.11068009311E+03  0.00000000000E+00 0. -1.
          6    1    1    2  501    0 -0.13542923549E+03  0.52669333375E+02  0.26839047293E+03  0.35082414749E+03  0.17300000000E+03 0.  1.
         -6    1    1    2    0  503  0.13542923549E+03 -0.52669333375E+02  0.11424587173E+03  0.25317238339E+03  0.17300000000E+03 0. -1.
</event>
<event>
 4    1  0.5712137E+000  0.1000000E+03  0.7546771E-02  0.1280296E+00
         21   -1    0    0  501  502  0.00000000000E+00  0.00000000000E+00  0.23398797194E+03  0.23398797194E+03  0.00000000000E+00 0.  1.
         21   -1    0    0  502  503 -0.00000000000E+00 -0.00000000000E+00 -0.18162157332E+03  0.18162157332E+03  0.00000000000E+00 0. -1.
          6    1    1    2  501    0 -0.61318114564E+02  0.30297978067E+02  0.11572465085E+03  0.21908690847E+03  0.17300000000E+03 0.  1.
         -6    1    1    2    0  503  0.61318114564E+02 -0.30297978067E+02 -0.63358252228E+02  0.19652263680E+03  0.17300000000E+03 0. -1.
</event>
<event>
 4    1  0.5712137E+000  0.1000000E+03  0.7546771E-02  0.1280296E+00
         21   -1    0    0  503  502  0.00000000000E+00  0.00000000000E+00  0.99440484249E+03  0.99440484249E+03  0.00000000000E+00 0.  1.
         21   -1    0    0  501  503 -0.00000000000E+00 -0.00000000000E+00 -0.11181372293E+03  0.11181372293E+03  0.00000000000E+00 0. -1.
          6    1    1    2  501    0 -0.55645086861E+02 -0.18785965340E+03  0.97843576412E+02  0.27908778281E+03  0.17300000000E+03 0. -1.
         -6    1    1    2    0  502  0.55645086861E+02  0.18785965340E+03  0.78474754315E+03  0.82713078261E+03  0.17300000000E+03 0.  1.
</event>
<event>
 4    1  0.5712137E+000  0.1000000E+03  0.7546771E-02  0.1280296E+00
         21   -1    0    0  503  502  0.00000000000E+00  0.00000000000E+00  0.80491427710E+03  0.80491427710E+03  0.00000000000E+00 0. -1.
         21   -1    0    0  501  503 -0.00000000000E+00 -0.00000000000E+00 -0.13756572790E+03  0.13756572790E+03  0.00000000000E+00 0. -1.
          6    1    1    2  501    0  0.23080429416E+02 -0.53403393152E+02 -0.60351597996E+02  0.19223928840E+03  0.17300000000E+03 0. -1.
         -6    1    1    2    0  502 -0.23080429416E+02  0.53403393152E+02  0.72770014720E+03  0.75024071661E+03  0.17300000000E+03 0. -1.
</event>
<event>
 4    1  0.5712137E+000  0.1000000E+03  0.7546771E-02  0.1280296E+00
         21   -1    0    0  503  502  0.00000000000E+00  0.00000000000E+00  0.35119081720E+02  0.35119081720E+02  0.00000000000E+00 0. -1.
         21   -1    0    0  501  503 -0.00000000000E+00 -0.00000000000E+00 -0.11766533657E+04  0.11766533657E+04  0.00000000000E+00 0. -1.
          6    1    1    2  501    0 -0.19705493640E+02  0.86145742558E+02 -0.74921650082E+03  0.77399209334E+03  0.17300000000E+03 0. -1.
         -6    1    1    2    0  502  0.19705493640E+02 -0.86145742558E+02 -0.39231778315E+03  0.43778035407E+03  0.17300000000E+03 0. -1.
</event>
<event>
 4    1  0.5712137E+000  0.1000000E+03  0.7546771E-02  0.1280296E+00
         21   -1    0    0  503  502  0.00000000000E+00  0.00000000000E+00  0.31361436503E+03  0.31361436503E+03  0.00000000000E+00 0. -1.
         21   -1    0    0  501  503 -0.00000000000E+00 -0.00000000000E+00 -0.12501601664E+03  0.12501601664E+03  0.00000000000E+00 0. -1.
          6    1    1    2  501    0  0.41690421939E+02  0.78637797014E+02  0.53515193281E+02  0.20177926135E+03  0.17300000000E+03 0. -1.
         -6    1    1    2    0  502 -0.41690421939E+02 -0.78637797014E+02  0.13508315511E+03  0.23685112032E+03  0.17300000000E+03 0. -1.
</event>
<event>
 4    1  0.5712137E+000  0.1000000E+03  0.7546771E-02  0.1280296E+00
         21   -1    0    0  503  502  0.00000000000E+00  0.00000000000E+00  0.11104882746E+03  0.11104882746E+03  0.00000000000E+00 0. -1.
         21   -1    0    0  501  503 -0.00000000000E+00 -0.00000000000E+00 -0.63396127631E+03  0.63396127631E+03  0.00000000000E+00 0. -1.
          6    1    1    2  501    0 -0.48599997209E+02 -0.14189992823E+02 -0.53480126631E+03  0.56436221531E+03  0.17300000000E+03 0. -1.
         -6    1    1    2    0  502  0.48599997209E+02  0.14189992823E+02  0.11888817459E+02  0.18064788846E+03  0.17300000000E+03 0. -1.
</event>
<event>
 4    1  0.5712137E+000  0.1000000E+03  0.7546771E-02  0.1280296E+00
         21   -1    0    0  503  502  0.00000000000E+00  0.00000000000E+00  0.72555393624E+02  0.72555393624E+02  0.00000000000E+00 0. -1.
         21   -1    0    0  501  503 -0.00000000000E+00 -0.00000000000E+00 -0.59992062404E+03  0.59992062404E+03  0.00000000000E+00 0. -1.
          6    1    1    2  501    0 -0.60159149130E+02 -0.19661352295E+02 -0.42153000826E+03  0.46002417313E+03  0.17300000000E+03 0. -1.
         -6    1    1    2    0  502  0.60159149130E+02  0.19661352295E+02 -0.10583522216E+03  0.21245184454E+03  0.17300000000E+03 0. -1.
</event>
<event>
 4    1  0.5712137E+000  0.1000000E+03  0.7546771E-02  0.1280296E+00
         21   -1    0    0  503  502  0.00000000000E+00  0.00000000000E+00  0.80478665641E+03  0.80478665641E+03  0.00000000000E+00 0. -1.
         21   -1    0    0  501  503 -0.00000000000E+00 -0.00000000000E+00 -0.12575559444E+03  0.12575559444E+03  0.00000000000E+00 0. -1.
          6    1    1    2  501    0  0.13798914741E+01 -0.25070698920E+03  0.20530164428E+03  0.36733317802E+03  0.17300000000E+03 0. -1.
         -6    1    1    2    0  502 -0.13798914741E+01  0.25070698920E+03  0.47372941768E+03  0.56320907283E+03  0.17300000000E+03 0. -1.
</event>
<event>
 4    1  0.5712137E+000  0.1000000E+03  0.7546771E-02  0.1280296E+00
         21   -1    0    0  503  502  0.00000000000E+00  0.00000000000E+00  0.42105116009E+03  0.42105116009E+03  0.00000000000E+00 0. -1.
         21   -1    0    0  501  503 -0.00000000000E+00 -0.00000000000E+00 -0.22327712218E+03  0.22327712218E+03  0.00000000000E+00 0. -1.
          6    1    1    2  501    0 -0.20443259065E+03  0.14060931403E+03  0.46157668430E+02  0.30597907390E+03  0.17300000000E+03 0. -1.
         -6    1    1    2    0  502  0.20443259065E+03 -0.14060931403E+03  0.15161636948E+03  0.33834920837E+03  0.17300000000E+03 0. -1.
</event>
<event>
 4    1  0.5712137E+000  0.1000000E+03  0.7546771E-02  0.1280296E+00
         21   -1    0    0  501  502  0.00000000000E+00  0.00000000000E+00  0.43041951160E+02  0.43041951160E+02  0.00000000000E+00 0.  1.
         21   -1    0    0  502  503 -0.00000000000E+00 -0.00000000000E+00 -0.80553266255E+03  0.80553266255E+03  0.00000000000E+00 0.  1.
          6    1    1    2  501    0 -0.30145367288E+02 -0.59984628382E+02 -0.34625541572E+03  0.39284693168E+03  0.17300000000E+03 0.  1.
         -6    1    1    2    0  503  0.30145367288E+02  0.59984628382E+02 -0.41623529567E+03  0.45572768203E+03  0.17300000000E+03 0.  1.
</event>
<event>
 4    1  0.5712137E+000  0.1000000E+03  0.7546771E-02  0.1280296E+00
         21   -1    0    0  501  502  0.00000000000E+00  0.00000000000E+00  0.70585208070E+03  0.70585208070E+03  0.00000000000E+00 0.  1.
         21   -1    0    0  502  503 -0.00000000000E+00 -0.00000000000E+00 -0.20609014734E+03  0.20609014734E+03  0.00000000000E+00 0.  1.
          6    1    1    2  501    0 -0.22738904006E+03 -0.60076414589E+02  0.54326807134E+03  0.61675290714E+03  0.17300000000E+03 0.  1.
         -6    1    1    2    0  503  0.22738904006E+03  0.60076414589E+02 -0.43506137976E+02  0.29518932090E+03  0.17300000000E+03 0.  1.
</event>
<event>
 4    1  0.5712137E+000  0.1000000E+03  0.7546771E-02  0.1280296E+00
         21   -1    0    0  503  502  0.00000000000E+00  0.00000000000E+00  0.22765754684E+03  0.22765754684E+03  0.00000000000E+00 0. -1.
         21   -1    0    0  501  503 -0.00000000000E+00 -0.00000000000E+00 -0.24458563526E+03  0.24458563526E+03  0.00000000000E+00 0. -1.
          6    1    1    2  501    0  0.38180778509E+02 -0.10973413228E+03 -0.11923037166E+03  0.24009213473E+03  0.17300000000E+03 0. -1.
         -6    1    1    2    0  502 -0.38180778509E+02  0.10973413228E+03  0.10230228324E+03  0.23215104736E+03  0.17300000000E+03 0. -1.
</event>
<event>
 4    1  0.5712137E+000  0.1000000E+03  0.7546771E-02  0.1280296E+00
         21   -1    0    0  503  502  0.00000000000E+00  0.00000000000E+00  0.37412984013E+03  0.37412984013E+03  0.00000000000E+00 0.  1.
         21   -1    0    0  501  503 -0.00000000000E+00 -0.00000000000E+00 -0.10460560291E+04  0.10460560291E+04  0.00000000000E+00 0.  1.
          6    1    1    2  501    0 -0.84762284171E+02 -0.14679808505E+02 -0.10113421340E+04  0.10296319992E+04  0.17300000000E+03 0.  1.
         -6    1    1    2    0  502  0.84762284171E+02  0.14679808505E+02  0.33941594511E+03  0.39055387003E+03  0.17300000000E+03 0.  1.
</event>
<event>
 4    1  0.5712137E+000  0.1000000E+03  0.7546771E-02  0.1280296E+00
         21   -1    0    0  503  502  0.00000000000E+00  0.00000000000E+00  0.20002322985E+03  0.20002322985E+03  0.00000000000E+00 0.  1.
         21   -1    0    0  501  503 -0.00000000000E+00 -0.00000000000E+00 -0.16009510039E+03  0.16009510039E+03  0.00000000000E+00 0.  1.
          6    1    1    2  501    0 -0.80484080874E+01 -0.80584571408E+01  0.64556308874E+02  0.18500333137E+03  0.17300000000E+03 0.  1.
         -6    1    1    2    0  502  0.80484080874E+01  0.80584571408E+01 -0.24628179418E+02  0.17511499886E+03  0.17300000000E+03 0.  1.
</event>
<event>
 4    1  0.5712137E+000  0.1000000E+03  0.7546771E-02  0.1280296E+00
         21   -1    0    0  503  502  0.00000000000E+00  0.00000000000E+00  0.55560027379E+03  0.55560027379E+03  0.00000000000E+00 0. -1.
         21   -1    0    0  501  503 -0.00000000000E+00 -0.00000000000E+00 -0.12235797703E+03  0.12235797703E+03  0.00000000000E+00 0. -1.
          6    1    1    2  501    0 -0.13441973872E+02  0.11710927812E+03  0.14549782033E+02  0.20984748233E+03  0.17300000000E+03 0. -1.
         -6    1    1    2    0  502  0.13441973872E+02 -0.11710927812E+03  0.41869251473E+03  0.46811076849E+03  0.17300000000E+03 0. -1.
</event>
<event>
 4    1  0.5712137E+000  0.1000000E+03  0.7546771E-02  0.1280296E+00
         21   -1    0    0  503  502  0.00000000000E+00  0.00000000000E+00  0.39332758240E+03  0.39332758240E+03  0.00000000000E+00 0. -1.
         21   -1    0    0  501  503 -0.00000000000E+00 -0.00000000000E+00 -0.11083693845E+03  0.11083693845E+03  0.00000000000E+00 0. -1.
          6    1    1    2  501    0 -0.53220223974E+02  0.32532457977E+02  0.21876285005E+02  0.18519806939E+03  0.17300000000E+03 0. -1.
         -6    1    1    2    0  502  0.53220223974E+02 -0.32532457977E+02  0.26061435895E+03  0.31896645145E+03  0.17300000000E+03 0. -1.
</event>
<event>
 4    1  0.5712137E+000  0.1000000E+03  0.7546771E-02  0.1280296E+00
         21   -1    0    0  503  502  0.00000000000E+00  0.00000000000E+00  0.81679496682E+03  0.81679496682E+03  0.00000000000E+00 0. -1.
         21   -1    0    0  501  503 -0.00000000000E+00 -0.00000000000E+00 -0.63330970743E+02  0.63330970743E+02  0.00000000000E+00 0. -1.
          6    1    1    2  501    0 -0.27941843702E+02 -0.58232739290E+02  0.11984207997E+03  0.22014295966E+03  0.17300000000E+03 0. -1.
         -6    1    1    2    0  502  0.27941843702E+02  0.58232739290E+02  0.63362191611E+03  0.65998297791E+03  0.17300000000E+03 0. -1.
</event>
<event>
 4    1  0.5712137E+000  0.1000000E+03  0.7546771E-02  0.1280296E+00
         21   -1    0    0  503  502  0.00000000000E+00  0.00000000000E+00  0.13485152448E+03  0.13485152448E+03  0.00000000000E+00 0. -1.
         21   -1    0    0  501  503 -0.00000000000E+00 -0.00000000000E+00 -0.53911833473E+03  0.53911833473E+03  0.00000000000E+00 0.  1.
          6    1    1    2  501    0  0.32414079900E+02  0.68024651583E+02 -0.44284209379E+03  0.48136903290E+03  0.17300000000E+03 0.  1.
         -6    1    1    2    0  502 -0.32414079900E+02 -0.68024651583E+02  0.38575283539E+02  0.19260082632E+03  0.17300000000E+03 0.  1.
</event>
<event>
 4    1  0.5712137E+000  0.1000000E+03  0.7546771E-02  0.1280296E+00
         21   -1    0    0  503  502  0.00000000000E+00  0.00000000000E+00  0.30661549618E+02  0.30661549618E+02  0.00000000000E+00 0. -1.
         21   -1    0    0  501  503 -0.00000000000E+00 -0.00000000000E+00 -0.16351630199E+04  0.16351630199E+04  0.00000000000E+00 0.  1.
          6    1    1    2  501    0 -0.11057686119E+03 -0.65307074585E+02 -0.10289880848E+04  0.10513028749E+04  0.17300000000E+03 0.  1.
         -6    1    1    2    0  502  0.11057686119E+03  0.65307074585E+02 -0.57551338546E+03  0.61452169454E+03  0.17300000000E+03 0.  1.
</event>
<event>
 4    1  0.5712137E+000  0.1000000E+03  0.7546771E-02  0.1280296E+00
         21   -1    0    0  501  502  0.00000000000E+00  0.00000000000E+00  0.36583427860E+03  0.36583427860E+03  0.00000000000E+00 0. -1.
         21   -1    0    0  502  503 -0.00000000000E+00 -0.00000000000E+00 -0.11687701710E+03  0.11687701710E+03  0.00000000000E+00 0. -1.
          6    1    1    2  501    0 -0.96995802908E+01 -0.10652396312E+03  0.81005838730E+02  0.21893465346E+03  0.17300000000E+03 0. -1.
         -6    1    1    2    0  503  0.96995802908E+01  0.10652396312E+03  0.16795142277E+03  0.26377664223E+03  0.17300000000E+03 0. -1.
</event>
<event>
 4    1  0.5712137E+000  0.1000000E+03  0.7546771E-02  0.1280296E+00
         21   -1    0    0  501  502  0.00000000000E+00  0.00000000000E+00  0.57597950075E+03  0.57597950075E+03  0.00000000000E+00 0.  1.
         21   -1    0    0  502  503 -0.00000000000E+00 -0.00000000000E+00 -0.84191916966E+02  0.84191916966E+02  0.00000000000E+00 0. -1.
          6    1    1    2  501    0 -0.86993318360E+02 -0.10423984817E+03  0.22880080345E+03  0.31735247131E+03  0.17300000000E+03 0.  1.
         -6    1    1    2    0  503  0.86993318360E+02  0.10423984817E+03  0.26298678034E+03  0.34281894641E+03  0.17300000000E+03 0. -1.
</event>
<event>
 4    1  0.5712137E+000  0.1000000E+03  0.7546771E-02  0.1280296E+00
         21   -1    0    0  501  502  0.00000000000E+00  0.00000000000E+00  0.30433481804E+03  0.30433481804E+03  0.00000000000E+00 0.  1.
         21   -1    0    0  502  503 -0.00000000000E+00 -0.00000000000E+00 -0.21934134849E+03  0.21934134849E+03  0.00000000000E+00 0. -1.
          6    1    1    2  501    0 -0.54784045354E+02  0.10222580717E+03  0.19743265959E+03  0.28698442876E+03  0.17300000000E+03 0.  1.
         -6    1    1    2    0  503  0.54784045354E+02 -0.10222580717E+03 -0.11243919003E+03  0.23669173778E+03  0.17300000000E+03 0. -1.
</event>
<event>
 4    1  0.5712137E+000  0.1000000E+03  0.7546771E-02  0.1280296E+00
         21   -1    0    0  501  502  0.00000000000E+00  0.00000000000E+00  0.59383967491E+03  0.59383967491E+03  0.00000000000E+00 0.  1.
         21   -1    0    0  502  503 -0.00000000000E+00 -0.00000000000E+00 -0.15244090937E+03  0.15244090937E+03  0.00000000000E+00 0. -1.
          6    1    1    2  501    0  0.19905689874E+03 -0.11385360505E+03  0.33169544771E+03  0.43879056776E+03  0.17300000000E+03 0.  1.
         -6    1    1    2    0  503 -0.19905689874E+03  0.11385360505E+03  0.10970331782E+03  0.30749001652E+03  0.17300000000E+03 0. -1.
</event>
<event>
 4    1  0.5712137E+000  0.1000000E+03  0.7546771E-02  0.1280296E+00
         21   -1    0    0  501  502  0.00000000000E+00  0.00000000000E+00  0.33863309984E+03  0.33863309984E+03  0.00000000000E+00 0.  1.
         21   -1    0    0  502  503 -0.00000000000E+00 -0.00000000000E+00 -0.17404687405E+03  0.17404687405E+03  0.00000000000E+00 0. -1.
          6    1    1    2  501    0  0.16693520696E+03 -0.96053313276E+01  0.48088043870E+02  0.24535909536E+03  0.17300000000E+03 0.  1.
         -6    1    1    2    0  503 -0.16693520696E+03  0.96053313276E+01  0.11649818191E+03  0.26732087854E+03  0.17300000000E+03 0. -1.
</event>
<event>
 4    1  0.5712137E+000  0.1000000E+03  0.7546771E-02  0.1280296E+00
         21   -1    0    0  501  502  0.00000000000E+00  0.00000000000E+00  0.20813067801E+03  0.20813067801E+03  0.00000000000E+00 0.  1.
         21   -1    0    0  502  503 -0.00000000000E+00 -0.00000000000E+00 -0.58932234938E+03  0.58932234938E+03  0.00000000000E+00 0.  1.
          6    1    1    2  501    0  0.89973081005E+02 -0.60212036325E+02  0.13343796728E+03  0.24383464835E+03  0.17300000000E+03 0.  1.
         -6    1    1    2    0  503 -0.89973081005E+02  0.60212036325E+02 -0.51462963866E+03  0.55361837904E+03  0.17300000000E+03 0.  1.
</event>
<event>
 4    1  0.5712137E+000  0.1000000E+03  0.7546771E-02  0.1280296E+00
         21   -1    0    0  501  502  0.00000000000E+00  0.00000000000E+00  0.75553772454E+03  0.75553772454E+03  0.00000000000E+00 0.  1.
         21   -1    0    0  502  503 -0.00000000000E+00 -0.00000000000E+00 -0.58437152415E+02  0.58437152415E+02  0.00000000000E+00 0.  1.
          6    1    1    2  501    0 -0.66957697911E+02  0.73023795430E+02  0.47712732839E+03  0.51710279007E+03  0.17300000000E+03 0.  1.
         -6    1    1    2    0  503  0.66957697911E+02 -0.73023795430E+02  0.21997324374E+03  0.29687208688E+03  0.17300000000E+03 0.  1.
</event>
<event>
 4    1  0.5712137E+000  0.1000000E+03  0.7546771E-02  0.1280296E+00
         21   -1    0    0  503  502  0.00000000000E+00  0.00000000000E+00  0.11103348524E+03  0.11103348524E+03  0.00000000000E+00 0. -1.
         21   -1    0    0  501  503 -0.00000000000E+00 -0.00000000000E+00 -0.54504251770E+03  0.54504251770E+03  0.00000000000E+00 0.  1.
          6    1    1    2  501    0  0.13228382056E+03 -0.10785524014E+03 -0.26790744886E+03  0.36171143632E+03  0.17300000000E+03 0.  1.
         -6    1    1    2    0  502 -0.13228382056E+03  0.10785524014E+03 -0.16610158360E+03  0.29436456662E+03  0.17300000000E+03 0. -1.
</event>
<event>
 4    1  0.5712137E+000  0.1000000E+03  0.7546771E-02  0.1280296E+00
         21   -1    0    0  503  502  0.00000000000E+00  0.00000000000E+00  0.90287223901E+03  0.90287223901E+03  0.00000000000E+00 0. -1.
         21   -1    0    0  501  503 -0.00000000000E+00 -0.00000000000E+00 -0.73899157125E+02  0.73899157125E+02  0.00000000000E+00 0.  1.
          6    1    1    2  501    0  0.13988898585E+03 -0.12883465167E+02  0.16754803141E+03  0.27881222152E+03  0.17300000000E+03 0.  1.
         -6    1    1    2    0  502 -0.13988898585E+03  0.12883465167E+02  0.66142505048E+03  0.69795917462E+03  0.17300000000E+03 0. -1.
</event>
<event>
 4    1  0.5712137E+000  0.1000000E+03  0.7546771E-02  0.1280296E+00
         21   -1    0    0  501  502  0.00000000000E+00  0.00000000000E+00  0.57130304565E+03  0.57130304565E+03  0.00000000000E+00 0. -1.
         21   -1    0    0  502  503 -0.00000000000E+00 -0.00000000000E+00 -0.38455223279E+03  0.38455223279E+03  0.00000000000E+00 0.  1.
          6    1    1    2  501    0 -0.42511851151E+03  0.15116142170E+02  0.18909560988E+03  0.49662903283E+03  0.17300000000E+03 0. -1.
         -6    1    1    2    0  503  0.42511851151E+03 -0.15116142170E+02 -0.23447970062E+01  0.45922624561E+03  0.17300000000E+03 0.  1.
</event>
<event>
 4    1  0.5712137E+000  0.1000000E+03  0.7546771E-02  0.1280296E+00
         21   -1    0    0  501  502  0.00000000000E+00  0.00000000000E+00  0.11119113438E+03  0.11119113438E+03  0.00000000000E+00 0. -1.
         21   -1    0    0  502  503 -0.00000000000E+00 -0.00000000000E+00 -0.99464732975E+03  0.99464732975E+03  0.00000000000E+00 0.  1.
          6    1    1    2  501    0 -0.11432052759E+03 -0.19781019477E+02 -0.10707849786E+02  0.20857643637E+03  0.17300000000E+03 0. -1.
         -6    1    1    2    0  503  0.11432052759E+03  0.19781019477E+02 -0.87274834558E+03  0.89726202777E+03  0.17300000000E+03 0.  1.
</event>
<event>
 4    1  0.5712137E+000  0.1000000E+03  0.7546771E-02  0.1280296E+00
         21   -1    0    0  501  502  0.00000000000E+00  0.00000000000E+00  0.24497192925E+03  0.24497192925E+03  0.00000000000E+00 0.  1.
         21   -1    0    0  502  503 -0.00000000000E+00 -0.00000000000E+00 -0.30738612299E+03  0.30738612299E+03  0.00000000000E+00 0.  1.
          6    1    1    2  501    0  0.14767830111E+03 -0.15063372275E+03 -0.14773527806E+01  0.27281968701E+03  0.17300000000E+03 0.  1.
         -6    1    1    2    0  503 -0.14767830111E+03  0.15063372275E+03 -0.60936840956E+02  0.27953836523E+03  0.17300000000E+03 0.  1.
</event>
<event>
 4    1  0.5712137E+000  0.1000000E+03  0.7546771E-02  0.1280296E+00
         21   -1    0    0  501  502  0.00000000000E+00  0.00000000000E+00  0.24601782328E+03  0.24601782328E+03  0.00000000000E+00 0.  1.
         21   -1    0    0  502  503 -0.00000000000E+00 -0.00000000000E+00 -0.23640594477E+03  0.23640594477E+03  0.00000000000E+00 0.  1.
          6    1    1    2  501    0 -0.10586379516E+03 -0.50094632661E+02  0.12530583431E+03  0.24361274076E+03  0.17300000000E+03 0.  1.
         -6    1    1    2    0  503  0.10586379516E+03  0.50094632661E+02 -0.11569395580E+03  0.23881102729E+03  0.17300000000E+03 0.  1.
</event>
<event>
 4    1  0.5712137E+000  0.1000000E+03  0.7546771E-02  0.1280296E+00
         21   -1    0    0  503  502  0.00000000000E+00  0.00000000000E+00  0.16839851849E+04  0.16839851849E+04  0.00000000000E+00 0.  1.
         21   -1    0    0  501  503 -0.00000000000E+00 -0.00000000000E+00 -0.62726387951E+02  0.62726387951E+02  0.00000000000E+00 0. -1.
          6    1    1    2  501    0 -0.15555461204E+03  0.16589970696E+03  0.39449481078E+03  0.48710892604E+03  0.17300000000E+03 0. -1.
         -6    1    1    2    0  502  0.15555461204E+03 -0.16589970696E+03  0.12267639862E+04  0.12596026468E+04  0.17300000000E+03 0.  1.
</event>
<event>
 4    1  0.5712137E+000  0.1000000E+03  0.7546771E-02  0.1280296E+00
         21   -1    0    0  503  502  0.00000000000E+00  0.00000000000E+00  0.17521389227E+03  0.17521389227E+03  0.00000000000E+00 0.  1.
         21   -1    0    0  501  503 -0.00000000000E+00 -0.00000000000E+00 -0.53217897048E+03  0.53217897048E+03  0.00000000000E+00 0.  1.
          6    1    1    2  501    0  0.12976075269E+03  0.49608450712E+01 -0.42813028223E+03  0.47967384908E+03  0.17300000000E+03 0.  1.
         -6    1    1    2    0  502 -0.12976075269E+03 -0.49608450712E+01  0.71165204022E+02  0.22771901367E+03  0.17300000000E+03 0.  1.
</event>
<event>
 4    1  0.5712137E+000  0.1000000E+03  0.7546771E-02  0.1280296E+00
         21   -1    0    0  503  502  0.00000000000E+00  0.00000000000E+00  0.76702495471E+02  0.76702495471E+02  0.00000000000E+00 0.  1.
         21   -1    0    0  501  503 -0.00000000000E+00 -0.00000000000E+00 -0.57965281353E+03  0.57965281353E+03  0.00000000000E+00 0.  1.
          6    1    1    2  501    0  0.65929491931E+02 -0.41337209712E+02 -0.39476811488E+03  0.43797982527E+03  0.17300000000E+03 0.  1.
         -6    1    1    2    0  502 -0.65929491931E+02  0.41337209712E+02 -0.10818220318E+03  0.21837548374E+03  0.17300000000E+03 0.  1.
</event>
<event>
 4    1  0.5712137E+000  0.1000000E+03  0.7546771E-02  0.1280296E+00
         21   -1    0    0  503  502  0.00000000000E+00  0.00000000000E+00  0.11287084507E+03  0.11287084507E+03  0.00000000000E+00 0.  1.
         21   -1    0    0  501  503 -0.00000000000E+00 -0.00000000000E+00 -0.29441823802E+03  0.29441823802E+03  0.00000000000E+00 0.  1.
          6    1    1    2  501    0 -0.40089191444E+01 -0.24121991073E+02 -0.14886704881E+03  0.22953940861E+03  0.17300000000E+03 0.  1.
         -6    1    1    2    0  502  0.40089191444E+01  0.24121991073E+02 -0.32680344142E+02  0.17774967448E+03  0.17300000000E+03 0.  1.
</event>
<event>
 4    1  0.5712137E+000  0.1000000E+03  0.7546771E-02  0.1280296E+00
         21   -1    0    0  501  502  0.00000000000E+00  0.00000000000E+00  0.48995525533E+03  0.48995525533E+03  0.00000000000E+00 0.  1.
         21   -1    0    0  502  503 -0.00000000000E+00 -0.00000000000E+00 -0.42331635771E+03  0.42331635771E+03  0.00000000000E+00 0.  1.
          6    1    1    2  501    0  0.29079035119E+02  0.96034109909E+02  0.44356940425E+03  0.48657060838E+03  0.17300000000E+03 0.  1.
         -6    1    1    2    0  503 -0.29079035119E+02 -0.96034109909E+02 -0.37693050663E+03  0.42670100466E+03  0.17300000000E+03 0.  1.
</event>
<event>
 4    1  0.5712137E+000  0.1000000E+03  0.7546771E-02  0.1280296E+00
         21   -1    0    0  501  502  0.00000000000E+00  0.00000000000E+00  0.68220814642E+03  0.68220814642E+03  0.00000000000E+00 0.  1.
         21   -1    0    0  502  503 -0.00000000000E+00 -0.00000000000E+00 -0.12087189253E+03  0.12087189253E+03  0.00000000000E+00 0.  1.
          6    1    1    2  501    0  0.39484328837E+01 -0.19671877925E+02  0.59992786927E+03  0.62469594302E+03  0.17300000000E+03 0.  1.
         -6    1    1    2    0  503 -0.39484328837E+01  0.19671877925E+02 -0.38591615377E+02  0.17838409593E+03  0.17300000000E+03 0.  1.
</event>
<event>
 4    1  0.5712137E+000  0.1000000E+03  0.7546771E-02  0.1280296E+00
         21   -1    0    0  501  502  0.00000000000E+00  0.00000000000E+00  0.17553276241E+03  0.17553276241E+03  0.00000000000E+00 0.  1.
         21   -1    0    0  502  503 -0.00000000000E+00 -0.00000000000E+00 -0.21690750685E+03  0.21690750685E+03  0.00000000000E+00 0.  1.
          6    1    1    2  501    0 -0.50148118518E+02 -0.49565742216E+02  0.35964648743E+02  0.19024734571E+03  0.17300000000E+03 0.  1.
         -6    1    1    2    0  503  0.50148118518E+02  0.49565742216E+02 -0.77339393192E+02  0.20219292354E+03  0.17300000000E+03 0.  1.
</event>
<event>
 4    1  0.5712137E+000  0.1000000E+03  0.7546771E-02  0.1280296E+00
         21   -1    0    0  503  502  0.00000000000E+00  0.00000000000E+00  0.30917601827E+04  0.30917601827E+04  0.00000000000E+00 0. -1.
         21   -1    0    0  501  503 -0.00000000000E+00 -0.00000000000E+00 -0.51165634318E+02  0.51165634318E+02  0.00000000000E+00 0. -1.
          6    1    1    2  501    0 -0.11823858506E+02  0.57551138807E+02  0.12444849968E+03  0.22106190599E+03  0.17300000000E+03 0. -1.
         -6    1    1    2    0  502  0.11823858506E+02 -0.57551138807E+02  0.29161460487E+04  0.29218639110E+04  0.17300000000E+03 0. -1.
</event>
<event>
 4    1  0.5712137E+000  0.1000000E+03  0.7546771E-02  0.1280296E+00
         21   -1    0    0  503  502  0.00000000000E+00  0.00000000000E+00  0.29584821896E+03  0.29584821896E+03  0.00000000000E+00 0. -1.
         21   -1    0    0  501  503 -0.00000000000E+00 -0.00000000000E+00 -0.20478316862E+03  0.20478316862E+03  0.00000000000E+00 0. -1.
          6    1    1    2  501    0 -0.10878207747E+03 -0.21704527505E+02 -0.92232071601E+02  0.22525625835E+03  0.17300000000E+03 0. -1.
         -6    1    1    2    0  502  0.10878207747E+03  0.21704527505E+02  0.18329712194E+03  0.27537512924E+03  0.17300000000E+03 0. -1.
</event>
<event>
 4    1  0.5712137E+000  0.1000000E+03  0.7546771E-02  0.1280296E+00
         21   -1    0    0  501  502  0.00000000000E+00  0.00000000000E+00  0.17463449567E+03  0.17463449567E+03  0.00000000000E+00 0.  1.
         21   -1    0    0  502  503 -0.00000000000E+00 -0.00000000000E+00 -0.50013572745E+03  0.50013572745E+03  0.00000000000E+00 0.  1.
          6    1    1    2  501    0 -0.18236816610E+03 -0.78031548107E+02 -0.93120617411E+01  0.26336815487E+03  0.17300000000E+03 0.  1.
         -6    1    1    2    0  503  0.18236816610E+03  0.78031548107E+02 -0.31618917004E+03  0.41140206825E+03  0.17300000000E+03 0.  1.
</event>
<event>
 4    1  0.5712137E+000  0.1000000E+03  0.7546771E-02  0.1280296E+00
         21   -1    0    0  501  502  0.00000000000E+00  0.00000000000E+00  0.70607895077E+03  0.70607895077E+03  0.00000000000E+00 0.  1.
         21   -1    0    0  502  503 -0.00000000000E+00 -0.00000000000E+00 -0.71032095911E+03  0.71032095911E+03  0.00000000000E+00 0.  1.
          6    1    1    2  501    0 -0.16614335351E+03  0.23867118848E+03  0.62001209981E+03  0.70633671434E+03  0.17300000000E+03 0.  1.
         -6    1    1    2    0  503  0.16614335351E+03 -0.23867118848E+03 -0.62425410815E+03  0.71006319554E+03  0.17300000000E+03 0.  1.
</event>
<event>
 4    1  0.5712137E+000  0.1000000E+03  0.7546771E-02  0.1280296E+00
         21   -1    0    0  503  502  0.00000000000E+00  0.00000000000E+00  0.43607933876E+03  0.43607933876E+03  0.00000000000E+00 0. -1.
         21   -1    0    0  501  503 -0.00000000000E+00 -0.00000000000E+00 -0.16513205648E+03  0.16513205648E+03  0.00000000000E+00 0.  1.
          6    1    1    2  501    0  0.12070479962E+03  0.14208236565E+03  0.39601676990E+02  0.25739918434E+03  0.17300000000E+03 0.  1.
         -6    1    1    2    0  502 -0.12070479962E+03 -0.14208236565E+03  0.23134560529E+03  0.34381221090E+03  0.17300000000E+03 0. -1.
</event>
<event>
 4    1  0.5712137E+000  0.1000000E+03  0.7546771E-02  0.1280296E+00
         21   -1    0    0  503  502  0.00000000000E+00  0.00000000000E+00  0.29284165831E+03  0.29284165831E+03  0.00000000000E+00 0. -1.
         21   -1    0    0  501  503 -0.00000000000E+00 -0.00000000000E+00 -0.18261415532E+03  0.18261415532E+03  0.00000000000E+00 0.  1.
          6    1    1    2  501    0 -0.13220054985E+03 -0.24120154238E+02 -0.21050926630E+02  0.22007023591E+03  0.17300000000E+03 0.  1.
         -6    1    1    2    0  502  0.13220054985E+03  0.24120154238E+02  0.13127842962E+03  0.25538557771E+03  0.17300000000E+03 0. -1.
</event>
<event>
 4    1  0.5712137E+000  0.1000000E+03  0.7546771E-02  0.1280296E+00
         21   -1    0    0  503  502  0.00000000000E+00  0.00000000000E+00  0.84727638316E+03  0.84727638316E+03  0.00000000000E+00 0. -1.
         21   -1    0    0  501  503 -0.00000000000E+00 -0.00000000000E+00 -0.20326354663E+03  0.20326354663E+03  0.00000000000E+00 0.  1.
          6    1    1    2  501    0  0.29874972332E+02 -0.11496113374E+03 -0.13115736096E+03  0.24746682520E+03  0.17300000000E+03 0.  1.
         -6    1    1    2    0  502 -0.29874972332E+02  0.11496113374E+03  0.77517019749E+03  0.80307310459E+03  0.17300000000E+03 0. -1.
</event>
<event>
 4    1  0.5712137E+000  0.1000000E+03  0.7546771E-02  0.1280296E+00
         21   -1    0    0  503  502  0.00000000000E+00  0.00000000000E+00  0.38348719559E+03  0.38348719559E+03  0.00000000000E+00 0. -1.
         21   -1    0    0  501  503 -0.00000000000E+00 -0.00000000000E+00 -0.94044504558E+02  0.94044504558E+02  0.00000000000E+00 0.  1.
          6    1    1    2  501    0 -0.62110118799E+02 -0.33323564567E+02  0.10175756457E+03  0.21272453728E+03  0.17300000000E+03 0.  1.
         -6    1    1    2    0  502  0.62110118799E+02  0.33323564567E+02  0.18768512647E+03  0.26480716287E+03  0.17300000000E+03 0. -1.
</event>
<event>
 4    1  0.5712137E+000  0.1000000E+03  0.7546771E-02  0.1280296E+00
         21   -1    0    0  503  502  0.00000000000E+00  0.00000000000E+00  0.40318950389E+03  0.40318950389E+03  0.00000000000E+00 0. -1.
         21   -1    0    0  501  503 -0.00000000000E+00 -0.00000000000E+00 -0.12560763512E+03  0.12560763512E+03  0.00000000000E+00 0.  1.
          6    1    1    2  501    0 -0.97126851464E+02  0.97560086282E+01  0.26305096487E+03  0.32962647815E+03  0.17300000000E+03 0.  1.
         -6    1    1    2    0  502  0.97126851464E+02 -0.97560086282E+01  0.14530903899E+02  0.19917066086E+03  0.17300000000E+03 0. -1.
</event>
<event>
 4    1  0.5712137E+000  0.1000000E+03  0.7546771E-02  0.1280296E+00
         21   -1    0    0  503  502  0.00000000000E+00  0.00000000000E+00  0.53838058061E+03  0.53838058061E+03  0.00000000000E+00 0. -1.
         21   -1    0    0  501  503 -0.00000000000E+00 -0.00000000000E+00 -0.38576939843E+03  0.38576939843E+03  0.00000000000E+00 0.  1.
          6    1    1    2  501    0  0.81179291665E+02 -0.45198795592E+02 -0.34067188307E+03  0.39321665839E+03  0.17300000000E+03 0. -1.
         -6    1    1    2    0  502 -0.81179291665E+02  0.45198795592E+02  0.49328306525E+03  0.53093332066E+03  0.17300000000E+03 0.  1.
</event>
<event>
 4    1  0.5712137E+000  0.1000000E+03  0.7546771E-02  0.1280296E+00
         21   -1    0    0  503  502  0.00000000000E+00  0.00000000000E+00  0.22826122770E+04  0.22826122770E+04  0.00000000000E+00 0. -1.
         21   -1    0    0  501  503 -0.00000000000E+00 -0.00000000000E+00 -0.17849536465E+02  0.17849536465E+02  0.00000000000E+00 0.  1.
          6    1    1    2  501    0  0.40624961979E+02  0.28553026949E+02  0.61170204910E+03  0.63763160191E+03  0.17300000000E+03 0. -1.
         -6    1    1    2    0  502 -0.40624961979E+02 -0.28553026949E+02  0.16530606914E+04  0.16628302115E+04  0.17300000000E+03 0.  1.
</event>
<event>
 4    1  0.5712137E+000  0.1000000E+03  0.7546771E-02  0.1280296E+00
         21   -1    0    0  503  502  0.00000000000E+00  0.00000000000E+00  0.69782874422E+02  0.69782874422E+02  0.00000000000E+00 0. -1.
         21   -1    0    0  501  503 -0.00000000000E+00 -0.00000000000E+00 -0.21729410253E+04  0.21729410253E+04  0.00000000000E+00 0.  1.
          6    1    1    2  501    0 -0.59150635755E+02  0.15164269592E+03 -0.19401466225E+04  0.19546335262E+04  0.17300000000E+03 0. -1.
         -6    1    1    2    0  502  0.59150635755E+02 -0.15164269592E+03 -0.16301152838E+03  0.28809037353E+03  0.17300000000E+03 0.  1.
</event>
<event>
 4    1  0.5712137E+000  0.1000000E+03  0.7546771E-02  0.1280296E+00
         21   -1    0    0  503  502  0.00000000000E+00  0.00000000000E+00  0.16312057343E+03  0.16312057343E+03  0.00000000000E+00 0. -1.
         21   -1    0    0  501  503 -0.00000000000E+00 -0.00000000000E+00 -0.69515234792E+03  0.69515234792E+03  0.00000000000E+00 0. -1.
          6    1    1    2  501    0 -0.17275754599E+02 -0.32689990946E+02 -0.63116157786E+03  0.65548533513E+03  0.17300000000E+03 0. -1.
         -6    1    1    2    0  502  0.17275754599E+02  0.32689990946E+02  0.99129803373E+02  0.20278758621E+03  0.17300000000E+03 0. -1.
</event>
<event>
 4    1  0.5712137E+000  0.1000000E+03  0.7546771E-02  0.1280296E+00
         21   -1    0    0  503  502  0.00000000000E+00  0.00000000000E+00  0.53798299866E+03  0.53798299866E+03  0.00000000000E+00 0. -1.
         21   -1    0    0  501  503 -0.00000000000E+00 -0.00000000000E+00 -0.82700710919E+02  0.82700710919E+02  0.00000000000E+00 0. -1.
          6    1    1    2  501    0  0.80730339413E+02 -0.80324627496E+02  0.16891535901E+03  0.26726547101E+03  0.17300000000E+03 0. -1.
         -6    1    1    2    0  502 -0.80730339413E+02  0.80324627496E+02  0.28636692873E+03  0.35341823857E+03  0.17300000000E+03 0. -1.
</event>
<event>
 4    1  0.5712137E+000  0.1000000E+03  0.7546771E-02  0.1280296E+00
         21   -1    0    0  503  502  0.00000000000E+00  0.00000000000E+00  0.22975732414E+03  0.22975732414E+03  0.00000000000E+00 0.  1.
         21   -1    0    0  501  503 -0.00000000000E+00 -0.00000000000E+00 -0.24027564310E+03  0.24027564310E+03  0.00000000000E+00 0.  1.
          6    1    1    2  501    0 -0.14892799219E+03 -0.82808349964E+01  0.49781614473E+02  0.23378479041E+03  0.17300000000E+03 0.  1.
         -6    1    1    2    0  502  0.14892799219E+03  0.82808349964E+01 -0.60299933433E+02  0.23624817684E+03  0.17300000000E+03 0.  1.
</event>
<event>
 4    1  0.5712137E+000  0.1000000E+03  0.7546771E-02  0.1280296E+00
         21   -1    0    0  503  502  0.00000000000E+00  0.00000000000E+00  0.13007991976E+03  0.13007991976E+03  0.00000000000E+00 0.  1.
         21   -1    0    0  501  503 -0.00000000000E+00 -0.00000000000E+00 -0.51604219509E+03  0.51604219509E+03  0.00000000000E+00 0.  1.
          6    1    1    2  501    0 -0.68405314583E+02 -0.62676668594E+02 -0.40381701918E+03  0.44900427262E+03  0.17300000000E+03 0.  1.
         -6    1    1    2    0  502  0.68405314583E+02  0.62676668594E+02  0.17854743847E+02  0.19711784223E+03  0.17300000000E+03 0.  1.
</event>
<event>
 4    1  0.5712137E+000  0.1000000E+03  0.7546771E-02  0.1280296E+00
         21   -1    0    0  503  502  0.00000000000E+00  0.00000000000E+00  0.81210009547E+03  0.81210009547E+03  0.00000000000E+00 0.  1.
         21   -1    0    0  501  503 -0.00000000000E+00 -0.00000000000E+00 -0.70862727725E+02  0.70862727725E+02  0.00000000000E+00 0.  1.
          6    1    1    2  501    0  0.12808009639E+03 -0.21440495338E+02  0.17976864783E+03  0.28126495103E+03  0.17300000000E+03 0.  1.
         -6    1    1    2    0  502 -0.12808009639E+03  0.21440495338E+02  0.56146871991E+03  0.60169787217E+03  0.17300000000E+03 0.  1.
</event>
<event>
 4    1  0.5712137E+000  0.1000000E+03  0.7546771E-02  0.1280296E+00
         21   -1    0    0  503  502  0.00000000000E+00  0.00000000000E+00  0.61325918830E+02  0.61325918830E+02  0.00000000000E+00 0. -1.
         21   -1    0    0  501  503 -0.00000000000E+00 -0.00000000000E+00 -0.70240898903E+03  0.70240898903E+03  0.00000000000E+00 0. -1.
          6    1    1    2  501    0  0.13069325624E+02  0.52803070354E+02 -0.50625270654E+03  0.53775438110E+03  0.17300000000E+03 0. -1.
         -6    1    1    2    0  502 -0.13069325624E+02 -0.52803070354E+02 -0.13483036366E+03  0.22598052676E+03  0.17300000000E+03 0. -1.
</event>
<event>
 4    1  0.5712137E+000  0.1000000E+03  0.7546771E-02  0.1280296E+00
         21   -1    0    0  501  502  0.00000000000E+00  0.00000000000E+00  0.13871146455E+02  0.13871146455E+02  0.00000000000E+00 0. -1.
         21   -1    0    0  502  503 -0.00000000000E+00 -0.00000000000E+00 -0.25787909525E+04  0.25787909525E+04  0.00000000000E+00 0. -1.
          6    1    1    2  501    0 -0.74867892488E+02 -0.15358495002E+02 -0.12882038231E+04  0.13020135078E+04  0.17300000000E+03 0. -1.
         -6    1    1    2    0  503  0.74867892488E+02  0.15358495002E+02 -0.12767159829E+04  0.12906485911E+04  0.17300000000E+03 0. -1.
</event>
<event>
 4    1  0.5712137E+000  0.1000000E+03  0.7546771E-02  0.1280296E+00
         21   -1    0    0  501  502  0.00000000000E+00  0.00000000000E+00  0.52518051006E+03  0.52518051006E+03  0.00000000000E+00 0. -1.
         21   -1    0    0  502  503 -0.00000000000E+00 -0.00000000000E+00 -0.83617194404E+02  0.83617194404E+02  0.00000000000E+00 0. -1.
          6    1    1    2  501    0 -0.64886772973E+02 -0.13891480554E+02  0.36297055803E+03  0.40752900821E+03  0.17300000000E+03 0. -1.
         -6    1    1    2    0  503  0.64886772973E+02  0.13891480554E+02  0.78592757626E+02  0.20126869625E+03  0.17300000000E+03 0. -1.
</event>
<event>
 4    1  0.5712137E+000  0.1000000E+03  0.7546771E-02  0.1280296E+00
         21   -1    0    0  501  502  0.00000000000E+00  0.00000000000E+00  0.50494063714E+03  0.50494063714E+03  0.00000000000E+00 0. -1.
         21   -1    0    0  502  503 -0.00000000000E+00 -0.00000000000E+00 -0.21140213464E+03  0.21140213464E+03  0.00000000000E+00 0. -1.
          6    1    1    2  501    0  0.20426265770E+03 -0.43139855632E+01  0.35208058748E+03  0.44230259313E+03  0.17300000000E+03 0. -1.
         -6    1    1    2    0  503 -0.20426265770E+03  0.43139855632E+01 -0.58542084981E+02  0.27404017865E+03  0.17300000000E+03 0. -1.
</event>
<event>
 4    1  0.5712137E+000  0.1000000E+03  0.7546771E-02  0.1280296E+00
         21   -1    0    0  501  502  0.00000000000E+00  0.00000000000E+00  0.10433471671E+04  0.10433471671E+04  0.00000000000E+00 0. -1.
         21   -1    0    0  502  503 -0.00000000000E+00 -0.00000000000E+00 -0.40278509442E+02  0.40278509442E+02  0.00000000000E+00 0. -1.
          6    1    1    2  501    0  0.88855507284E+02  0.61498853474E+02  0.55557450303E+03  0.59183565165E+03  0.17300000000E+03 0. -1.
         -6    1    1    2    0  503 -0.88855507284E+02 -0.61498853474E+02  0.44749415464E+03  0.49179002490E+03  0.17300000000E+03 0. -1.
</event>
<event>
 4    1  0.5712137E+000  0.1000000E+03  0.7546771E-02  0.1280296E+00
         21   -1    0    0  501  502  0.00000000000E+00  0.00000000000E+00  0.39740702359E+02  0.39740702359E+02  0.00000000000E+00 0.  1.
         21   -1    0    0  502  503 -0.00000000000E+00 -0.00000000000E+00 -0.99461920504E+03  0.99461920504E+03  0.00000000000E+00 0.  1.
          6    1    1    2  501    0 -0.52459634515E+02 -0.36386631185E+02 -0.28413633352E+03  0.33873065437E+03  0.17300000000E+03 0.  1.
         -6    1    1    2    0  503  0.52459634515E+02  0.36386631185E+02 -0.67074216916E+03  0.69562925303E+03  0.17300000000E+03 0.  1.
</event>
<event>
 4    1  0.5712137E+000  0.1000000E+03  0.7546771E-02  0.1280296E+00
         21   -1    0    0  501  502  0.00000000000E+00  0.00000000000E+00  0.24925374157E+04  0.24925374157E+04  0.00000000000E+00 0.  1.
         21   -1    0    0  502  503 -0.00000000000E+00 -0.00000000000E+00 -0.34909897401E+02  0.34909897401E+02  0.00000000000E+00 0.  1.
          6    1    1    2  501    0 -0.54593168849E+02 -0.19021856151E+03  0.18023313084E+04  0.18213979962E+04  0.17300000000E+03 0.  1.
         -6    1    1    2    0  503  0.54593168849E+02  0.19021856151E+03  0.65529620992E+03  0.70604931695E+03  0.17300000000E+03 0.  1.
</event>
<event>
 4    1  0.5712137E+000  0.1000000E+03  0.7546771E-02  0.1280296E+00
         21   -1    0    0  501  502  0.00000000000E+00  0.00000000000E+00  0.22082916836E+03  0.22082916836E+03  0.00000000000E+00 0.  1.
         21   -1    0    0  502  503 -0.00000000000E+00 -0.00000000000E+00 -0.50996231492E+03  0.50996231492E+03  0.00000000000E+00 0.  1.
          6    1    1    2  501    0 -0.19287348715E+03 -0.16695038394E+03 -0.61809818833E-01  0.30822332255E+03  0.17300000000E+03 0.  1.
         -6    1    1    2    0  503  0.19287348715E+03  0.16695038394E+03 -0.28907133674E+03  0.42256816073E+03  0.17300000000E+03 0.  1.
</event>
<event>
 4    1  0.5712137E+000  0.1000000E+03  0.7546771E-02  0.1280296E+00
         21   -1    0    0  503  502  0.00000000000E+00  0.00000000000E+00  0.44147516088E+02  0.44147516088E+02  0.00000000000E+00 0.  1.
         21   -1    0    0  501  503 -0.00000000000E+00 -0.00000000000E+00 -0.10351802814E+04  0.10351802814E+04  0.00000000000E+00 0. -1.
          6    1    1    2  501    0 -0.79779200537E+02  0.96928407859E+02 -0.48684432154E+03  0.53170126059E+03  0.17300000000E+03 0. -1.
         -6    1    1    2    0  502  0.79779200537E+02 -0.96928407859E+02 -0.50418844373E+03  0.54762653687E+03  0.17300000000E+03 0.  1.
</event>
<event>
 4    1  0.5712137E+000  0.1000000E+03  0.7546771E-02  0.1280296E+00
         21   -1    0    0  503  502  0.00000000000E+00  0.00000000000E+00  0.10966481420E+03  0.10966481420E+03  0.00000000000E+00 0.  1.
         21   -1    0    0  501  503 -0.00000000000E+00 -0.00000000000E+00 -0.98756277445E+03  0.98756277445E+03  0.00000000000E+00 0. -1.
          6    1    1    2  501    0  0.38902005767E+02 -0.52117520715E+02 -0.89287356050E+03  0.91180140220E+03  0.17300000000E+03 0. -1.
         -6    1    1    2    0  502 -0.38902005767E+02  0.52117520715E+02  0.14975600256E+02  0.18542618645E+03  0.17300000000E+03 0.  1.
</event>
<event>
 4    1  0.5712137E+000  0.1000000E+03  0.7546771E-02  0.1280296E+00
         21   -1    0    0  503  502  0.00000000000E+00  0.00000000000E+00  0.23064180131E+03  0.23064180131E+03  0.00000000000E+00 0. -1.
         21   -1    0    0  501  503 -0.00000000000E+00 -0.00000000000E+00 -0.49779582507E+03  0.49779582507E+03  0.00000000000E+00 0.  1.
          6    1    1    2  501    0 -0.16636261934E+03 -0.12780482812E+03 -0.35088997227E+03  0.44391819950E+03  0.17300000000E+03 0.  1.
         -6    1    1    2    0  502  0.16636261934E+03  0.12780482812E+03  0.83735948506E+02  0.28451942689E+03  0.17300000000E+03 0. -1.
</event>
<event>
 4    1  0.5712137E+000  0.1000000E+03  0.7546771E-02  0.1280296E+00
         21   -1    0    0  503  502  0.00000000000E+00  0.00000000000E+00  0.11327483736E+03  0.11327483736E+03  0.00000000000E+00 0. -1.
         21   -1    0    0  501  503 -0.00000000000E+00 -0.00000000000E+00 -0.35490224740E+03  0.35490224740E+03  0.00000000000E+00 0.  1.
          6    1    1    2  501    0  0.14046838229E+02 -0.76231559860E+02 -0.19705040529E+03  0.27343450150E+03  0.17300000000E+03 0. -1.
         -6    1    1    2    0  502 -0.14046838229E+02  0.76231559860E+02 -0.44577004747E+02  0.19474258326E+03  0.17300000000E+03 0.  1.
</event>
<event>
 4    1  0.5712137E+000  0.1000000E+03  0.7546771E-02  0.1280296E+00
         21   -1    0    0  503  502  0.00000000000E+00  0.00000000000E+00  0.31563134654E+02  0.31563134654E+02  0.00000000000E+00 0. -1.
         21   -1    0    0  501  503 -0.00000000000E+00 -0.00000000000E+00 -0.15043584837E+04  0.15043584837E+04  0.00000000000E+00 0.  1.
          6    1    1    2  501    0 -0.10767401779E+03 -0.49984862961E+02 -0.52905929879E+03  0.56914402595E+03  0.17300000000E+03 0. -1.
         -6    1    1    2    0  502  0.10767401779E+03  0.49984862961E+02 -0.94373605024E+03  0.96677759240E+03  0.17300000000E+03 0.  1.
</event>
<event>
 4    1  0.5712137E+000  0.1000000E+03  0.7546771E-02  0.1280296E+00
         21   -1    0    0  501  502  0.00000000000E+00  0.00000000000E+00  0.87274806720E+02  0.87274806720E+02  0.00000000000E+00 0. -1.
         21   -1    0    0  502  503 -0.00000000000E+00 -0.00000000000E+00 -0.53947098287E+03  0.53947098287E+03  0.00000000000E+00 0. -1.
          6    1    1    2  501    0 -0.85258072784E+02 -0.68607363560E+02 -0.12218140112E+03  0.23839715621E+03  0.17300000000E+03 0. -1.
         -6    1    1    2    0  503  0.85258072784E+02  0.68607363560E+02 -0.33001477503E+03  0.38834863338E+03  0.17300000000E+03 0. -1.
</event>
<event>
 4    1  0.5712137E+000  0.1000000E+03  0.7546771E-02  0.1280296E+00
         21   -1    0    0  501  502  0.00000000000E+00  0.00000000000E+00  0.79077347629E+02  0.79077347629E+02  0.00000000000E+00 0. -1.
         21   -1    0    0  502  503 -0.00000000000E+00 -0.00000000000E+00 -0.47626083457E+03  0.47626083457E+03  0.00000000000E+00 0. -1.
          6    1    1    2  501    0  0.79351724659E+02 -0.24330452120E+02 -0.15703009520E+03  0.24794377972E+03  0.17300000000E+03 0. -1.
         -6    1    1    2    0  503 -0.79351724659E+02  0.24330452120E+02 -0.24015339175E+03  0.30739440248E+03  0.17300000000E+03 0. -1.
</event>
<event>
 4    1  0.5712137E+000  0.1000000E+03  0.7546771E-02  0.1280296E+00
         21   -1    0    0  501  502  0.00000000000E+00  0.00000000000E+00  0.35452626631E+03  0.35452626631E+03  0.00000000000E+00 0. -1.
         21   -1    0    0  502  503 -0.00000000000E+00 -0.00000000000E+00 -0.13514791506E+03  0.13514791506E+03  0.00000000000E+00 0. -1.
          6    1    1    2  501    0  0.51220948771E+01  0.13010021774E+03  0.14562492641E+03  0.26093662392E+03  0.17300000000E+03 0. -1.
         -6    1    1    2    0  503 -0.51220948771E+01 -0.13010021774E+03  0.73753424844E+02  0.22873755745E+03  0.17300000000E+03 0. -1.
</event>
<event>
 4    1  0.5712137E+000  0.1000000E+03  0.7546771E-02  0.1280296E+00
         21   -1    0    0  501  502  0.00000000000E+00  0.00000000000E+00  0.59814881731E+02  0.59814881731E+02  0.00000000000E+00 0. -1.
         21   -1    0    0  502  503 -0.00000000000E+00 -0.00000000000E+00 -0.12413551759E+04  0.12413551759E+04  0.00000000000E+00 0. -1.
          6    1    1    2  501    0  0.66740439740E+02 -0.74671978244E+01 -0.11438198626E+03  0.21799606446E+03  0.17300000000E+03 0. -1.
         -6    1    1    2    0  503 -0.66740439740E+02  0.74671978244E+01 -0.10671583079E+04  0.10831739932E+04  0.17300000000E+03 0. -1.
</event>
<event>
 4    1  0.5712137E+000  0.1000000E+03  0.7546771E-02  0.1280296E+00
         21   -1    0    0  501  502  0.00000000000E+00  0.00000000000E+00  0.37929899923E+03  0.37929899923E+03  0.00000000000E+00 0. -1.
         21   -1    0    0  502  503 -0.00000000000E+00 -0.00000000000E+00 -0.29773003921E+03  0.29773003921E+03  0.00000000000E+00 0. -1.
          6    1    1    2  501    0 -0.62785892196E+02  0.10634318042E+02  0.32381690922E+03  0.37261447593E+03  0.17300000000E+03 0. -1.
         -6    1    1    2    0  503  0.62785892196E+02 -0.10634318042E+02 -0.24224794920E+03  0.30441456251E+03  0.17300000000E+03 0. -1.
</event>
<event>
 4    1  0.5712137E+000  0.1000000E+03  0.7546771E-02  0.1280296E+00
         21   -1    0    0  503  502  0.00000000000E+00  0.00000000000E+00  0.11428398923E+04  0.11428398923E+04  0.00000000000E+00 0.  1.
         21   -1    0    0  501  503 -0.00000000000E+00 -0.00000000000E+00 -0.63268902133E+02  0.63268902133E+02  0.00000000000E+00 0. -1.
          6    1    1    2  501    0 -0.68049757289E+02 -0.14276760984E+02  0.10524426471E+03  0.21410266375E+03  0.17300000000E+03 0. -1.
         -6    1    1    2    0  502  0.68049757289E+02  0.14276760984E+02  0.97432672550E+03  0.99200613072E+03  0.17300000000E+03 0.  1.
</event>
<event>
 4    1  0.5712137E+000  0.1000000E+03  0.7546771E-02  0.1280296E+00
         21   -1    0    0  503  502  0.00000000000E+00  0.00000000000E+00  0.19522106880E+03  0.19522106880E+03  0.00000000000E+00 0.  1.
         21   -1    0    0  501  503 -0.00000000000E+00 -0.00000000000E+00 -0.39301688529E+03  0.39301688529E+03  0.00000000000E+00 0. -1.
          6    1    1    2  501    0 -0.99983643882E+02 -0.54770555083E+02 -0.29411151951E+03  0.35975982079E+03  0.17300000000E+03 0. -1.
         -6    1    1    2    0  502  0.99983643882E+02  0.54770555083E+02  0.96315703018E+02  0.22847813330E+03  0.17300000000E+03 0.  1.
</event>
<event>
 4    1  0.5712137E+000  0.1000000E+03  0.7546771E-02  0.1280296E+00
         21   -1    0    0  503  502  0.00000000000E+00  0.00000000000E+00  0.66973465047E+02  0.66973465047E+02  0.00000000000E+00 0.  1.
         21   -1    0    0  501  503 -0.00000000000E+00 -0.00000000000E+00 -0.68954441789E+03  0.68954441789E+03  0.00000000000E+00 0. -1.
          6    1    1    2  501    0 -0.10746344564E+03 -0.29836379250E+02 -0.41998383137E+03  0.46771147120E+03  0.17300000000E+03 0. -1.
         -6    1    1    2    0  502  0.10746344564E+03  0.29836379250E+02 -0.20258712147E+03  0.28880641174E+03  0.17300000000E+03 0.  1.
</event>
<event>
 4    1  0.5712137E+000  0.1000000E+03  0.7546771E-02  0.1280296E+00
         21   -1    0    0  503  502  0.00000000000E+00  0.00000000000E+00  0.56373807387E+03  0.56373807387E+03  0.00000000000E+00 0.  1.
         21   -1    0    0  501  503 -0.00000000000E+00 -0.00000000000E+00 -0.30968051343E+03  0.30968051343E+03  0.00000000000E+00 0. -1.
          6    1    1    2  501    0  0.20875824940E+03  0.14450344258E+03 -0.16894463657E+03  0.35061737241E+03  0.17300000000E+03 0. -1.
         -6    1    1    2    0  502 -0.20875824940E+03 -0.14450344258E+03  0.42300219701E+03  0.52280121488E+03  0.17300000000E+03 0.  1.
</event>
<event>
 4    1  0.5712137E+000  0.1000000E+03  0.7546771E-02  0.1280296E+00
         21   -1    0    0  501  502  0.00000000000E+00  0.00000000000E+00  0.12264732055E+04  0.12264732055E+04  0.00000000000E+00 0.  1.
         21   -1    0    0  502  503 -0.00000000000E+00 -0.00000000000E+00 -0.38468257545E+02  0.38468257545E+02  0.00000000000E+00 0.  1.
          6    1    1    2  501    0  0.12442750875E+03  0.31366847257E+02  0.51240980385E+03  0.55584070661E+03  0.17300000000E+03 0.  1.
         -6    1    1    2    0  503 -0.12442750875E+03 -0.31366847257E+02  0.67559514408E+03  0.70910075642E+03  0.17300000000E+03 0.  1.
</event>
<event>
 4    1  0.5712137E+000  0.1000000E+03  0.7546771E-02  0.1280296E+00
         21   -1    0    0  503  502  0.00000000000E+00  0.00000000000E+00  0.56397794808E+03  0.56397794808E+03  0.00000000000E+00 0. -1.
         21   -1    0    0  501  503 -0.00000000000E+00 -0.00000000000E+00 -0.25052842428E+03  0.25052842428E+03  0.00000000000E+00 0. -1.
          6    1    1    2  501    0 -0.15383649379E+03  0.23583355696E+03 -0.37330146420E+02  0.33257431236E+03  0.17300000000E+03 0.  1.
         -6    1    1    2    0  502  0.15383649379E+03 -0.23583355696E+03  0.35077967022E+03  0.48193205999E+03  0.17300000000E+03 0.  1.
</event>
<event>
 4    1  0.5712137E+000  0.1000000E+03  0.7546771E-02  0.1280296E+00
         21   -1    0    0  503  502  0.00000000000E+00  0.00000000000E+00  0.14794361225E+03  0.14794361225E+03  0.00000000000E+00 0. -1.
         21   -1    0    0  501  503 -0.00000000000E+00 -0.00000000000E+00 -0.24343179708E+03  0.24343179708E+03  0.00000000000E+00 0. -1.
          6    1    1    2  501    0  0.19246105615E+02 -0.68059291804E+02 -0.81673850911E+02  0.20396592290E+03  0.17300000000E+03 0.  1.
         -6    1    1    2    0  502 -0.19246105615E+02  0.68059291804E+02 -0.13814333919E+02  0.18740948643E+03  0.17300000000E+03 0.  1.
</event>
<event>
 4    1  0.5712137E+000  0.1000000E+03  0.7546771E-02  0.1280296E+00
         21   -1    0    0  501  502  0.00000000000E+00  0.00000000000E+00  0.73553438191E+02  0.73553438191E+02  0.00000000000E+00 0. -1.
         21   -1    0    0  502  503 -0.00000000000E+00 -0.00000000000E+00 -0.10230899473E+04  0.10230899473E+04  0.00000000000E+00 0.  1.
          6    1    1    2  501    0 -0.16432652636E+03  0.59905353937E+02 -0.23216756444E+03  0.33826415222E+03  0.17300000000E+03 0.  1.
         -6    1    1    2    0  503  0.16432652636E+03 -0.59905353937E+02 -0.71736894470E+03  0.75837923331E+03  0.17300000000E+03 0.  1.
</event>
<event>
 4    1  0.5712137E+000  0.1000000E+03  0.7546771E-02  0.1280296E+00
         21   -1    0    0  501  502  0.00000000000E+00  0.00000000000E+00  0.66489413330E+02  0.66489413330E+02  0.00000000000E+00 0. -1.
         21   -1    0    0  502  503 -0.00000000000E+00 -0.00000000000E+00 -0.80218838202E+03  0.80218838202E+03  0.00000000000E+00 0.  1.
          6    1    1    2  501    0 -0.31541499920E+02  0.99997811777E+02 -0.15831125265E+03  0.25687717161E+03  0.17300000000E+03 0.  1.
         -6    1    1    2    0  503  0.31541499920E+02 -0.99997811777E+02 -0.57738771604E+03  0.61180062374E+03  0.17300000000E+03 0.  1.
</event>
<event>
 4    1  0.5712137E+000  0.1000000E+03  0.7546771E-02  0.1280296E+00
         21   -1    0    0  501  502  0.00000000000E+00  0.00000000000E+00  0.10786311296E+04  0.10786311296E+04  0.00000000000E+00 0.  1.
         21   -1    0    0  502  503 -0.00000000000E+00 -0.00000000000E+00 -0.32355673365E+03  0.32355673365E+03  0.00000000000E+00 0.  1.
          6    1    1    2  501    0 -0.89671208438E+02 -0.35392206473E+03  0.88904175886E+03  0.97653776298E+03  0.17300000000E+03 0.  1.
         -6    1    1    2    0  503  0.89671208438E+02  0.35392206473E+03 -0.13396736293E+03  0.42565010027E+03  0.17300000000E+03 0.  1.
</event>
<event>
 4    1  0.5712137E+000  0.1000000E+03  0.7546771E-02  0.1280296E+00
         21   -1    0    0  501  502  0.00000000000E+00  0.00000000000E+00  0.90378740498E+02  0.90378740498E+02  0.00000000000E+00 0.  1.
         21   -1    0    0  502  503 -0.00000000000E+00 -0.00000000000E+00 -0.43474811540E+03  0.43474811540E+03  0.00000000000E+00 0.  1.
          6    1    1    2  501    0 -0.47072987480E+01 -0.51068559671E+02 -0.63496816161E+02  0.19128774689E+03  0.17300000000E+03 0.  1.
         -6    1    1    2    0  503  0.47072987480E+01  0.51068559671E+02 -0.28087255874E+03  0.33383910901E+03  0.17300000000E+03 0.  1.
</event>
<event>
 4    1  0.5712137E+000  0.1000000E+03  0.7546771E-02  0.1280296E+00
         21   -1    0    0  501  502  0.00000000000E+00  0.00000000000E+00  0.21759328598E+03  0.21759328598E+03  0.00000000000E+00 0.  1.
         21   -1    0    0  502  503 -0.00000000000E+00 -0.00000000000E+00 -0.32847818049E+03  0.32847818049E+03  0.00000000000E+00 0.  1.
          6    1    1    2  501    0  0.51988254022E+02  0.11069657872E+03  0.11108874417E+03  0.23922002462E+03  0.17300000000E+03 0.  1.
         -6    1    1    2    0  503 -0.51988254022E+02 -0.11069657872E+03 -0.22197363868E+03  0.30685144185E+03  0.17300000000E+03 0.  1.
</event>
<event>
 4    1  0.5712137E+000  0.1000000E+03  0.7546771E-02  0.1280296E+00
         21   -1    0    0  503  502  0.00000000000E+00  0.00000000000E+00  0.84905946079E+02  0.84905946079E+02  0.00000000000E+00 0.  1.
         21   -1    0    0  501  503 -0.00000000000E+00 -0.00000000000E+00 -0.58604197395E+03  0.58604197395E+03  0.00000000000E+00 0.  1.
          6    1    1    2  501    0 -0.57050909593E+02  0.48306042700E+02 -0.43004063649E+03  0.46952340632E+03  0.17300000000E+03 0.  1.
         -6    1    1    2    0  502  0.57050909593E+02 -0.48306042700E+02 -0.71095391375E+02  0.20142451371E+03  0.17300000000E+03 0.  1.
</event>
<event>
 4    1  0.5712137E+000  0.1000000E+03  0.7546771E-02  0.1280296E+00
         21   -1    0    0  503  502  0.00000000000E+00  0.00000000000E+00  0.27938294354E+02  0.27938294354E+02  0.00000000000E+00 0.  1.
         21   -1    0    0  501  503 -0.00000000000E+00 -0.00000000000E+00 -0.19047738856E+04  0.19047738856E+04  0.00000000000E+00 0.  1.
          6    1    1    2  501    0 -0.25547708975E+02  0.47520966411E+02 -0.15363847564E+04  0.15470352444E+04  0.17300000000E+03 0.  1.
         -6    1    1    2    0  502  0.25547708975E+02 -0.47520966411E+02 -0.34045083488E+03  0.38567693560E+03  0.17300000000E+03 0.  1.
</event>
<event>
 4    1  0.5712137E+000  0.1000000E+03  0.7546771E-02  0.1280296E+00
         21   -1    0    0  501  502  0.00000000000E+00  0.00000000000E+00  0.37621085920E+03  0.37621085920E+03  0.00000000000E+00 0.  1.
         21   -1    0    0  502  503 -0.00000000000E+00 -0.00000000000E+00 -0.13739494895E+03  0.13739494895E+03  0.00000000000E+00 0. -1.
          6    1    1    2  501    0  0.68593163907E+02 -0.59708131922E+02  0.25060109137E+03  0.31780495614E+03  0.17300000000E+03 0. -1.
         -6    1    1    2    0  503 -0.68593163907E+02  0.59708131922E+02 -0.11785181124E+02  0.19580085201E+03  0.17300000000E+03 0. -1.
</event>
<event>
 4    1  0.5712137E+000  0.1000000E+03  0.7546771E-02  0.1280296E+00
         21   -1    0    0  503  502  0.00000000000E+00  0.00000000000E+00  0.14722307063E+03  0.14722307063E+03  0.00000000000E+00 0. -1.
         21   -1    0    0  501  503 -0.00000000000E+00 -0.00000000000E+00 -0.10028492854E+04  0.10028492854E+04  0.00000000000E+00 0. -1.
          6    1    1    2  501    0 -0.36659767515E+02  0.33579461201E+03 -0.51775016810E+03  0.64194719142E+03  0.17300000000E+03 0.  1.
         -6    1    1    2    0  502  0.36659767515E+02 -0.33579461201E+03 -0.33787604672E+03  0.50812516466E+03  0.17300000000E+03 0.  1.
</event>
<event>
 4    1  0.5712137E+000  0.1000000E+03  0.7546771E-02  0.1280296E+00
         21   -1    0    0  503  502  0.00000000000E+00  0.00000000000E+00  0.13733085060E+04  0.13733085060E+04  0.00000000000E+00 0. -1.
         21   -1    0    0  501  503 -0.00000000000E+00 -0.00000000000E+00 -0.15131129808E+03  0.15131129808E+03  0.00000000000E+00 0. -1.
          6    1    1    2  501    0 -0.55669913009E+01  0.72802447307E+01 -0.94113687848E+02  0.19715572423E+03  0.17300000000E+03 0.  1.
         -6    1    1    2    0  502  0.55669913009E+01 -0.72802447307E+01  0.13161108958E+04  0.13274640799E+04  0.17300000000E+03 0.  1.
</event>
<event>
 4    1  0.5712137E+000  0.1000000E+03  0.7546771E-02  0.1280296E+00
         21   -1    0    0  503  502  0.00000000000E+00  0.00000000000E+00  0.15724334832E+03  0.15724334832E+03  0.00000000000E+00 0. -1.
         21   -1    0    0  501  503 -0.00000000000E+00 -0.00000000000E+00 -0.28365914948E+03  0.28365914948E+03  0.00000000000E+00 0. -1.
          6    1    1    2  501    0 -0.11003369681E+03 -0.46526441465E+02 -0.42269102316E+02  0.21444766541E+03  0.17300000000E+03 0.  1.
         -6    1    1    2    0  502  0.11003369681E+03  0.46526441465E+02 -0.84146698840E+02  0.22645483239E+03  0.17300000000E+03 0.  1.
</event>
<event>
 4    1  0.5712137E+000  0.1000000E+03  0.7546771E-02  0.1280296E+00
         21   -1    0    0  501  502  0.00000000000E+00  0.00000000000E+00  0.41551162896E+03  0.41551162896E+03  0.00000000000E+00 0. -1.
         21   -1    0    0  502  503 -0.00000000000E+00 -0.00000000000E+00 -0.13715100078E+03  0.13715100078E+03  0.00000000000E+00 0. -1.
          6    1    1    2  501    0  0.11930829242E+03  0.18918303492E+02  0.26842440047E+03  0.34142792741E+03  0.17300000000E+03 0. -1.
         -6    1    1    2    0  503 -0.11930829242E+03 -0.18918303492E+02  0.99362277024E+01  0.21123470233E+03  0.17300000000E+03 0. -1.
</event>
<event>
 4    1  0.5712137E+000  0.1000000E+03  0.7546771E-02  0.1280296E+00
         21   -1    0    0  503  502  0.00000000000E+00  0.00000000000E+00  0.11627679626E+03  0.11627679626E+03  0.00000000000E+00 0.  1.
         21   -1    0    0  501  503 -0.00000000000E+00 -0.00000000000E+00 -0.32722048472E+03  0.32722048472E+03  0.00000000000E+00 0. -1.
          6    1    1    2  501    0 -0.69197354288E+01  0.19138959016E+02 -0.20526013665E+03  0.26921163828E+03  0.17300000000E+03 0. -1.
         -6    1    1    2    0  502  0.69197354288E+01 -0.19138959016E+02 -0.56835518161E+01  0.17428564270E+03  0.17300000000E+03 0.  1.
</event>
<event>
 4    1  0.5712137E+000  0.1000000E+03  0.7546771E-02  0.1280296E+00
         21   -1    0    0  503  502  0.00000000000E+00  0.00000000000E+00  0.13259757467E+03  0.13259757467E+03  0.00000000000E+00 0.  1.
         21   -1    0    0  501  503 -0.00000000000E+00 -0.00000000000E+00 -0.23981694127E+04  0.23981694127E+04  0.00000000000E+00 0. -1.
          6    1    1    2  501    0  0.96996394819E+02 -0.36032075143E+02 -0.23145562970E+04  0.23233179858E+04  0.17300000000E+03 0. -1.
         -6    1    1    2    0  502 -0.96996394819E+02  0.36032075143E+02  0.48984458967E+02  0.20744900161E+03  0.17300000000E+03 0.  1.
</event>
<event>
 4    1  0.5712137E+000  0.1000000E+03  0.7546771E-02  0.1280296E+00
         21   -1    0    0  501  502  0.00000000000E+00  0.00000000000E+00  0.16558634242E+03  0.16558634242E+03  0.00000000000E+00 0.  1.
         21   -1    0    0  502  503 -0.00000000000E+00 -0.00000000000E+00 -0.37059241957E+03  0.37059241957E+03  0.00000000000E+00 0. -1.
          6    1    1    2  501    0 -0.13949956326E+03 -0.10420808069E+03 -0.66339896176E+02  0.25426252979E+03  0.17300000000E+03 0.  1.
         -6    1    1    2    0  503  0.13949956326E+03  0.10420808069E+03 -0.13866618097E+03  0.28191623220E+03  0.17300000000E+03 0. -1.
</event>
<event>
 4    1  0.5712137E+000  0.1000000E+03  0.7546771E-02  0.1280296E+00
         21   -1    0    0  503  502  0.00000000000E+00  0.00000000000E+00  0.48725678108E+03  0.48725678108E+03  0.00000000000E+00 0. -1.
         21   -1    0    0  501  503 -0.00000000000E+00 -0.00000000000E+00 -0.11211342843E+03  0.11211342843E+03  0.00000000000E+00 0. -1.
          6    1    1    2  501    0  0.22548904456E+02 -0.11903675636E+03  0.59217752048E+02  0.21934891067E+03  0.17300000000E+03 0. -1.
         -6    1    1    2    0  502 -0.22548904456E+02  0.11903675636E+03  0.31592560060E+03  0.38002129884E+03  0.17300000000E+03 0. -1.
</event>
<event>
 4    1  0.5712137E+000  0.1000000E+03  0.7546771E-02  0.1280296E+00
         21   -1    0    0  501  502  0.00000000000E+00  0.00000000000E+00  0.13558010547E+03  0.13558010547E+03  0.00000000000E+00 0. -1.
         21   -1    0    0  502  503 -0.00000000000E+00 -0.00000000000E+00 -0.28161195264E+03  0.28161195264E+03  0.00000000000E+00 0.  1.
          6    1    1    2  501    0 -0.48912767658E+02 -0.72765793750E+02 -0.98383297319E+02  0.21747549924E+03  0.17300000000E+03 0. -1.
         -6    1    1    2    0  503  0.48912767658E+02  0.72765793750E+02 -0.47648549854E+02  0.19971655886E+03  0.17300000000E+03 0.  1.
</event>
<event>
 4    1  0.5712137E+000  0.1000000E+03  0.7546771E-02  0.1280296E+00
         21   -1    0    0  501  502  0.00000000000E+00  0.00000000000E+00  0.11105574136E+04  0.11105574136E+04  0.00000000000E+00 0. -1.
         21   -1    0    0  502  503 -0.00000000000E+00 -0.00000000000E+00 -0.57176667051E+02  0.57176667051E+02  0.00000000000E+00 0.  1.
          6    1    1    2  501    0 -0.56126905423E+02 -0.14393322074E+03  0.75491578347E+03  0.78974289593E+03  0.17300000000E+03 0. -1.
         -6    1    1    2    0  503  0.56126905423E+02  0.14393322074E+03  0.29846496312E+03  0.37799118476E+03  0.17300000000E+03 0.  1.
</event>
<event>
 4    1  0.5712137E+000  0.1000000E+03  0.7546771E-02  0.1280296E+00
         21   -1    0    0  501  502  0.00000000000E+00  0.00000000000E+00  0.56148645834E+03  0.56148645834E+03  0.00000000000E+00 0. -1.
         21   -1    0    0  502  503 -0.00000000000E+00 -0.00000000000E+00 -0.26760127354E+03  0.26760127354E+03  0.00000000000E+00 0.  1.
          6    1    1    2  501    0  0.12971601419E+03 -0.27619227481E+03  0.32337464292E+03  0.47708340642E+03  0.17300000000E+03 0. -1.
         -6    1    1    2    0  503 -0.12971601419E+03  0.27619227481E+03 -0.29489458118E+02  0.35200432546E+03  0.17300000000E+03 0.  1.
</event>
<event>
 4    1  0.5712137E+000  0.1000000E+03  0.7546771E-02  0.1280296E+00
         21   -1    0    0  501  502  0.00000000000E+00  0.00000000000E+00  0.60360094224E+03  0.60360094224E+03  0.00000000000E+00 0.  1.
         21   -1    0    0  502  503 -0.00000000000E+00 -0.00000000000E+00 -0.25295941492E+03  0.25295941492E+03  0.00000000000E+00 0.  1.
          6    1    1    2  501    0  0.11664860016E+03  0.67354236233E+01  0.53735569781E+03  0.57648279057E+03  0.17300000000E+03 0.  1.
         -6    1    1    2    0  503 -0.11664860016E+03 -0.67354236233E+01 -0.18671417048E+03  0.28007756659E+03  0.17300000000E+03 0.  1.
</event>
<event>
 4    1  0.5712137E+000  0.1000000E+03  0.7546771E-02  0.1280296E+00
         21   -1    0    0  501  502  0.00000000000E+00  0.00000000000E+00  0.62258761228E+02  0.62258761228E+02  0.00000000000E+00 0.  1.
         21   -1    0    0  502  503 -0.00000000000E+00 -0.00000000000E+00 -0.10595645900E+04  0.10595645900E+04  0.00000000000E+00 0.  1.
          6    1    1    2  501    0 -0.78224017016E+02 -0.17836201314E+02 -0.12291579916E+03  0.22687974920E+03  0.17300000000E+03 0.  1.
         -6    1    1    2    0  503  0.78224017016E+02  0.17836201314E+02 -0.87439002961E+03  0.89494360202E+03  0.17300000000E+03 0.  1.
</event>
<event>
 4    1  0.5712137E+000  0.1000000E+03  0.7546771E-02  0.1280296E+00
         21   -1    0    0  503  502  0.00000000000E+00  0.00000000000E+00  0.28874672456E+03  0.28874672456E+03  0.00000000000E+00 0.  1.
         21   -1    0    0  501  503 -0.00000000000E+00 -0.00000000000E+00 -0.43829123850E+03  0.43829123850E+03  0.00000000000E+00 0.  1.
          6    1    1    2  501    0 -0.11270098666E+02 -0.63660993063E+02 -0.38546579419E+03  0.42742556738E+03  0.17300000000E+03 0.  1.
         -6    1    1    2    0  502  0.11270098666E+02  0.63660993063E+02  0.23592128026E+03  0.29961239567E+03  0.17300000000E+03 0.  1.
</event>
<event>
 4    1  0.5712137E+000  0.1000000E+03  0.7546771E-02  0.1280296E+00
         21   -1    0    0  501  502  0.00000000000E+00  0.00000000000E+00  0.46091306821E+03  0.46091306821E+03  0.00000000000E+00 0.  1.
         21   -1    0    0  502  503 -0.00000000000E+00 -0.00000000000E+00 -0.34293645318E+03  0.34293645318E+03  0.00000000000E+00 0. -1.
          6    1    1    2  501    0  0.34848837728E+03  0.79524180380E+02  0.78345990118E+02  0.40476578231E+03  0.17300000000E+03 0.  1.
         -6    1    1    2    0  503 -0.34848837728E+03 -0.79524180380E+02  0.39630624909E+02  0.39908373908E+03  0.17300000000E+03 0. -1.
</event>
<event>
 4    1  0.5712137E+000  0.1000000E+03  0.7546771E-02  0.1280296E+00
         21   -1    0    0  501  502  0.00000000000E+00  0.00000000000E+00  0.26032606334E+03  0.26032606334E+03  0.00000000000E+00 0.  1.
         21   -1    0    0  502  503 -0.00000000000E+00 -0.00000000000E+00 -0.53988148032E+03  0.53988148032E+03  0.00000000000E+00 0. -1.
          6    1    1    2  501    0  0.15976382904E+03  0.68209669769E+02  0.16291253539E+03  0.29435783378E+03  0.17300000000E+03 0.  1.
         -6    1    1    2    0  503 -0.15976382904E+03 -0.68209669769E+02 -0.44246795237E+03  0.50584970989E+03  0.17300000000E+03 0. -1.
</event>
<event>
 4    1  0.5712137E+000  0.1000000E+03  0.7546771E-02  0.1280296E+00
         21   -1    0    0  503  502  0.00000000000E+00  0.00000000000E+00  0.13966341397E+03  0.13966341397E+03  0.00000000000E+00 0. -1.
         21   -1    0    0  501  503 -0.00000000000E+00 -0.00000000000E+00 -0.36203328785E+03  0.36203328785E+03  0.00000000000E+00 0. -1.
          6    1    1    2  501    0  0.16953139731E+02  0.14264020773E+03 -0.11164101852E+03  0.25105050254E+03  0.17300000000E+03 0. -1.
         -6    1    1    2    0  502 -0.16953139731E+02 -0.14264020773E+03 -0.11072885536E+03  0.25064619929E+03  0.17300000000E+03 0. -1.
</event>
<event>
 4    1  0.5712137E+000  0.1000000E+03  0.7546771E-02  0.1280296E+00
         21   -1    0    0  503  502  0.00000000000E+00  0.00000000000E+00  0.78481238512E+03  0.78481238512E+03  0.00000000000E+00 0. -1.
         21   -1    0    0  501  503 -0.00000000000E+00 -0.00000000000E+00 -0.57626568634E+02  0.57626568634E+02  0.00000000000E+00 0. -1.
          6    1    1    2  501    0 -0.38337686945E+02 -0.90150689405E+01  0.13137151191E+03  0.22076803177E+03  0.17300000000E+03 0. -1.
         -6    1    1    2    0  502  0.38337686945E+02  0.90150689405E+01  0.59581430457E+03  0.62167092199E+03  0.17300000000E+03 0. -1.
</event>
<event>
 4    1  0.5712137E+000  0.1000000E+03  0.7546771E-02  0.1280296E+00
         21   -1    0    0  503  502  0.00000000000E+00  0.00000000000E+00  0.22064237802E+03  0.22064237802E+03  0.00000000000E+00 0. -1.
         21   -1    0    0  501  503 -0.00000000000E+00 -0.00000000000E+00 -0.25789136648E+03  0.25789136648E+03  0.00000000000E+00 0. -1.
          6    1    1    2  501    0  0.56283687177E+02  0.93521649909E+01 -0.17309788654E+03  0.25129105586E+03  0.17300000000E+03 0. -1.
         -6    1    1    2    0  502 -0.56283687177E+02 -0.93521649909E+01  0.13584889808E+03  0.22724268864E+03  0.17300000000E+03 0. -1.
</event>
<event>
 4    1  0.5712137E+000  0.1000000E+03  0.7546771E-02  0.1280296E+00
         21   -1    0    0  501  502  0.00000000000E+00  0.00000000000E+00  0.27957371635E+03  0.27957371635E+03  0.00000000000E+00 0.  1.
         21   -1    0    0  502  503 -0.00000000000E+00 -0.00000000000E+00 -0.36315638290E+03  0.36315638290E+03  0.00000000000E+00 0.  1.
          6    1    1    2  501    0  0.25817996230E+03 -0.58911987616E+02 -0.30899908514E+01  0.31633220396E+03  0.17300000000E+03 0.  1.
         -6    1    1    2    0  503 -0.25817996230E+03  0.58911987616E+02 -0.80492675699E+02  0.32639789530E+03  0.17300000000E+03 0.  1.
</event>
<event>
 4    1  0.5712137E+000  0.1000000E+03  0.7546771E-02  0.1280296E+00
         21   -1    0    0  501  502  0.00000000000E+00  0.00000000000E+00  0.15602240688E+03  0.15602240688E+03  0.00000000000E+00 0.  1.
         21   -1    0    0  502  503 -0.00000000000E+00 -0.00000000000E+00 -0.25754529885E+03  0.25754529885E+03  0.00000000000E+00 0.  1.
          6    1    1    2  501    0  0.41891323555E+02  0.36201635413E+02  0.36699127393E+02  0.18531396965E+03  0.17300000000E+03 0.  1.
         -6    1    1    2    0  503 -0.41891323555E+02 -0.36201635413E+02 -0.13822201937E+03  0.22825373608E+03  0.17300000000E+03 0.  1.
</event>
<event>
 4    1  0.5712137E+000  0.1000000E+03  0.7546771E-02  0.1280296E+00
         21   -1    0    0  501  502  0.00000000000E+00  0.00000000000E+00  0.81155192772E+02  0.81155192772E+02  0.00000000000E+00 0.  1.
         21   -1    0    0  502  503 -0.00000000000E+00 -0.00000000000E+00 -0.57789146045E+03  0.57789146045E+03  0.00000000000E+00 0.  1.
          6    1    1    2  501    0  0.27378314348E+02  0.80111853272E+02 -0.97717369878E+02  0.21597491870E+03  0.17300000000E+03 0.  1.
         -6    1    1    2    0  503 -0.27378314348E+02 -0.80111853272E+02 -0.39901889780E+03  0.44307173452E+03  0.17300000000E+03 0.  1.
</event>
<event>
 4    1  0.5712137E+000  0.1000000E+03  0.7546771E-02  0.1280296E+00
         21   -1    0    0  503  502  0.00000000000E+00  0.00000000000E+00  0.38961064961E+03  0.38961064961E+03  0.00000000000E+00 0. -1.
         21   -1    0    0  501  503 -0.00000000000E+00 -0.00000000000E+00 -0.19982617851E+03  0.19982617851E+03  0.00000000000E+00 0. -1.
          6    1    1    2  501    0  0.89385298984E+02 -0.12040751196E+03 -0.73570809810E+02  0.24047736830E+03  0.17300000000E+03 0. -1.
         -6    1    1    2    0  502 -0.89385298984E+02  0.12040751196E+03  0.26335528092E+03  0.34895945982E+03  0.17300000000E+03 0. -1.
</event>
<event>
 4    1  0.5712137E+000  0.1000000E+03  0.7546771E-02  0.1280296E+00
         21   -1    0    0  503  502  0.00000000000E+00  0.00000000000E+00  0.24311111480E+03  0.24311111480E+03  0.00000000000E+00 0. -1.
         21   -1    0    0  501  503 -0.00000000000E+00 -0.00000000000E+00 -0.13141245103E+03  0.13141245103E+03  0.00000000000E+00 0. -1.
          6    1    1    2  501    0  0.28102317874E+02  0.17876073034E+02  0.87445744004E+02  0.19668516060E+03  0.17300000000E+03 0. -1.
         -6    1    1    2    0  502 -0.28102317874E+02 -0.17876073034E+02  0.24252919773E+02  0.17783840523E+03  0.17300000000E+03 0. -1.
</event>
<event>
 4    1  0.5712137E+000  0.1000000E+03  0.7546771E-02  0.1280296E+00
         21   -1    0    0  503  502  0.00000000000E+00  0.00000000000E+00  0.13517287551E+02  0.13517287551E+02  0.00000000000E+00 0. -1.
         21   -1    0    0  501  503 -0.00000000000E+00 -0.00000000000E+00 -0.25159587720E+04  0.25159587720E+04  0.00000000000E+00 0.  1.
          6    1    1    2  501    0  0.63765490662E+01 -0.50589964963E+02 -0.98739017829E+03  0.10037272384E+04  0.17300000000E+03 0. -1.
         -6    1    1    2    0  502 -0.63765490662E+01  0.50589964963E+02 -0.15150513062E+04  0.15257488212E+04  0.17300000000E+03 0. -1.
</event>
<event>
 4    1  0.5712137E+000  0.1000000E+03  0.7546771E-02  0.1280296E+00
         21   -1    0    0  503  502  0.00000000000E+00  0.00000000000E+00  0.79646945925E+02  0.79646945925E+02  0.00000000000E+00 0. -1.
         21   -1    0    0  501  503 -0.00000000000E+00 -0.00000000000E+00 -0.87283603125E+03  0.87283603125E+03  0.00000000000E+00 0.  1.
          6    1    1    2  501    0  0.17241751979E+03  0.98240864518E+02 -0.42281032522E+03  0.49807292609E+03  0.17300000000E+03 0. -1.
         -6    1    1    2    0  502 -0.17241751979E+03 -0.98240864518E+02 -0.37037876010E+03  0.45441005108E+03  0.17300000000E+03 0. -1.
</event>
<event>
 4    1  0.5712137E+000  0.1000000E+03  0.7546771E-02  0.1280296E+00
         21   -1    0    0  503  502  0.00000000000E+00  0.00000000000E+00  0.19710307438E+04  0.19710307438E+04  0.00000000000E+00 0.  1.
         21   -1    0    0  501  503 -0.00000000000E+00 -0.00000000000E+00 -0.25164247382E+02  0.25164247382E+02  0.00000000000E+00 0. -1.
          6    1    1    2  501    0 -0.68080879314E+02  0.44186612157E+02  0.46032136654E+03  0.49840969425E+03  0.17300000000E+03 0.  1.
         -6    1    1    2    0  502  0.68080879314E+02 -0.44186612157E+02  0.14855451298E+04  0.14977852969E+04  0.17300000000E+03 0. -1.
</event>
<event>
 4    1  0.5712137E+000  0.1000000E+03  0.7546771E-02  0.1280296E+00
         21   -1    0    0  503  502  0.00000000000E+00  0.00000000000E+00  0.12528760551E+03  0.12528760551E+03  0.00000000000E+00 0. -1.
         21   -1    0    0  501  503 -0.00000000000E+00 -0.00000000000E+00 -0.61782622196E+03  0.61782622196E+03  0.00000000000E+00 0. -1.
          6    1    1    2  501    0  0.40949320278E+02  0.48939057734E+02 -0.52450218956E+03  0.55597070521E+03  0.17300000000E+03 0. -1.
         -6    1    1    2    0  502 -0.40949320278E+02 -0.48939057734E+02  0.31963573112E+02  0.18714312226E+03  0.17300000000E+03 0. -1.
</event>
<event>
 4    1  0.5712137E+000  0.1000000E+03  0.7546771E-02  0.1280296E+00
         21   -1    0    0  503  502  0.00000000000E+00  0.00000000000E+00  0.68046565799E+02  0.68046565799E+02  0.00000000000E+00 0. -1.
         21   -1    0    0  501  503 -0.00000000000E+00 -0.00000000000E+00 -0.12674584743E+04  0.12674584743E+04  0.00000000000E+00 0. -1.
          6    1    1    2  501    0  0.14123242229E+03  0.86156565526E+02 -0.98656448974E+03  0.10151886737E+04  0.17300000000E+03 0. -1.
         -6    1    1    2    0  502 -0.14123242229E+03 -0.86156565526E+02 -0.21284741881E+03  0.32031636640E+03  0.17300000000E+03 0. -1.
</event>
<event>
 4    1  0.5712137E+000  0.1000000E+03  0.7546771E-02  0.1280296E+00
         21   -1    0    0  503  502  0.00000000000E+00  0.00000000000E+00  0.15503484127E+04  0.15503484127E+04  0.00000000000E+00 0.  1.
         21   -1    0    0  501  503 -0.00000000000E+00 -0.00000000000E+00 -0.78043967481E+02  0.78043967481E+02  0.00000000000E+00 0. -1.
          6    1    1    2  501    0 -0.42692149564E+01 -0.22586469414E+02  0.31848296719E+02  0.17740261780E+03  0.17300000000E+03 0. -1.
         -6    1    1    2    0  502  0.42692149564E+01  0.22586469414E+02  0.14404561485E+04  0.14509897624E+04  0.17300000000E+03 0.  1.
</event>
<event>
 4    1  0.5712137E+000  0.1000000E+03  0.7546771E-02  0.1280296E+00
         21   -1    0    0  503  502  0.00000000000E+00  0.00000000000E+00  0.12590943476E+03  0.12590943476E+03  0.00000000000E+00 0. -1.
         21   -1    0    0  501  503 -0.00000000000E+00 -0.00000000000E+00 -0.29156412904E+03  0.29156412904E+03  0.00000000000E+00 0.  1.
          6    1    1    2  501    0 -0.67473977456E+02 -0.37464205365E+02 -0.11412611468E+03  0.22115622164E+03  0.17300000000E+03 0.  1.
         -6    1    1    2    0  502  0.67473977456E+02  0.37464205365E+02 -0.51528579595E+02  0.19631734216E+03  0.17300000000E+03 0. -1.
</event>
<event>
 4    1  0.5712137E+000  0.1000000E+03  0.7546771E-02  0.1280296E+00
         21   -1    0    0  503  502  0.00000000000E+00  0.00000000000E+00  0.14896755624E+03  0.14896755624E+03  0.00000000000E+00 0. -1.
         21   -1    0    0  501  503 -0.00000000000E+00 -0.00000000000E+00 -0.41458153721E+03  0.41458153721E+03  0.00000000000E+00 0.  1.
          6    1    1    2  501    0  0.51249402913E+02  0.12338910116E+02 -0.32606381075E+03  0.37286104474E+03  0.17300000000E+03 0.  1.
         -6    1    1    2    0  502 -0.51249402913E+02 -0.12338910116E+02  0.60449829785E+02  0.19068804872E+03  0.17300000000E+03 0. -1.
</event>
<event>
 4    1  0.5712137E+000  0.1000000E+03  0.7546771E-02  0.1280296E+00
         21   -1    0    0  503  502  0.00000000000E+00  0.00000000000E+00  0.34131076193E+03  0.34131076193E+03  0.00000000000E+00 0. -1.
         21   -1    0    0  501  503 -0.00000000000E+00 -0.00000000000E+00 -0.31052414866E+03  0.31052414866E+03  0.00000000000E+00 0.  1.
          6    1    1    2  501    0 -0.10448350340E+02  0.25863231561E+01 -0.26048738954E+03  0.31288741937E+03  0.17300000000E+03 0.  1.
         -6    1    1    2    0  502  0.10448350340E+02 -0.25863231561E+01  0.29127400281E+03  0.33894749122E+03  0.17300000000E+03 0. -1.
</event>
<event>
 4    1  0.5712137E+000  0.1000000E+03  0.7546771E-02  0.1280296E+00
         21   -1    0    0  503  502  0.00000000000E+00  0.00000000000E+00  0.22900169429E+03  0.22900169429E+03  0.00000000000E+00 0. -1.
         21   -1    0    0  501  503 -0.00000000000E+00 -0.00000000000E+00 -0.80866499835E+03  0.80866499835E+03  0.00000000000E+00 0.  1.
          6    1    1    2  501    0  0.34768464978E+03  0.16559349703E+03 -0.39034937243E+03  0.57498474285E+03  0.17300000000E+03 0.  1.
         -6    1    1    2    0  502 -0.34768464978E+03 -0.16559349703E+03 -0.18931393163E+03  0.46268194979E+03  0.17300000000E+03 0. -1.
</event>
<event>
 4    1  0.5712137E+000  0.1000000E+03  0.7546771E-02  0.1280296E+00
         21   -1    0    0  503  502  0.00000000000E+00  0.00000000000E+00  0.63929342421E+03  0.63929342421E+03  0.00000000000E+00 0. -1.
         21   -1    0    0  501  503 -0.00000000000E+00 -0.00000000000E+00 -0.15841111473E+03  0.15841111473E+03  0.00000000000E+00 0.  1.
          6    1    1    2  501    0 -0.10703685972E+03  0.10093030364E+03 -0.38967715648E+02  0.23041549079E+03  0.17300000000E+03 0.  1.
         -6    1    1    2    0  502  0.10703685972E+03 -0.10093030364E+03  0.51985002512E+03  0.56728904815E+03  0.17300000000E+03 0. -1.
</event>
<event>
 4    1  0.5712137E+000  0.1000000E+03  0.7546771E-02  0.1280296E+00
         21   -1    0    0  503  502  0.00000000000E+00  0.00000000000E+00  0.75251955474E+02  0.75251955474E+02  0.00000000000E+00 0.  1.
         21   -1    0    0  501  503 -0.00000000000E+00 -0.00000000000E+00 -0.72137282587E+03  0.72137282587E+03  0.00000000000E+00 0.  1.
          6    1    1    2  501    0  0.96900610296E+01  0.14536206697E+03 -0.41873010500E+03  0.47590747906E+03  0.17300000000E+03 0.  1.
         -6    1    1    2    0  502 -0.96900610296E+01 -0.14536206697E+03 -0.22739076540E+03  0.32071730229E+03  0.17300000000E+03 0.  1.
</event>
<event>
 4    1  0.5712137E+000  0.1000000E+03  0.7546771E-02  0.1280296E+00
         21   -1    0    0  503  502  0.00000000000E+00  0.00000000000E+00  0.10033468998E+03  0.10033468998E+03  0.00000000000E+00 0. -1.
         21   -1    0    0  501  503 -0.00000000000E+00 -0.00000000000E+00 -0.87944732559E+03  0.87944732559E+03  0.00000000000E+00 0. -1.
          6    1    1    2  501    0 -0.55271333113E+02  0.66026790626E+02 -0.76161306825E+03  0.78574672960E+03  0.17300000000E+03 0. -1.
         -6    1    1    2    0  502  0.55271333113E+02 -0.66026790626E+02 -0.17499567353E+02  0.19403528597E+03  0.17300000000E+03 0. -1.
</event>
<event>
 4    1  0.5712137E+000  0.1000000E+03  0.7546771E-02  0.1280296E+00
         21   -1    0    0  503  502  0.00000000000E+00  0.00000000000E+00  0.11490845033E+04  0.11490845033E+04  0.00000000000E+00 0. -1.
         21   -1    0    0  501  503 -0.00000000000E+00 -0.00000000000E+00 -0.34410366228E+02  0.34410366228E+02  0.00000000000E+00 0. -1.
          6    1    1    2  501    0  0.96530001394E+02  0.14898628782E+02  0.53218984565E+03  0.56806253364E+03  0.17300000000E+03 0. -1.
         -6    1    1    2    0  502 -0.96530001394E+02 -0.14898628782E+02  0.58248429143E+03  0.61543233590E+03  0.17300000000E+03 0. -1.
</event>
<event>
 4    1  0.5712137E+000  0.1000000E+03  0.7546771E-02  0.1280296E+00
         21   -1    0    0  503  502  0.00000000000E+00  0.00000000000E+00  0.45306170399E+03  0.45306170399E+03  0.00000000000E+00 0. -1.
         21   -1    0    0  501  503 -0.00000000000E+00 -0.00000000000E+00 -0.12604399398E+03  0.12604399398E+03  0.00000000000E+00 0. -1.
          6    1    1    2  501    0 -0.94641782803E+02  0.41334441847E+02  0.78133272791E+01  0.20163246568E+03  0.17300000000E+03 0. -1.
         -6    1    1    2    0  502  0.94641782803E+02 -0.41334441847E+02  0.31920438274E+03  0.37747323229E+03  0.17300000000E+03 0. -1.
</event>
<event>
 4    1  0.5712137E+000  0.1000000E+03  0.7546771E-02  0.1280296E+00
         21   -1    0    0  501  502  0.00000000000E+00  0.00000000000E+00  0.19745537815E+04  0.19745537815E+04  0.00000000000E+00 0. -1.
         21   -1    0    0  502  503 -0.00000000000E+00 -0.00000000000E+00 -0.37636661725E+02  0.37636661725E+02  0.00000000000E+00 0. -1.
          6    1    1    2  501    0 -0.10407768338E+03  0.32383664120E+02  0.16338529412E+04  0.16465980989E+04  0.17300000000E+03 0. -1.
         -6    1    1    2    0  503  0.10407768338E+03 -0.32383664120E+02  0.30306417855E+03  0.36559234428E+03  0.17300000000E+03 0. -1.
</event>
<event>
 4    1  0.5712137E+000  0.1000000E+03  0.7546771E-02  0.1280296E+00
         21   -1    0    0  501  502  0.00000000000E+00  0.00000000000E+00  0.21041985012E+03  0.21041985012E+03  0.00000000000E+00 0. -1.
         21   -1    0    0  502  503 -0.00000000000E+00 -0.00000000000E+00 -0.48526084282E+03  0.48526084282E+03  0.00000000000E+00 0. -1.
          6    1    1    2  501    0  0.14748381000E+03  0.91327632275E+02  0.85897913451E+02  0.25961444907E+03  0.17300000000E+03 0. -1.
         -6    1    1    2    0  503 -0.14748381000E+03 -0.91327632275E+02 -0.36073890615E+03  0.43606624387E+03  0.17300000000E+03 0. -1.
</event>
<event>
 4    1  0.5712137E+000  0.1000000E+03  0.7546771E-02  0.1280296E+00
         21   -1    0    0  501  502  0.00000000000E+00  0.00000000000E+00  0.34281749705E+03  0.34281749705E+03  0.00000000000E+00 0. -1.
         21   -1    0    0  502  503 -0.00000000000E+00 -0.00000000000E+00 -0.10657588463E+03  0.10657588463E+03  0.00000000000E+00 0. -1.
          6    1    1    2  501    0 -0.58057419936E+02  0.10414138807E+02  0.18386634508E+03  0.25925846399E+03  0.17300000000E+03 0. -1.
         -6    1    1    2    0  503  0.58057419936E+02 -0.10414138807E+02  0.52375267340E+02  0.19013491769E+03  0.17300000000E+03 0. -1.
</event>
<event>
 4    1  0.5712137E+000  0.1000000E+03  0.7546771E-02  0.1280296E+00
         21   -1    0    0  501  502  0.00000000000E+00  0.00000000000E+00  0.11672221234E+04  0.11672221234E+04  0.00000000000E+00 0.  1.
         21   -1    0    0  502  503 -0.00000000000E+00 -0.00000000000E+00 -0.46515867199E+02  0.46515867199E+02  0.00000000000E+00 0. -1.
          6    1    1    2  501    0  0.28498389560E+02  0.56108518866E+02  0.93239018615E+03  0.95038980599E+03  0.17300000000E+03 0. -1.
         -6    1    1    2    0  503 -0.28498389560E+02 -0.56108518866E+02  0.18831607004E+03  0.26334818460E+03  0.17300000000E+03 0.  1.
</event>
<event>
 4    1  0.5712137E+000  0.1000000E+03  0.7546771E-02  0.1280296E+00
         21   -1    0    0  501  502  0.00000000000E+00  0.00000000000E+00  0.37474400800E+02  0.37474400800E+02  0.00000000000E+00 0. -1.
         21   -1    0    0  502  503 -0.00000000000E+00 -0.00000000000E+00 -0.13159909980E+04  0.13159909980E+04  0.00000000000E+00 0.  1.
          6    1    1    2  501    0 -0.12115720936E+03  0.34191563712E+02 -0.45797661670E+03  0.50548957838E+03  0.17300000000E+03 0. -1.
         -6    1    1    2    0  503  0.12115720936E+03 -0.34191563712E+02 -0.82053998046E+03  0.84797582037E+03  0.17300000000E+03 0.  1.
</event>
<event>
 4    1  0.5712137E+000  0.1000000E+03  0.7546771E-02  0.1280296E+00
         21   -1    0    0  501  502  0.00000000000E+00  0.00000000000E+00  0.92717120600E+03  0.92717120600E+03  0.00000000000E+00 0. -1.
         21   -1    0    0  502  503 -0.00000000000E+00 -0.00000000000E+00 -0.16856408989E+03  0.16856408989E+03  0.00000000000E+00 0.  1.
          6    1    1    2  501    0 -0.20003397109E+03 -0.13109599441E+03  0.74375324101E+03  0.80018599891E+03  0.17300000000E+03 0. -1.
         -6    1    1    2    0  503  0.20003397109E+03  0.13109599441E+03  0.14853875100E+02  0.29554929698E+03  0.17300000000E+03 0.  1.
</event>
<event>
 4    1  0.5712137E+000  0.1000000E+03  0.7546771E-02  0.1280296E+00
         21   -1    0    0  501  502  0.00000000000E+00  0.00000000000E+00  0.35657682910E+02  0.35657682910E+02  0.00000000000E+00 0. -1.
         21   -1    0    0  502  503 -0.00000000000E+00 -0.00000000000E+00 -0.18588631484E+04  0.18588631484E+04  0.00000000000E+00 0.  1.
          6    1    1    2  501    0  0.64357155026E+00  0.44246744318E+02 -0.22923208135E+03  0.29057621322E+03  0.17300000000E+03 0. -1.
         -6    1    1    2    0  503 -0.64357155026E+00 -0.44246744318E+02 -0.15939733842E+04  0.16039446181E+04  0.17300000000E+03 0.  1.
</event>
<event>
 4    1  0.5712137E+000  0.1000000E+03  0.7546771E-02  0.1280296E+00
         21   -1    0    0  503  502  0.00000000000E+00  0.00000000000E+00  0.61142336569E+03  0.61142336569E+03  0.00000000000E+00 0.  1.
         21   -1    0    0  501  503 -0.00000000000E+00 -0.00000000000E+00 -0.10943718308E+03  0.10943718308E+03  0.00000000000E+00 0.  1.
          6    1    1    2  501    0 -0.10339110603E+03  0.37387416270E+02  0.31140389952E+02  0.20733128946E+03  0.17300000000E+03 0.  1.
         -6    1    1    2    0  502  0.10339110603E+03 -0.37387416270E+02  0.47084579266E+03  0.51352925931E+03  0.17300000000E+03 0.  1.
</event>
<event>
 4    1  0.5712137E+000  0.1000000E+03  0.7546771E-02  0.1280296E+00
         21   -1    0    0  503  502  0.00000000000E+00  0.00000000000E+00  0.64734533805E+02  0.64734533805E+02  0.00000000000E+00 0. -1.
         21   -1    0    0  501  503 -0.00000000000E+00 -0.00000000000E+00 -0.67503515741E+03  0.67503515741E+03  0.00000000000E+00 0. -1.
          6    1    1    2  501    0  0.56308886310E+02 -0.79443272446E+02 -0.42100677786E+03  0.46546496240E+03  0.17300000000E+03 0. -1.
         -6    1    1    2    0  502 -0.56308886310E+02  0.79443272446E+02 -0.18929384574E+03  0.27430472881E+03  0.17300000000E+03 0. -1.
</event>
<event>
 4    1  0.5712137E+000  0.1000000E+03  0.7546771E-02  0.1280296E+00
         21   -1    0    0  503  502  0.00000000000E+00  0.00000000000E+00  0.19206884505E+04  0.19206884505E+04  0.00000000000E+00 0. -1.
         21   -1    0    0  501  503 -0.00000000000E+00 -0.00000000000E+00 -0.24683532261E+02  0.24683532261E+02  0.00000000000E+00 0. -1.
          6    1    1    2  501    0 -0.43943281039E+02  0.61399748213E+02  0.46315763711E+03  0.50014491684E+03  0.17300000000E+03 0. -1.
         -6    1    1    2    0  502  0.43943281039E+02 -0.61399748213E+02  0.14328472811E+04  0.14452270659E+04  0.17300000000E+03 0. -1.
</event>
<event>
 4    1  0.5712137E+000  0.1000000E+03  0.7546771E-02  0.1280296E+00
         21   -1    0    0  503  502  0.00000000000E+00  0.00000000000E+00  0.33579364659E+03  0.33579364659E+03  0.00000000000E+00 0. -1.
         21   -1    0    0  501  503 -0.00000000000E+00 -0.00000000000E+00 -0.18738448083E+04  0.18738448083E+04  0.00000000000E+00 0. -1.
          6    1    1    2  501    0  0.79981528318E+02  0.22184073648E+03 -0.17960060425E+04  0.18196639970E+04  0.17300000000E+03 0. -1.
         -6    1    1    2    0  502 -0.79981528318E+02 -0.22184073648E+03  0.25795488084E+03  0.38997445786E+03  0.17300000000E+03 0. -1.
</event>
<event>
 4    1  0.5712137E+000  0.1000000E+03  0.7546771E-02  0.1280296E+00
         21   -1    0    0  503  502  0.00000000000E+00  0.00000000000E+00  0.20246155181E+03  0.20246155181E+03  0.00000000000E+00 0. -1.
         21   -1    0    0  501  503 -0.00000000000E+00 -0.00000000000E+00 -0.28457410435E+03  0.28457410435E+03  0.00000000000E+00 0. -1.
          6    1    1    2  501    0 -0.11045788896E+03 -0.12245911894E+03 -0.63493834661E+02  0.24730072399E+03  0.17300000000E+03 0. -1.
         -6    1    1    2    0  502  0.11045788896E+03  0.12245911894E+03 -0.18618717876E+02  0.23973493217E+03  0.17300000000E+03 0. -1.
</event>
<event>
 4    1  0.5712137E+000  0.1000000E+03  0.7546771E-02  0.1280296E+00
         21   -1    0    0  503  502  0.00000000000E+00  0.00000000000E+00  0.95490950252E+03  0.95490950252E+03  0.00000000000E+00 0. -1.
         21   -1    0    0  501  503 -0.00000000000E+00 -0.00000000000E+00 -0.10652110070E+03  0.10652110070E+03  0.00000000000E+00 0. -1.
          6    1    1    2  501    0 -0.16048924283E+03  0.21110051100E+03  0.36042039925E+03  0.47974168779E+03  0.17300000000E+03 0. -1.
         -6    1    1    2    0  502  0.16048924283E+03 -0.21110051100E+03  0.48796800257E+03  0.58168891543E+03  0.17300000000E+03 0. -1.
</event>
<event>
 4    1  0.5712137E+000  0.1000000E+03  0.7546771E-02  0.1280296E+00
         21   -1    0    0  501  502  0.00000000000E+00  0.00000000000E+00  0.43729099829E+02  0.43729099829E+02  0.00000000000E+00 0. -1.
         21   -1    0    0  502  503 -0.00000000000E+00 -0.00000000000E+00 -0.72302916938E+03  0.72302916938E+03  0.00000000000E+00 0. -1.
          6    1    1    2  501    0  0.91373850215E+01 -0.31198843768E+02 -0.28546605412E+03  0.33537550255E+03  0.17300000000E+03 0. -1.
         -6    1    1    2    0  503 -0.91373850215E+01  0.31198843768E+02 -0.39383401543E+03  0.43138276666E+03  0.17300000000E+03 0. -1.
</event>
<event>
 4    1  0.5712137E+000  0.1000000E+03  0.7546771E-02  0.1280296E+00
         21   -1    0    0  503  502  0.00000000000E+00  0.00000000000E+00  0.38826202241E+03  0.38826202241E+03  0.00000000000E+00 0. -1.
         21   -1    0    0  501  503 -0.00000000000E+00 -0.00000000000E+00 -0.13976218553E+03  0.13976218553E+03  0.00000000000E+00 0. -1.
          6    1    1    2  501    0  0.10298016123E+02 -0.69028124498E+02  0.28237007956E+03  0.33842693885E+03  0.17300000000E+03 0. -1.
         -6    1    1    2    0  502 -0.10298016123E+02  0.69028124498E+02 -0.33870242685E+02  0.18959726909E+03  0.17300000000E+03 0. -1.
</event>
<event>
 4    1  0.5712137E+000  0.1000000E+03  0.7546771E-02  0.1280296E+00
         21   -1    0    0  503  502  0.00000000000E+00  0.00000000000E+00  0.38676038850E+02  0.38676038850E+02  0.00000000000E+00 0.  1.
         21   -1    0    0  501  503 -0.00000000000E+00 -0.00000000000E+00 -0.19343471348E+04  0.19343471348E+04  0.00000000000E+00 0.  1.
          6    1    1    2  501    0  0.16827442937E+03 -0.93903831167E+01 -0.14108397982E+04  0.14313638248E+04  0.17300000000E+03 0.  1.
         -6    1    1    2    0  502 -0.16827442937E+03  0.93903831167E+01 -0.48483129774E+03  0.54165934880E+03  0.17300000000E+03 0.  1.
</event>
<event>
 4    1  0.5712137E+000  0.1000000E+03  0.7546771E-02  0.1280296E+00
         21   -1    0    0  503  502  0.00000000000E+00  0.00000000000E+00  0.28684570824E+03  0.28684570824E+03  0.00000000000E+00 0.  1.
         21   -1    0    0  501  503 -0.00000000000E+00 -0.00000000000E+00 -0.23732831959E+03  0.23732831959E+03  0.00000000000E+00 0.  1.
          6    1    1    2  501    0 -0.76869849379E+02  0.60703508274E+01 -0.15549597730E+03  0.24505881306E+03  0.17300000000E+03 0.  1.
         -6    1    1    2    0  502  0.76869849379E+02 -0.60703508274E+01  0.20501336594E+03  0.27911521477E+03  0.17300000000E+03 0.  1.
</event>
<event>
 4    1  0.5712137E+000  0.1000000E+03  0.7546771E-02  0.1280296E+00
         21   -1    0    0  503  502  0.00000000000E+00  0.00000000000E+00  0.13883155566E+03  0.13883155566E+03  0.00000000000E+00 0.  1.
         21   -1    0    0  501  503 -0.00000000000E+00 -0.00000000000E+00 -0.51346061263E+03  0.51346061263E+03  0.00000000000E+00 0.  1.
          6    1    1    2  501    0  0.67941123818E+02 -0.11181141834E+03 -0.37749267989E+03  0.43537054671E+03  0.17300000000E+03 0.  1.
         -6    1    1    2    0  502 -0.67941123818E+02  0.11181141834E+03  0.28636229144E+01  0.21692162159E+03  0.17300000000E+03 0.  1.
</event>
<event>
 4    1  0.5712137E+000  0.1000000E+03  0.7546771E-02  0.1280296E+00
         21   -1    0    0  501  502  0.00000000000E+00  0.00000000000E+00  0.20852975861E+03  0.20852975861E+03  0.00000000000E+00 0.  1.
         21   -1    0    0  502  503 -0.00000000000E+00 -0.00000000000E+00 -0.59280562038E+03  0.59280562038E+03  0.00000000000E+00 0.  1.
          6    1    1    2  501    0 -0.12169718473E+03  0.90021568205E+02  0.11102955903E+03  0.25528542945E+03  0.17300000000E+03 0.  1.
         -6    1    1    2    0  503  0.12169718473E+03 -0.90021568205E+02 -0.49530542080E+03  0.54604994954E+03  0.17300000000E+03 0.  1.
</event>
<event>
 4    1  0.5712137E+000  0.1000000E+03  0.7546771E-02  0.1280296E+00
         21   -1    0    0  501  502  0.00000000000E+00  0.00000000000E+00  0.13103899757E+03  0.13103899757E+03  0.00000000000E+00 0.  1.
         21   -1    0    0  502  503 -0.00000000000E+00 -0.00000000000E+00 -0.77988840238E+03  0.77988840238E+03  0.00000000000E+00 0.  1.
          6    1    1    2  501    0 -0.30647542472E+02  0.90943094572E+02  0.33344937371E+02  0.20062602812E+03  0.17300000000E+03 0.  1.
         -6    1    1    2    0  503  0.30647542472E+02 -0.90943094572E+02 -0.68219434219E+03  0.71030137183E+03  0.17300000000E+03 0.  1.
</event>
<event>
 4    1  0.5712137E+000  0.1000000E+03  0.7546771E-02  0.1280296E+00
         21   -1    0    0  501  502  0.00000000000E+00  0.00000000000E+00  0.81631599456E+03  0.81631599456E+03  0.00000000000E+00 0. -1.
         21   -1    0    0  502  503 -0.00000000000E+00 -0.00000000000E+00 -0.28493242529E+03  0.28493242529E+03  0.00000000000E+00 0. -1.
          6    1    1    2  501    0  0.35751554263E+03  0.17320481077E+03  0.50747702471E+03  0.66729243987E+03  0.17300000000E+03 0. -1.
         -6    1    1    2    0  503 -0.35751554263E+03 -0.17320481077E+03  0.23906544560E+02  0.43395597999E+03  0.17300000000E+03 0. -1.
</event>
<event>
 4    1  0.5712137E+000  0.1000000E+03  0.7546771E-02  0.1280296E+00
         21   -1    0    0  501  502  0.00000000000E+00  0.00000000000E+00  0.16111513075E+03  0.16111513075E+03  0.00000000000E+00 0. -1.
         21   -1    0    0  502  503 -0.00000000000E+00 -0.00000000000E+00 -0.44394643180E+03  0.44394643180E+03  0.00000000000E+00 0. -1.
          6    1    1    2  501    0  0.24528394216E+02 -0.55283793460E+02  0.78918691628E+02  0.19953721415E+03  0.17300000000E+03 0. -1.
         -6    1    1    2    0  503 -0.24528394216E+02  0.55283793460E+02 -0.36174999268E+03  0.40552434840E+03  0.17300000000E+03 0. -1.
</event>
<event>
 4    1  0.5712137E+000  0.1000000E+03  0.7546771E-02  0.1280296E+00
         21   -1    0    0  503  502  0.00000000000E+00  0.00000000000E+00  0.15844010079E+03  0.15844010079E+03  0.00000000000E+00 0.  1.
         21   -1    0    0  501  503 -0.00000000000E+00 -0.00000000000E+00 -0.51665797810E+03  0.51665797810E+03  0.00000000000E+00 0.  1.
          6    1    1    2  501    0  0.10245731317E+02 -0.17889074360E+03 -0.34521771505E+03  0.42568902257E+03  0.17300000000E+03 0.  1.
         -6    1    1    2    0  502 -0.10245731317E+02  0.17889074360E+03 -0.13000162271E+02  0.24940905632E+03  0.17300000000E+03 0.  1.
</event>
<event>
 4    1  0.5712137E+000  0.1000000E+03  0.7546771E-02  0.1280296E+00
         21   -1    0    0  503  502  0.00000000000E+00  0.00000000000E+00  0.16612640555E+03  0.16612640555E+03  0.00000000000E+00 0.  1.
         21   -1    0    0  501  503 -0.00000000000E+00 -0.00000000000E+00 -0.30589925625E+03  0.30589925625E+03  0.00000000000E+00 0.  1.
          6    1    1    2  501    0 -0.85573512864E+02 -0.46294462092E+02 -0.18178280315E+03  0.26914678309E+03  0.17300000000E+03 0.  1.
         -6    1    1    2    0  502  0.85573512864E+02  0.46294462092E+02  0.42009952450E+02  0.20287887872E+03  0.17300000000E+03 0.  1.
</event>
<event>
 4    1  0.5712137E+000  0.1000000E+03  0.7546771E-02  0.1280296E+00
         21   -1    0    0  503  502  0.00000000000E+00  0.00000000000E+00  0.12572436781E+04  0.12572436781E+04  0.00000000000E+00 0.  1.
         21   -1    0    0  501  503 -0.00000000000E+00 -0.00000000000E+00 -0.64098229245E+02  0.64098229245E+02  0.00000000000E+00 0. -1.
          6    1    1    2  501    0 -0.83402478481E+02 -0.95555580816E+02  0.16384968867E+03  0.26993066317E+03  0.17300000000E+03 0.  1.
         -6    1    1    2    0  502  0.83402478481E+02  0.95555580816E+02  0.10292957601E+04  0.10514112441E+04  0.17300000000E+03 0. -1.
</event>
<event>
 4    1  0.5712137E+000  0.1000000E+03  0.7546771E-02  0.1280296E+00
         21   -1    0    0  501  502  0.00000000000E+00  0.00000000000E+00  0.17737236111E+03  0.17737236111E+03  0.00000000000E+00 0.  1.
         21   -1    0    0  502  503 -0.00000000000E+00 -0.00000000000E+00 -0.30542982877E+03  0.30542982877E+03  0.00000000000E+00 0.  1.
          6    1    1    2  501    0 -0.12668666780E+03 -0.80983233911E+02 -0.10600456748E+03  0.25253467940E+03  0.17300000000E+03 0.  1.
         -6    1    1    2    0  503  0.12668666780E+03  0.80983233911E+02 -0.22052900182E+02  0.23026751048E+03  0.17300000000E+03 0.  1.
</event>
<event>
 4    1  0.5712137E+000  0.1000000E+03  0.7546771E-02  0.1280296E+00
         21   -1    0    0  501  502  0.00000000000E+00  0.00000000000E+00  0.84150752249E+03  0.84150752249E+03  0.00000000000E+00 0.  1.
         21   -1    0    0  502  503 -0.00000000000E+00 -0.00000000000E+00 -0.40157837202E+02  0.40157837202E+02  0.00000000000E+00 0. -1.
          6    1    1    2  501    0 -0.35115733332E+01 -0.60296264348E+02  0.43593130242E+03  0.47287743768E+03  0.17300000000E+03 0.  1.
         -6    1    1    2    0  503  0.35115733332E+01  0.60296264348E+02  0.36541838287E+03  0.40878792201E+03  0.17300000000E+03 0. -1.
</event>
<event>
 4    1  0.5712137E+000  0.1000000E+03  0.7546771E-02  0.1280296E+00
         21   -1    0    0  501  502  0.00000000000E+00  0.00000000000E+00  0.12889389878E+04  0.12889389878E+04  0.00000000000E+00 0.  1.
         21   -1    0    0  502  503 -0.00000000000E+00 -0.00000000000E+00 -0.55148148994E+02  0.55148148994E+02  0.00000000000E+00 0. -1.
          6    1    1    2  501    0 -0.10574450684E+03 -0.13874106634E+03  0.87791082314E+03  0.91163994955E+03  0.17300000000E+03 0.  1.
         -6    1    1    2    0  503  0.10574450684E+03  0.13874106634E+03  0.35588001571E+03  0.43244718730E+03  0.17300000000E+03 0. -1.
</event>
<event>
 4    1  0.5712137E+000  0.1000000E+03  0.7546771E-02  0.1280296E+00
         21   -1    0    0  501  502  0.00000000000E+00  0.00000000000E+00  0.40625368287E+02  0.40625368287E+02  0.00000000000E+00 0.  1.
         21   -1    0    0  502  503 -0.00000000000E+00 -0.00000000000E+00 -0.16183581081E+04  0.16183581081E+04  0.00000000000E+00 0. -1.
          6    1    1    2  501    0  0.13720434669E+03  0.75797725405E+02 -0.44578611696E+03  0.50321425855E+03  0.17300000000E+03 0.  1.
         -6    1    1    2    0  503 -0.13720434669E+03 -0.75797725405E+02 -0.11319466229E+04  0.11557692178E+04  0.17300000000E+03 0. -1.
</event>
<event>
 4    1  0.5712137E+000  0.1000000E+03  0.7546771E-02  0.1280296E+00
         21   -1    0    0  501  502  0.00000000000E+00  0.00000000000E+00  0.14422400439E+03  0.14422400439E+03  0.00000000000E+00 0.  1.
         21   -1    0    0  502  503 -0.00000000000E+00 -0.00000000000E+00 -0.91773011069E+03  0.91773011069E+03  0.00000000000E+00 0. -1.
          6    1    1    2  501    0  0.55912847236E+02 -0.24483277500E+03 -0.97199353983E+02  0.32007194288E+03  0.17300000000E+03 0.  1.
         -6    1    1    2    0  503 -0.55912847236E+02  0.24483277500E+03 -0.67630675232E+03  0.74188217221E+03  0.17300000000E+03 0. -1.
</event>
<event>
 4    1  0.5712137E+000  0.1000000E+03  0.7546771E-02  0.1280296E+00
         21   -1    0    0  503  502  0.00000000000E+00  0.00000000000E+00  0.12752766300E+03  0.12752766300E+03  0.00000000000E+00 0. -1.
         21   -1    0    0  501  503 -0.00000000000E+00 -0.00000000000E+00 -0.42958434764E+03  0.42958434764E+03  0.00000000000E+00 0. -1.
          6    1    1    2  501    0  0.30767466448E+02 -0.73941224095E+02 -0.31264186711E+03  0.36618011781E+03  0.17300000000E+03 0. -1.
         -6    1    1    2    0  502 -0.30767466448E+02  0.73941224095E+02  0.10585182474E+02  0.19093189283E+03  0.17300000000E+03 0. -1.
</event>
<event>
 4    1  0.5712137E+000  0.1000000E+03  0.7546771E-02  0.1280296E+00
         21   -1    0    0  503  502  0.00000000000E+00  0.00000000000E+00  0.74652111029E+03  0.74652111029E+03  0.00000000000E+00 0. -1.
         21   -1    0    0  501  503 -0.00000000000E+00 -0.00000000000E+00 -0.19686793147E+03  0.19686793147E+03  0.00000000000E+00 0. -1.
          6    1    1    2  501    0 -0.20070731598E+03 -0.63640417195E+02 -0.56938028054E+02  0.27839624356E+03  0.17300000000E+03 0. -1.
         -6    1    1    2    0  502  0.20070731598E+03  0.63640417195E+02  0.60659120688E+03  0.66499279819E+03  0.17300000000E+03 0. -1.
</event>
<event>
 4    1  0.5712137E+000  0.1000000E+03  0.7546771E-02  0.1280296E+00
         21   -1    0    0  503  502  0.00000000000E+00  0.00000000000E+00  0.74293323095E+03  0.74293323095E+03  0.00000000000E+00 0. -1.
         21   -1    0    0  501  503 -0.00000000000E+00 -0.00000000000E+00 -0.76185933810E+02  0.76185933810E+02  0.00000000000E+00 0. -1.
          6    1    1    2  501    0  0.28006756945E+02 -0.27768672963E+02  0.60548066283E+02  0.18748478862E+03  0.17300000000E+03 0. -1.
         -6    1    1    2    0  502 -0.28006756945E+02  0.27768672963E+02  0.60619923086E+03  0.63163437614E+03  0.17300000000E+03 0. -1.
</event>
<event>
 4    1  0.5712137E+000  0.1000000E+03  0.7546771E-02  0.1280296E+00
         21   -1    0    0  503  502  0.00000000000E+00  0.00000000000E+00  0.10126028548E+03  0.10126028548E+03  0.00000000000E+00 0. -1.
         21   -1    0    0  501  503 -0.00000000000E+00 -0.00000000000E+00 -0.48095741149E+03  0.48095741149E+03  0.00000000000E+00 0. -1.
          6    1    1    2  501    0  0.62548648262E+02 -0.71599026492E+02 -0.31999464869E+03  0.37598447998E+03  0.17300000000E+03 0. -1.
         -6    1    1    2    0  502 -0.62548648262E+02  0.71599026492E+02 -0.59702477323E+02  0.20623321700E+03  0.17300000000E+03 0. -1.
</event>
<event>
 4    1  0.5712137E+000  0.1000000E+03  0.7546771E-02  0.1280296E+00
         21   -1    0    0  503  502  0.00000000000E+00  0.00000000000E+00  0.79397493067E+02  0.79397493067E+02  0.00000000000E+00 0. -1.
         21   -1    0    0  501  503 -0.00000000000E+00 -0.00000000000E+00 -0.39431574831E+03  0.39431574831E+03  0.00000000000E+00 0. -1.
          6    1    1    2  501    0 -0.67380076291E+01 -0.27939757596E+02 -0.12598993589E+03  0.21593632104E+03  0.17300000000E+03 0. -1.
         -6    1    1    2    0  502  0.67380076291E+01  0.27939757596E+02 -0.18892831935E+03  0.25777692033E+03  0.17300000000E+03 0. -1.
</event>
<event>
 4    1  0.5712137E+000  0.1000000E+03  0.7546771E-02  0.1280296E+00
         21   -1    0    0  503  502  0.00000000000E+00  0.00000000000E+00  0.37955845139E+03  0.37955845139E+03  0.00000000000E+00 0. -1.
         21   -1    0    0  501  503 -0.00000000000E+00 -0.00000000000E+00 -0.21420258669E+03  0.21420258669E+03  0.00000000000E+00 0. -1.
          6    1    1    2  501    0  0.23974553904E+02  0.20166372647E+03 -0.22117545732E+02  0.26769614050E+03  0.17300000000E+03 0. -1.
         -6    1    1    2    0  502 -0.23974553904E+02 -0.20166372647E+03  0.18747341044E+03  0.32606489758E+03  0.17300000000E+03 0. -1.
</event>
<event>
 4    1  0.5712137E+000  0.1000000E+03  0.7546771E-02  0.1280296E+00
         21   -1    0    0  503  502  0.00000000000E+00  0.00000000000E+00  0.25298083167E+03  0.25298083167E+03  0.00000000000E+00 0. -1.
         21   -1    0    0  501  503 -0.00000000000E+00 -0.00000000000E+00 -0.17415413387E+03  0.17415413387E+03  0.00000000000E+00 0. -1.
          6    1    1    2  501    0  0.93230261251E+02 -0.58337737216E+02 -0.64689164742E+01  0.20510002457E+03  0.17300000000E+03 0. -1.
         -6    1    1    2    0  502 -0.93230261251E+02  0.58337737216E+02  0.85295614274E+02  0.22203494097E+03  0.17300000000E+03 0. -1.
</event>
<event>
 4    1  0.5712137E+000  0.1000000E+03  0.7546771E-02  0.1280296E+00
         21   -1    0    0  501  502  0.00000000000E+00  0.00000000000E+00  0.74905247451E+02  0.74905247451E+02  0.00000000000E+00 0.  1.
         21   -1    0    0  502  503 -0.00000000000E+00 -0.00000000000E+00 -0.52084827132E+03  0.52084827132E+03  0.00000000000E+00 0.  1.
          6    1    1    2  501    0  0.75587929288E+01 -0.85981905004E+02 -0.16198745090E+03  0.25222798732E+03  0.17300000000E+03 0.  1.
         -6    1    1    2    0  503 -0.75587929288E+01  0.85981905004E+02 -0.28395557297E+03  0.34352553145E+03  0.17300000000E+03 0.  1.
</event>
<event>
 4    1  0.5712137E+000  0.1000000E+03  0.7546771E-02  0.1280296E+00
         21   -1    0    0  501  502  0.00000000000E+00  0.00000000000E+00  0.12443043755E+03  0.12443043755E+03  0.00000000000E+00 0.  1.
         21   -1    0    0  502  503 -0.00000000000E+00 -0.00000000000E+00 -0.36017693797E+03  0.36017693797E+03  0.00000000000E+00 0.  1.
          6    1    1    2  501    0 -0.26623456819E+02  0.11386017283E+03 -0.15776946084E+03  0.26171196034E+03  0.17300000000E+03 0.  1.
         -6    1    1    2    0  503  0.26623456819E+02 -0.11386017283E+03 -0.77977039583E+02  0.22289541519E+03  0.17300000000E+03 0.  1.
</event>
<event>
 4    1  0.5712137E+000  0.1000000E+03  0.7546771E-02  0.1280296E+00
         21   -1    0    0  501  502  0.00000000000E+00  0.00000000000E+00  0.25684313163E+03  0.25684313163E+03  0.00000000000E+00 0.  1.
         21   -1    0    0  502  503 -0.00000000000E+00 -0.00000000000E+00 -0.62302215796E+03  0.62302215796E+03  0.00000000000E+00 0.  1.
          6    1    1    2  501    0 -0.91782906433E+02 -0.28487916908E+03  0.38260769816E+02  0.34781191670E+03  0.17300000000E+03 0.  1.
         -6    1    1    2    0  503  0.91782906433E+02  0.28487916908E+03 -0.40443979615E+03  0.53205337288E+03  0.17300000000E+03 0.  1.
</event>
<event>
 4    1  0.5712137E+000  0.1000000E+03  0.7546771E-02  0.1280296E+00
         21   -1    0    0  501  502  0.00000000000E+00  0.00000000000E+00  0.26025179999E+04  0.26025179999E+04  0.00000000000E+00 0.  1.
         21   -1    0    0  502  503 -0.00000000000E+00 -0.00000000000E+00 -0.14261624271E+02  0.14261624271E+02  0.00000000000E+00 0.  1.
          6    1    1    2  501    0 -0.57985858770E+02 -0.51123133561E+02  0.15304825313E+04  0.15421678616E+04  0.17300000000E+03 0.  1.
         -6    1    1    2    0  503  0.57985858770E+02  0.51123133561E+02  0.10577738443E+04  0.10746117626E+04  0.17300000000E+03 0.  1.
</event>
<event>
 4    1  0.5712137E+000  0.1000000E+03  0.7546771E-02  0.1280296E+00
         21   -1    0    0  503  502  0.00000000000E+00  0.00000000000E+00  0.79128408730E+03  0.79128408730E+03  0.00000000000E+00 0.  1.
         21   -1    0    0  501  503 -0.00000000000E+00 -0.00000000000E+00 -0.89362205003E+02  0.89362205003E+02  0.00000000000E+00 0.  1.
          6    1    1    2  501    0  0.10981015634E+03 -0.13682614659E+01  0.70331134763E+02  0.21664628105E+03  0.17300000000E+03 0.  1.
         -6    1    1    2    0  502 -0.10981015634E+03  0.13682614659E+01  0.63159074753E+03  0.66400001125E+03  0.17300000000E+03 0.  1.
</event>
<event>
 4    1  0.5712137E+000  0.1000000E+03  0.7546771E-02  0.1280296E+00
         21   -1    0    0  503  502  0.00000000000E+00  0.00000000000E+00  0.76065489582E+03  0.76065489582E+03  0.00000000000E+00 0.  1.
         21   -1    0    0  501  503 -0.00000000000E+00 -0.00000000000E+00 -0.48453971933E+02  0.48453971933E+02  0.00000000000E+00 0.  1.
          6    1    1    2  501    0 -0.20272572529E+01  0.69891503351E+02  0.45125023858E+03  0.48830800713E+03  0.17300000000E+03 0.  1.
         -6    1    1    2    0  502  0.20272572529E+01 -0.69891503351E+02  0.26095068531E+03  0.32080086063E+03  0.17300000000E+03 0.  1.
</event>
<event>
 4    1  0.5712137E+000  0.1000000E+03  0.7546771E-02  0.1280296E+00
         21   -1    0    0  501  502  0.00000000000E+00  0.00000000000E+00  0.16772492803E+03  0.16772492803E+03  0.00000000000E+00 0. -1.
         21   -1    0    0  502  503 -0.00000000000E+00 -0.00000000000E+00 -0.41114860887E+03  0.41114860887E+03  0.00000000000E+00 0.  1.
          6    1    1    2  501    0  0.19397395101E+03 -0.33584674102E+02 -0.14005744675E+03  0.29715132912E+03  0.17300000000E+03 0. -1.
         -6    1    1    2    0  503 -0.19397395101E+03  0.33584674102E+02 -0.10336623409E+03  0.28172220778E+03  0.17300000000E+03 0.  1.
</event>
<event>
 4    1  0.5712137E+000  0.1000000E+03  0.7546771E-02  0.1280296E+00
         21   -1    0    0  501  502  0.00000000000E+00  0.00000000000E+00  0.17764323295E+04  0.17764323295E+04  0.00000000000E+00 0. -1.
         21   -1    0    0  502  503 -0.00000000000E+00 -0.00000000000E+00 -0.73706697835E+03  0.73706697835E+03  0.00000000000E+00 0.  1.
          6    1    1    2  501    0 -0.10240472583E+04  0.29529631201E+03  0.10356189919E+03  0.10846781855E+04  0.17300000000E+03 0. -1.
         -6    1    1    2    0  503  0.10240472583E+04 -0.29529631201E+03  0.93580345192E+03  0.14288211223E+04  0.17300000000E+03 0.  1.
</event>
<event>
 4    1  0.5712137E+000  0.1000000E+03  0.7546771E-02  0.1280296E+00
         21   -1    0    0  501  502  0.00000000000E+00  0.00000000000E+00  0.62590662516E+03  0.62590662516E+03  0.00000000000E+00 0. -1.
         21   -1    0    0  502  503 -0.00000000000E+00 -0.00000000000E+00 -0.93437566158E+02  0.93437566158E+02  0.00000000000E+00 0. -1.
          6    1    1    2  501    0  0.15862704099E+03  0.30342031042E+02  0.34016592066E+03  0.41439718937E+03  0.17300000000E+03 0. -1.
         -6    1    1    2    0  503 -0.15862704099E+03 -0.30342031042E+02  0.19230313834E+03  0.30494700194E+03  0.17300000000E+03 0. -1.
</event>
<event>
 4    1  0.5712137E+000  0.1000000E+03  0.7546771E-02  0.1280296E+00
         21   -1    0    0  501  502  0.00000000000E+00  0.00000000000E+00  0.22126647795E+03  0.22126647795E+03  0.00000000000E+00 0.  1.
         21   -1    0    0  502  503 -0.00000000000E+00 -0.00000000000E+00 -0.40629940772E+03  0.40629940772E+03  0.00000000000E+00 0.  1.
          6    1    1    2  501    0 -0.14810101850E+02 -0.19336266900E+02  0.16249633009E+03  0.23859439983E+03  0.17300000000E+03 0.  1.
         -6    1    1    2    0  503  0.14810101850E+02  0.19336266900E+02 -0.34752925987E+03  0.38897148585E+03  0.17300000000E+03 0.  1.
</event>
<event>
 4    1  0.5712137E+000  0.1000000E+03  0.7546771E-02  0.1280296E+00
         21   -1    0    0  501  502  0.00000000000E+00  0.00000000000E+00  0.18462470614E+03  0.18462470614E+03  0.00000000000E+00 0.  1.
         21   -1    0    0  502  503 -0.00000000000E+00 -0.00000000000E+00 -0.49632114313E+03  0.49632114313E+03  0.00000000000E+00 0.  1.
          6    1    1    2  501    0 -0.21582501844E+03 -0.10255711204E+03 -0.23218014920E+03  0.37541313442E+03  0.17300000000E+03 0.  1.
         -6    1    1    2    0  503  0.21582501844E+03  0.10255711204E+03 -0.79516287792E+02  0.30553271484E+03  0.17300000000E+03 0.  1.
</event>
<event>
 4    1  0.5712137E+000  0.1000000E+03  0.7546771E-02  0.1280296E+00
         21   -1    0    0  501  502  0.00000000000E+00  0.00000000000E+00  0.25643997588E+03  0.25643997588E+03  0.00000000000E+00 0.  1.
         21   -1    0    0  502  503 -0.00000000000E+00 -0.00000000000E+00 -0.32333387378E+03  0.32333387378E+03  0.00000000000E+00 0.  1.
          6    1    1    2  501    0 -0.60341573413E+02  0.42344483493E+02  0.18608470921E+03  0.26455751693E+03  0.17300000000E+03 0.  1.
         -6    1    1    2    0  503  0.60341573413E+02 -0.42344483493E+02 -0.25297860711E+03  0.31521633273E+03  0.17300000000E+03 0.  1.
</event>
<event>
 4    1  0.5712137E+000  0.1000000E+03  0.7546771E-02  0.1280296E+00
         21   -1    0    0  501  502  0.00000000000E+00  0.00000000000E+00  0.23632949122E+04  0.23632949122E+04  0.00000000000E+00 0.  1.
         21   -1    0    0  502  503 -0.00000000000E+00 -0.00000000000E+00 -0.12971335406E+03  0.12971335406E+03  0.00000000000E+00 0.  1.
          6    1    1    2  501    0  0.34966962212E+03 -0.27479484117E+02  0.19991290523E+04  0.20370247751E+04  0.17300000000E+03 0.  1.
         -6    1    1    2    0  503 -0.34966962212E+03  0.27479484117E+02  0.23445250580E+03  0.45598349110E+03  0.17300000000E+03 0.  1.
</event>
<event>
 4    1  0.5712137E+000  0.1000000E+03  0.7546771E-02  0.1280296E+00
         21   -1    0    0  501  502  0.00000000000E+00  0.00000000000E+00  0.59857042527E+03  0.59857042527E+03  0.00000000000E+00 0. -1.
         21   -1    0    0  502  503 -0.00000000000E+00 -0.00000000000E+00 -0.88881924260E+02  0.88881924260E+02  0.00000000000E+00 0. -1.
          6    1    1    2  501    0  0.83197093695E+02 -0.12446206040E+02  0.44449643917E+03  0.48433743287E+03  0.17300000000E+03 0. -1.
         -6    1    1    2    0  503 -0.83197093695E+02  0.12446206040E+02  0.65192061845E+02  0.20311491666E+03  0.17300000000E+03 0. -1.
</event>
<event>
 4    1  0.5712137E+000  0.1000000E+03  0.7546771E-02  0.1280296E+00
         21   -1    0    0  501  502  0.00000000000E+00  0.00000000000E+00  0.73128268274E+02  0.73128268274E+02  0.00000000000E+00 0. -1.
         21   -1    0    0  502  503 -0.00000000000E+00 -0.00000000000E+00 -0.11750920590E+04  0.11750920590E+04  0.00000000000E+00 0. -1.
          6    1    1    2  501    0 -0.63237725237E+02  0.79737252993E+01 -0.65763540560E+02  0.19574583892E+03  0.17300000000E+03 0. -1.
         -6    1    1    2    0  503  0.63237725237E+02 -0.79737252993E+01 -0.10362002501E+04  0.10524744883E+04  0.17300000000E+03 0. -1.
</event>
<event>
 4    1  0.5712137E+000  0.1000000E+03  0.7546771E-02  0.1280296E+00
         21   -1    0    0  501  502  0.00000000000E+00  0.00000000000E+00  0.18392314266E+03  0.18392314266E+03  0.00000000000E+00 0. -1.
         21   -1    0    0  502  503 -0.00000000000E+00 -0.00000000000E+00 -0.38999714227E+03  0.38999714227E+03  0.00000000000E+00 0.  1.
          6    1    1    2  501    0 -0.15063096210E+03 -0.69028659124E+02  0.25295287186E+02  0.24088066356E+03  0.17300000000E+03 0. -1.
         -6    1    1    2    0  503  0.15063096210E+03  0.69028659124E+02 -0.23136928680E+03  0.33303962136E+03  0.17300000000E+03 0. -1.
</event>
<event>
 4    1  0.5712137E+000  0.1000000E+03  0.7546771E-02  0.1280296E+00
         21   -1    0    0  501  502  0.00000000000E+00  0.00000000000E+00  0.43110847751E+03  0.43110847751E+03  0.00000000000E+00 0. -1.
         21   -1    0    0  502  503 -0.00000000000E+00 -0.00000000000E+00 -0.10065307737E+03  0.10065307737E+03  0.00000000000E+00 0.  1.
          6    1    1    2  501    0 -0.13773700380E+02 -0.10031990133E+03  0.23753887487E+03  0.31081749388E+03  0.17300000000E+03 0. -1.
         -6    1    1    2    0  503  0.13773700380E+02  0.10031990133E+03  0.92916525271E+02  0.22094406100E+03  0.17300000000E+03 0. -1.
</event>
<event>
 4    1  0.5712137E+000  0.1000000E+03  0.7546771E-02  0.1280296E+00
         21   -1    0    0  501  502  0.00000000000E+00  0.00000000000E+00  0.24499590610E+03  0.24499590610E+03  0.00000000000E+00 0. -1.
         21   -1    0    0  502  503 -0.00000000000E+00 -0.00000000000E+00 -0.27259498277E+03  0.27259498277E+03  0.00000000000E+00 0.  1.
          6    1    1    2  501    0 -0.12792381024E+02 -0.17129823076E+03 -0.99647545765E+02  0.26337304769E+03  0.17300000000E+03 0. -1.
         -6    1    1    2    0  503  0.12792381024E+02  0.17129823076E+03  0.72048469088E+02  0.25421784118E+03  0.17300000000E+03 0. -1.
</event>
<event>
 4    1  0.5712137E+000  0.1000000E+03  0.7546771E-02  0.1280296E+00
         21   -1    0    0  501  502  0.00000000000E+00  0.00000000000E+00  0.65626142220E+03  0.65626142220E+03  0.00000000000E+00 0. -1.
         21   -1    0    0  502  503 -0.00000000000E+00 -0.00000000000E+00 -0.70161497196E+02  0.70161497196E+02  0.00000000000E+00 0. -1.
          6    1    1    2  501    0 -0.10900288031E+03 -0.58164714092E+02  0.24368549350E+03  0.32338271695E+03  0.17300000000E+03 0. -1.
         -6    1    1    2    0  503  0.10900288031E+03  0.58164714092E+02  0.34241443151E+03  0.40304020244E+03  0.17300000000E+03 0. -1.
</event>
<event>
 4    1  0.5712137E+000  0.1000000E+03  0.7546771E-02  0.1280296E+00
         21   -1    0    0  501  502  0.00000000000E+00  0.00000000000E+00  0.63510299953E+03  0.63510299953E+03  0.00000000000E+00 0. -1.
         21   -1    0    0  502  503 -0.00000000000E+00 -0.00000000000E+00 -0.85513625176E+02  0.85513625176E+02  0.00000000000E+00 0. -1.
          6    1    1    2  501    0 -0.15355411639E+03  0.23703856136E+02  0.29875759292E+03  0.37858399172E+03  0.17300000000E+03 0. -1.
         -6    1    1    2    0  503  0.15355411639E+03 -0.23703856136E+02  0.25083178144E+03  0.34203263299E+03  0.17300000000E+03 0. -1.
</event>
<event>
 4    1  0.5712137E+000  0.1000000E+03  0.7546771E-02  0.1280296E+00
         21   -1    0    0  501  502  0.00000000000E+00  0.00000000000E+00  0.51495916877E+02  0.51495916877E+02  0.00000000000E+00 0. -1.
         21   -1    0    0  502  503 -0.00000000000E+00 -0.00000000000E+00 -0.10545164819E+04  0.10545164819E+04  0.00000000000E+00 0.  1.
          6    1    1    2  501    0  0.56494232278E+02  0.11056477148E+03 -0.27690213668E+03  0.34931355580E+03  0.17300000000E+03 0. -1.
         -6    1    1    2    0  503 -0.56494232278E+02 -0.11056477148E+03 -0.72611842832E+03  0.75669884295E+03  0.17300000000E+03 0.  1.
</event>
<event>
 4    1  0.5712137E+000  0.1000000E+03  0.7546771E-02  0.1280296E+00
         21   -1    0    0  501  502  0.00000000000E+00  0.00000000000E+00  0.76280114277E+02  0.76280114277E+02  0.00000000000E+00 0. -1.
         21   -1    0    0  502  503 -0.00000000000E+00 -0.00000000000E+00 -0.95023923438E+03  0.95023923438E+03  0.00000000000E+00 0.  1.
          6    1    1    2  501    0  0.13101140687E+03 -0.11431002832E+03 -0.22533789536E+03  0.33307197179E+03  0.17300000000E+03 0. -1.
         -6    1    1    2    0  503 -0.13101140687E+03  0.11431002832E+03 -0.64862122474E+03  0.69344737687E+03  0.17300000000E+03 0.  1.
</event>
<event>
 4    1  0.5712137E+000  0.1000000E+03  0.7546771E-02  0.1280296E+00
         21   -1    0    0  501  502  0.00000000000E+00  0.00000000000E+00  0.66106049932E+03  0.66106049932E+03  0.00000000000E+00 0. -1.
         21   -1    0    0  502  503 -0.00000000000E+00 -0.00000000000E+00 -0.18050921527E+03  0.18050921527E+03  0.00000000000E+00 0. -1.
          6    1    1    2  501    0  0.17854812306E+03  0.22678762145E+03  0.33530810808E+03  0.47505008666E+03  0.17300000000E+03 0. -1.
         -6    1    1    2    0  503 -0.17854812306E+03 -0.22678762145E+03  0.14524317597E+03  0.36651962793E+03  0.17300000000E+03 0. -1.
</event>
<event>
 4    1  0.5712137E+000  0.1000000E+03  0.7546771E-02  0.1280296E+00
         21   -1    0    0  501  502  0.00000000000E+00  0.00000000000E+00  0.20903517492E+03  0.20903517492E+03  0.00000000000E+00 0. -1.
         21   -1    0    0  502  503 -0.00000000000E+00 -0.00000000000E+00 -0.23362947925E+03  0.23362947925E+03  0.00000000000E+00 0. -1.
          6    1    1    2  501    0 -0.32064678457E+02 -0.13353425854E+03 -0.53411033687E+01  0.22094585127E+03  0.17300000000E+03 0. -1.
         -6    1    1    2    0  503  0.32064678457E+02  0.13353425854E+03 -0.19253200957E+02  0.22171880289E+03  0.17300000000E+03 0. -1.
</event>
<event>
 4    1  0.5712137E+000  0.1000000E+03  0.7546771E-02  0.1280296E+00
         21   -1    0    0  501  502  0.00000000000E+00  0.00000000000E+00  0.22283504474E+02  0.22283504474E+02  0.00000000000E+00 0. -1.
         21   -1    0    0  502  503 -0.00000000000E+00 -0.00000000000E+00 -0.29353216261E+04  0.29353216261E+04  0.00000000000E+00 0.  1.
          6    1    1    2  501    0  0.13537038264E+03 -0.33751662174E+02 -0.72476223338E+03  0.75807229875E+03  0.17300000000E+03 0. -1.
         -6    1    1    2    0  503 -0.13537038264E+03  0.33751662174E+02 -0.21882758882E+04  0.21995328318E+04  0.17300000000E+03 0.  1.
</event>
<event>
 4    1  0.5712137E+000  0.1000000E+03  0.7546771E-02  0.1280296E+00
         21   -1    0    0  501  502  0.00000000000E+00  0.00000000000E+00  0.70060947447E+02  0.70060947447E+02  0.00000000000E+00 0.  1.
         21   -1    0    0  502  503 -0.00000000000E+00 -0.00000000000E+00 -0.87482671118E+03  0.87482671118E+03  0.00000000000E+00 0.  1.
          6    1    1    2  501    0  0.20451832937E+02 -0.17589507251E+03 -0.40657868401E+03  0.47601741596E+03  0.17300000000E+03 0.  1.
         -6    1    1    2    0  503 -0.20451832937E+02  0.17589507251E+03 -0.39818707972E+03  0.46887024266E+03  0.17300000000E+03 0.  1.
</event>
<event>
 4    1  0.5712137E+000  0.1000000E+03  0.7546771E-02  0.1280296E+00
         21   -1    0    0  501  502  0.00000000000E+00  0.00000000000E+00  0.85406747178E+02  0.85406747178E+02  0.00000000000E+00 0.  1.
         21   -1    0    0  502  503 -0.00000000000E+00 -0.00000000000E+00 -0.38461171842E+03  0.38461171842E+03  0.00000000000E+00 0.  1.
          6    1    1    2  501    0 -0.50865257347E+02 -0.18115686111E+02 -0.15219039788E+03  0.23665664938E+03  0.17300000000E+03 0.  1.
         -6    1    1    2    0  503  0.50865257347E+02  0.18115686111E+02 -0.14701457336E+03  0.23336181622E+03  0.17300000000E+03 0.  1.
</event>
<event>
 4    1  0.5712137E+000  0.1000000E+03  0.7546771E-02  0.1280296E+00
         21   -1    0    0  501  502  0.00000000000E+00  0.00000000000E+00  0.17044048116E+03  0.17044048116E+03  0.00000000000E+00 0. -1.
         21   -1    0    0  502  503 -0.00000000000E+00 -0.00000000000E+00 -0.23091709785E+03  0.23091709785E+03  0.00000000000E+00 0. -1.
          6    1    1    2  501    0 -0.46073008643E+02 -0.37443623278E+02  0.47485773349E+02  0.18896731389E+03  0.17300000000E+03 0. -1.
         -6    1    1    2    0  503  0.46073008643E+02  0.37443623278E+02 -0.10796239004E+03  0.21239026511E+03  0.17300000000E+03 0. -1.
</event>
<event>
 4    1  0.5712137E+000  0.1000000E+03  0.7546771E-02  0.1280296E+00
         21   -1    0    0  503  502  0.00000000000E+00  0.00000000000E+00  0.14659300364E+03  0.14659300364E+03  0.00000000000E+00 0. -1.
         21   -1    0    0  501  503 -0.00000000000E+00 -0.00000000000E+00 -0.78556467203E+03  0.78556467203E+03  0.00000000000E+00 0. -1.
          6    1    1    2  501    0  0.18230960692E+02  0.82019291566E+02 -0.70348577683E+03  0.72930156336E+03  0.17300000000E+03 0. -1.
         -6    1    1    2    0  502 -0.18230960692E+02 -0.82019291566E+02  0.64514108441E+02  0.20285611232E+03  0.17300000000E+03 0. -1.
</event>
<event>
 4    1  0.5712137E+000  0.1000000E+03  0.7546771E-02  0.1280296E+00
         21   -1    0    0  503  502  0.00000000000E+00  0.00000000000E+00  0.50091794102E+03  0.50091794102E+03  0.00000000000E+00 0. -1.
         21   -1    0    0  501  503 -0.00000000000E+00 -0.00000000000E+00 -0.10783517712E+03  0.10783517712E+03  0.00000000000E+00 0. -1.
          6    1    1    2  501    0  0.15371757107E+03 -0.18958015371E+02  0.18350569695E+03  0.29595918438E+03  0.17300000000E+03 0. -1.
         -6    1    1    2    0  502 -0.15371757107E+03  0.18958015371E+02  0.20957706695E+03  0.31279393376E+03  0.17300000000E+03 0. -1.
</event>
<event>
 4    1  0.5712137E+000  0.1000000E+03  0.7546771E-02  0.1280296E+00
         21   -1    0    0  503  502  0.00000000000E+00  0.00000000000E+00  0.17646424234E+04  0.17646424234E+04  0.00000000000E+00 0. -1.
         21   -1    0    0  501  503 -0.00000000000E+00 -0.00000000000E+00 -0.24940405440E+02  0.24940405440E+02  0.00000000000E+00 0. -1.
          6    1    1    2  501    0  0.82741360641E+02  0.77738756816E+01  0.50855539967E+03  0.54356615093E+03  0.17300000000E+03 0. -1.
         -6    1    1    2    0  502 -0.82741360641E+02 -0.77738756816E+01  0.12311466183E+04  0.12460166779E+04  0.17300000000E+03 0. -1.
</event>
<event>
 4    1  0.5712137E+000  0.1000000E+03  0.7546771E-02  0.1280296E+00
         21   -1    0    0  503  502  0.00000000000E+00  0.00000000000E+00  0.13449980905E+03  0.13449980905E+03  0.00000000000E+00 0.  1.
         21   -1    0    0  501  503 -0.00000000000E+00 -0.00000000000E+00 -0.39339042077E+03  0.39339042077E+03  0.00000000000E+00 0. -1.
          6    1    1    2  501    0 -0.80615729519E+02 -0.12028798945E+03 -0.18093892421E+03  0.28919887715E+03  0.17300000000E+03 0.  1.
         -6    1    1    2    0  502  0.80615729519E+02  0.12028798945E+03 -0.77951687504E+02  0.23869135266E+03  0.17300000000E+03 0.  1.
</event>
<event>
 4    1  0.5712137E+000  0.1000000E+03  0.7546771E-02  0.1280296E+00
         21   -1    0    0  503  502  0.00000000000E+00  0.00000000000E+00  0.16711768680E+03  0.16711768680E+03  0.00000000000E+00 0.  1.
         21   -1    0    0  501  503 -0.00000000000E+00 -0.00000000000E+00 -0.29710984359E+03  0.29710984359E+03  0.00000000000E+00 0. -1.
          6    1    1    2  501    0 -0.51995703666E+01  0.40203127746E+02 -0.20506125541E+03  0.27133456375E+03  0.17300000000E+03 0.  1.
         -6    1    1    2    0  502  0.51995703666E+01 -0.40203127746E+02  0.75069098622E+02  0.19289296664E+03  0.17300000000E+03 0.  1.
</event>
<event>
 4    1  0.5712137E+000  0.1000000E+03  0.7546771E-02  0.1280296E+00
         21   -1    0    0  503  502  0.00000000000E+00  0.00000000000E+00  0.49702709327E+02  0.49702709327E+02  0.00000000000E+00 0.  1.
         21   -1    0    0  501  503 -0.00000000000E+00 -0.00000000000E+00 -0.22790258670E+04  0.22790258670E+04  0.00000000000E+00 0. -1.
          6    1    1    2  501    0  0.13965510342E+03 -0.16453228860E+03 -0.45126530022E+03  0.52928611647E+03  0.17300000000E+03 0.  1.
         -6    1    1    2    0  502 -0.13965510342E+03  0.16453228860E+03 -0.17780578575E+04  0.17994424599E+04  0.17300000000E+03 0.  1.
</event>
<event>
 4    1  0.5712137E+000  0.1000000E+03  0.7546771E-02  0.1280296E+00
         21   -1    0    0  503  502  0.00000000000E+00  0.00000000000E+00  0.10988963029E+03  0.10988963029E+03  0.00000000000E+00 0.  1.
         21   -1    0    0  501  503 -0.00000000000E+00 -0.00000000000E+00 -0.68063738485E+03  0.68063738485E+03  0.00000000000E+00 0. -1.
          6    1    1    2  501    0 -0.69658608123E+02 -0.10229289797E+03 -0.53381756777E+03  0.57463584497E+03  0.17300000000E+03 0.  1.
         -6    1    1    2    0  502  0.69658608123E+02  0.10229289797E+03 -0.36930186786E+02  0.21589117017E+03  0.17300000000E+03 0.  1.
</event>
<event>
 4    1  0.5712137E+000  0.1000000E+03  0.7546771E-02  0.1280296E+00
         21   -1    0    0  503  502  0.00000000000E+00  0.00000000000E+00  0.64990256010E+03  0.64990256010E+03  0.00000000000E+00 0.  1.
         21   -1    0    0  501  503 -0.00000000000E+00 -0.00000000000E+00 -0.32116914627E+03  0.32116914627E+03  0.00000000000E+00 0. -1.
          6    1    1    2  501    0  0.53094020511E+02 -0.80423624915E+01 -0.28137465719E+03  0.33464063160E+03  0.17300000000E+03 0.  1.
         -6    1    1    2    0  502 -0.53094020511E+02  0.80423624915E+01  0.61010807102E+03  0.63643107477E+03  0.17300000000E+03 0.  1.
</event>
<event>
 4    1  0.5712137E+000  0.1000000E+03  0.7546771E-02  0.1280296E+00
         21   -1    0    0  503  502  0.00000000000E+00  0.00000000000E+00  0.46344760195E+02  0.46344760195E+02  0.00000000000E+00 0. -1.
         21   -1    0    0  501  503 -0.00000000000E+00 -0.00000000000E+00 -0.15427626579E+04  0.15427626579E+04  0.00000000000E+00 0. -1.
          6    1    1    2  501    0 -0.13164530573E+02 -0.21056853300E+02 -0.13495455936E+04  0.13608155662E+04  0.17300000000E+03 0. -1.
         -6    1    1    2    0  502  0.13164530573E+02  0.21056853300E+02 -0.14687230408E+03  0.22829185189E+03  0.17300000000E+03 0. -1.
</event>
<event>
 4    1  0.5712137E+000  0.1000000E+03  0.7546771E-02  0.1280296E+00
         21   -1    0    0  503  502  0.00000000000E+00  0.00000000000E+00  0.36402297108E+03  0.36402297108E+03  0.00000000000E+00 0. -1.
         21   -1    0    0  501  503 -0.00000000000E+00 -0.00000000000E+00 -0.15464459314E+03  0.15464459314E+03  0.00000000000E+00 0. -1.
          6    1    1    2  501    0 -0.14908894520E+03  0.13042024944E+02  0.35841404325E+02  0.23154095590E+03  0.17300000000E+03 0. -1.
         -6    1    1    2    0  502  0.14908894520E+03 -0.13042024944E+02  0.17353697362E+03  0.28712660832E+03  0.17300000000E+03 0. -1.
</event>
<event>
 4    1  0.5712137E+000  0.1000000E+03  0.7546771E-02  0.1280296E+00
         21   -1    0    0  503  502  0.00000000000E+00  0.00000000000E+00  0.74182516685E+03  0.74182516685E+03  0.00000000000E+00 0.  1.
         21   -1    0    0  501  503 -0.00000000000E+00 -0.00000000000E+00 -0.75392665251E+02  0.75392665251E+02  0.00000000000E+00 0.  1.
          6    1    1    2  501    0 -0.12859848237E+03  0.92996299451E+02  0.28394239063E+03  0.36842660406E+03  0.17300000000E+03 0.  1.
         -6    1    1    2    0  502  0.12859848237E+03 -0.92996299451E+02  0.38249011097E+03  0.44879122804E+03  0.17300000000E+03 0.  1.
</event>
<event>
 4    1  0.5712137E+000  0.1000000E+03  0.7546771E-02  0.1280296E+00
         21   -1    0    0  503  502  0.00000000000E+00  0.00000000000E+00  0.17870881297E+03  0.17870881297E+03  0.00000000000E+00 0.  1.
         21   -1    0    0  501  503 -0.00000000000E+00 -0.00000000000E+00 -0.62256997905E+03  0.62256997905E+03  0.00000000000E+00 0.  1.
          6    1    1    2  501    0 -0.32674966708E+01  0.10921133284E+03 -0.53833397203E+03  0.57590820206E+03  0.17300000000E+03 0.  1.
         -6    1    1    2    0  502  0.32674966708E+01 -0.10921133284E+03  0.94472805955E+02  0.22537058996E+03  0.17300000000E+03 0.  1.
</event>
<event>
 4    1  0.5712137E+000  0.1000000E+03  0.7546771E-02  0.1280296E+00
         21   -1    0    0  503  502  0.00000000000E+00  0.00000000000E+00  0.46291257315E+02  0.46291257315E+02  0.00000000000E+00 0.  1.
         21   -1    0    0  501  503 -0.00000000000E+00 -0.00000000000E+00 -0.26393223246E+04  0.26393223246E+04  0.00000000000E+00 0.  1.
          6    1    1    2  501    0  0.23938629528E+03 -0.15871090596E+03 -0.16759181045E+04  0.17091300252E+04  0.17300000000E+03 0.  1.
         -6    1    1    2    0  502 -0.23938629528E+03  0.15871090596E+03 -0.91711296286E+03  0.97648355679E+03  0.17300000000E+03 0.  1.
</event>
<event>
 4    1  0.5712137E+000  0.1000000E+03  0.7546771E-02  0.1280296E+00
         21   -1    0    0  503  502  0.00000000000E+00  0.00000000000E+00  0.50649965750E+03  0.50649965750E+03  0.00000000000E+00 0.  1.
         21   -1    0    0  501  503 -0.00000000000E+00 -0.00000000000E+00 -0.93056631554E+02  0.93056631554E+02  0.00000000000E+00 0.  1.
          6    1    1    2  501    0  0.11165101822E+03  0.60390861006E+02  0.16110961259E+03  0.26832501417E+03  0.17300000000E+03 0.  1.
         -6    1    1    2    0  502 -0.11165101822E+03 -0.60390861006E+02  0.25233341336E+03  0.33123127488E+03  0.17300000000E+03 0.  1.
</event>
<event>
 4    1  0.5712137E+000  0.1000000E+03  0.7546771E-02  0.1280296E+00
         21   -1    0    0  501  502  0.00000000000E+00  0.00000000000E+00  0.10977877318E+04  0.10977877318E+04  0.00000000000E+00 0. -1.
         21   -1    0    0  502  503 -0.00000000000E+00 -0.00000000000E+00 -0.53432886848E+02  0.53432886848E+02  0.00000000000E+00 0. -1.
          6    1    1    2  501    0 -0.38671456624E+02  0.10467319568E+03  0.82539358633E+03  0.85067945303E+03  0.17300000000E+03 0. -1.
         -6    1    1    2    0  503  0.38671456624E+02 -0.10467319568E+03  0.21896125861E+03  0.30054116561E+03  0.17300000000E+03 0. -1.
</event>
<event>
 4    1  0.5712137E+000  0.1000000E+03  0.7546771E-02  0.1280296E+00
         21   -1    0    0  501  502  0.00000000000E+00  0.00000000000E+00  0.97234384687E+02  0.97234384687E+02  0.00000000000E+00 0. -1.
         21   -1    0    0  502  503 -0.00000000000E+00 -0.00000000000E+00 -0.12629597604E+04  0.12629597604E+04  0.00000000000E+00 0. -1.
          6    1    1    2  501    0  0.90276552196E+02  0.50284635981E+02 -0.26457972898E+02  0.20324228109E+03  0.17300000000E+03 0. -1.
         -6    1    1    2    0  503 -0.90276552196E+02 -0.50284635981E+02 -0.11392674028E+04  0.11569518640E+04  0.17300000000E+03 0. -1.
</event>
<event>
 4    1  0.5712137E+000  0.1000000E+03  0.7546771E-02  0.1280296E+00
         21   -1    0    0  503  502  0.00000000000E+00  0.00000000000E+00  0.63491758908E+02  0.63491758908E+02  0.00000000000E+00 0. -1.
         21   -1    0    0  501  503 -0.00000000000E+00 -0.00000000000E+00 -0.18380572121E+04  0.18380572121E+04  0.00000000000E+00 0. -1.
          6    1    1    2  501    0  0.17373683534E+02  0.15270191930E+03 -0.15866986402E+04  0.16034841115E+04  0.17300000000E+03 0. -1.
         -6    1    1    2    0  502 -0.17373683534E+02 -0.15270191930E+03 -0.18786681295E+03  0.29806485947E+03  0.17300000000E+03 0. -1.
</event>
<event>
 4    1  0.5712137E+000  0.1000000E+03  0.7546771E-02  0.1280296E+00
         21   -1    0    0  503  502  0.00000000000E+00  0.00000000000E+00  0.58368013680E+02  0.58368013680E+02  0.00000000000E+00 0. -1.
         21   -1    0    0  501  503 -0.00000000000E+00 -0.00000000000E+00 -0.11755753546E+04  0.11755753546E+04  0.00000000000E+00 0. -1.
          6    1    1    2  501    0  0.15377988684E+02 -0.71524421798E+02 -0.98863618114E+03  0.10063213821E+04  0.17300000000E+03 0. -1.
         -6    1    1    2    0  502 -0.15377988684E+02  0.71524421798E+02 -0.12857115974E+03  0.22762198613E+03  0.17300000000E+03 0. -1.
</event>
<event>
 4    1  0.5712137E+000  0.1000000E+03  0.7546771E-02  0.1280296E+00
         21   -1    0    0  501  502  0.00000000000E+00  0.00000000000E+00  0.11328501435E+04  0.11328501435E+04  0.00000000000E+00 0. -1.
         21   -1    0    0  502  503 -0.00000000000E+00 -0.00000000000E+00 -0.61807039834E+02  0.61807039834E+02  0.00000000000E+00 0.  1.
          6    1    1    2  501    0 -0.89120859055E+02 -0.14935368352E+03  0.75944885652E+03  0.79808559439E+03  0.17300000000E+03 0. -1.
         -6    1    1    2    0  503  0.89120859055E+02  0.14935368352E+03  0.31159424711E+03  0.39657158891E+03  0.17300000000E+03 0.  1.
</event>
<event>
 4    1  0.5712137E+000  0.1000000E+03  0.7546771E-02  0.1280296E+00
         21   -1    0    0  501  502  0.00000000000E+00  0.00000000000E+00  0.61632094194E+03  0.61632094194E+03  0.00000000000E+00 0. -1.
         21   -1    0    0  502  503 -0.00000000000E+00 -0.00000000000E+00 -0.76305311204E+02  0.76305311204E+02  0.00000000000E+00 0.  1.
          6    1    1    2  501    0  0.11977167658E+03  0.29971546855E+02  0.33880626168E+03  0.39995278607E+03  0.17300000000E+03 0. -1.
         -6    1    1    2    0  503 -0.11977167658E+03 -0.29971546855E+02  0.20120936906E+03  0.29267346707E+03  0.17300000000E+03 0.  1.
</event>
<event>
 4    1  0.5712137E+000  0.1000000E+03  0.7546771E-02  0.1280296E+00
         21   -1    0    0  503  502  0.00000000000E+00  0.00000000000E+00  0.14153644122E+04  0.14153644122E+04  0.00000000000E+00 0.  1.
         21   -1    0    0  501  503 -0.00000000000E+00 -0.00000000000E+00 -0.23933408306E+02  0.23933408306E+02  0.00000000000E+00 0.  1.
          6    1    1    2  501    0  0.30938976950E+02  0.18823387980E+02  0.49504276839E+03  0.52564996220E+03  0.17300000000E+03 0.  1.
         -6    1    1    2    0  502 -0.30938976950E+02 -0.18823387980E+02  0.89638823554E+03  0.91364785833E+03  0.17300000000E+03 0.  1.
</event>
<event>
 4    1  0.5712137E+000  0.1000000E+03  0.7546771E-02  0.1280296E+00
         21   -1    0    0  503  502  0.00000000000E+00  0.00000000000E+00  0.17841094209E+03  0.17841094209E+03  0.00000000000E+00 0.  1.
         21   -1    0    0  501  503 -0.00000000000E+00 -0.00000000000E+00 -0.34904938415E+03  0.34904938415E+03  0.00000000000E+00 0.  1.
          6    1    1    2  501    0 -0.20511816761E+02  0.36791672983E+02 -0.27010115339E+03  0.32350887915E+03  0.17300000000E+03 0.  1.
         -6    1    1    2    0  502  0.20511816761E+02 -0.36791672983E+02  0.99462711326E+02  0.20395144709E+03  0.17300000000E+03 0.  1.
</event>
<event>
 4    1  0.5712137E+000  0.1000000E+03  0.7546771E-02  0.1280296E+00
         21   -1    0    0  503  502  0.00000000000E+00  0.00000000000E+00  0.72879003702E+03  0.72879003702E+03  0.00000000000E+00 0.  1.
         21   -1    0    0  501  503 -0.00000000000E+00 -0.00000000000E+00 -0.10643452204E+03  0.10643452204E+03  0.00000000000E+00 0.  1.
          6    1    1    2  501    0  0.18970002534E+02  0.18093504287E+03  0.49199668252E+03  0.55234688950E+03  0.17300000000E+03 0.  1.
         -6    1    1    2    0  502 -0.18970002534E+02 -0.18093504287E+03  0.13035883246E+03  0.28287766956E+03  0.17300000000E+03 0.  1.
</event>
<event>
 4    1  0.5712137E+000  0.1000000E+03  0.7546771E-02  0.1280296E+00
         21   -1    0    0  503  502  0.00000000000E+00  0.00000000000E+00  0.22054323035E+03  0.22054323035E+03  0.00000000000E+00 0.  1.
         21   -1    0    0  501  503 -0.00000000000E+00 -0.00000000000E+00 -0.41402152528E+03  0.41402152528E+03  0.00000000000E+00 0.  1.
          6    1    1    2  501    0  0.58597933247E-01 -0.72274804244E+02 -0.34556159123E+03  0.39314814523E+03  0.17300000000E+03 0.  1.
         -6    1    1    2    0  502 -0.58597933247E-01  0.72274804244E+02  0.15208329631E+03  0.24141661040E+03  0.17300000000E+03 0.  1.
</event>
<event>
 4    1  0.5712137E+000  0.1000000E+03  0.7546771E-02  0.1280296E+00
         21   -1    0    0  503  502  0.00000000000E+00  0.00000000000E+00  0.97525791466E+03  0.97525791466E+03  0.00000000000E+00 0.  1.
         21   -1    0    0  501  503 -0.00000000000E+00 -0.00000000000E+00 -0.42029733521E+02  0.42029733521E+02  0.00000000000E+00 0.  1.
          6    1    1    2  501    0 -0.86109460564E+02  0.28754223207E+02  0.33321970258E+03  0.38627194402E+03  0.17300000000E+03 0.  1.
         -6    1    1    2    0  502  0.86109460564E+02 -0.28754223207E+02  0.60000847856E+03  0.63101570416E+03  0.17300000000E+03 0.  1.
</event>
<event>
 4    1  0.5712137E+000  0.1000000E+03  0.7546771E-02  0.1280296E+00
         21   -1    0    0  501  502  0.00000000000E+00  0.00000000000E+00  0.66138724038E+03  0.66138724038E+03  0.00000000000E+00 0.  1.
         21   -1    0    0  502  503 -0.00000000000E+00 -0.00000000000E+00 -0.66525972159E+03  0.66525972159E+03  0.00000000000E+00 0.  1.
          6    1    1    2  501    0 -0.35796896987E+03  0.60780016142E+02 -0.52941293993E+03  0.66486318496E+03  0.17300000000E+03 0.  1.
         -6    1    1    2    0  503  0.35796896987E+03 -0.60780016142E+02  0.52554045873E+03  0.66178377701E+03  0.17300000000E+03 0.  1.
</event>
<event>
 4    1  0.5712137E+000  0.1000000E+03  0.7546771E-02  0.1280296E+00
         21   -1    0    0  501  502  0.00000000000E+00  0.00000000000E+00  0.12690817342E+04  0.12690817342E+04  0.00000000000E+00 0.  1.
         21   -1    0    0  502  503 -0.00000000000E+00 -0.00000000000E+00 -0.52194904486E+02  0.52194904486E+02  0.00000000000E+00 0.  1.
          6    1    1    2  501    0  0.15443490063E+03  0.80752204137E+02  0.80626852763E+03  0.84283390752E+03  0.17300000000E+03 0.  1.
         -6    1    1    2    0  503 -0.15443490063E+03 -0.80752204137E+02  0.41061830207E+03  0.47844273116E+03  0.17300000000E+03 0.  1.
</event>
<event>
 4    1  0.5712137E+000  0.1000000E+03  0.7546771E-02  0.1280296E+00
         21   -1    0    0  501  502  0.00000000000E+00  0.00000000000E+00  0.19813822050E+04  0.19813822050E+04  0.00000000000E+00 0.  1.
         21   -1    0    0  502  503 -0.00000000000E+00 -0.00000000000E+00 -0.20153862556E+03  0.20153862556E+03  0.00000000000E+00 0. -1.
          6    1    1    2  501    0 -0.12836524344E+02  0.11493843965E+03  0.19205028843E+04  0.19317442765E+04  0.17300000000E+03 0.  1.
         -6    1    1    2    0  503  0.12836524344E+02 -0.11493843965E+03 -0.14065930484E+03  0.25117655405E+03  0.17300000000E+03 0. -1.
</event>
<event>
 4    1  0.5712137E+000  0.1000000E+03  0.7546771E-02  0.1280296E+00
         21   -1    0    0  501  502  0.00000000000E+00  0.00000000000E+00  0.15597475938E+03  0.15597475938E+03  0.00000000000E+00 0.  1.
         21   -1    0    0  502  503 -0.00000000000E+00 -0.00000000000E+00 -0.22212011797E+04  0.22212011797E+04  0.00000000000E+00 0. -1.
          6    1    1    2  501    0 -0.39189685591E+01 -0.22625927307E+03  0.75226283157E+01  0.28494597190E+03  0.17300000000E+03 0.  1.
         -6    1    1    2    0  503  0.39189685591E+01  0.22625927307E+03 -0.20727490486E+04  0.20922299672E+04  0.17300000000E+03 0. -1.
</event>
<event>
 4    1  0.5712137E+000  0.1000000E+03  0.7546771E-02  0.1280296E+00
         21   -1    0    0  501  502  0.00000000000E+00  0.00000000000E+00  0.12946785933E+04  0.12946785933E+04  0.00000000000E+00 0.  1.
         21   -1    0    0  502  503 -0.00000000000E+00 -0.00000000000E+00 -0.36897319117E+02  0.36897319117E+02  0.00000000000E+00 0.  1.
          6    1    1    2  501    0  0.69673047302E+02 -0.10469357920E+03  0.76600625618E+03  0.79530476143E+03  0.17300000000E+03 0.  1.
         -6    1    1    2    0  503 -0.69673047302E+02  0.10469357920E+03  0.49177501796E+03  0.53627115094E+03  0.17300000000E+03 0.  1.
</event>
<event>
 4    1  0.5712137E+000  0.1000000E+03  0.7546771E-02  0.1280296E+00
         21   -1    0    0  501  502  0.00000000000E+00  0.00000000000E+00  0.10439414204E+03  0.10439414204E+03  0.00000000000E+00 0.  1.
         21   -1    0    0  502  503 -0.00000000000E+00 -0.00000000000E+00 -0.34425060457E+03  0.34425060457E+03  0.00000000000E+00 0.  1.
          6    1    1    2  501    0 -0.39663973483E+02 -0.36024306422E+02 -0.53644433684E+02  0.18888543277E+03  0.17300000000E+03 0.  1.
         -6    1    1    2    0  503  0.39663973483E+02  0.36024306422E+02 -0.18621202884E+03  0.25975931385E+03  0.17300000000E+03 0.  1.
</event>
<event>
 4    1  0.5712137E+000  0.1000000E+03  0.7546771E-02  0.1280296E+00
         21   -1    0    0  503  502  0.00000000000E+00  0.00000000000E+00  0.21372690617E+03  0.21372690617E+03  0.00000000000E+00 0. -1.
         21   -1    0    0  501  503 -0.00000000000E+00 -0.00000000000E+00 -0.50076267376E+03  0.50076267376E+03  0.00000000000E+00 0.  1.
          6    1    1    2  501    0 -0.41032936025E+02 -0.19753162484E+03 -0.35184282354E+03  0.44093629599E+03  0.17300000000E+03 0.  1.
         -6    1    1    2    0  502  0.41032936025E+02  0.19753162484E+03  0.64807055941E+02  0.27355328393E+03  0.17300000000E+03 0. -1.
</event>
<event>
 4    1  0.5712137E+000  0.1000000E+03  0.7546771E-02  0.1280296E+00
         21   -1    0    0  503  502  0.00000000000E+00  0.00000000000E+00  0.10198223243E+04  0.10198223243E+04  0.00000000000E+00 0. -1.
         21   -1    0    0  501  503 -0.00000000000E+00 -0.00000000000E+00 -0.42741567217E+02  0.42741567217E+02  0.00000000000E+00 0.  1.
          6    1    1    2  501    0  0.11191494565E+03  0.18952867204E+02  0.41766960524E+03  0.46611271746E+03  0.17300000000E+03 0.  1.
         -6    1    1    2    0  502 -0.11191494565E+03 -0.18952867204E+02  0.55941115189E+03  0.59645117410E+03  0.17300000000E+03 0. -1.
</event>
<event>
 4    1  0.5712137E+000  0.1000000E+03  0.7546771E-02  0.1280296E+00
         21   -1    0    0  501  502  0.00000000000E+00  0.00000000000E+00  0.11238103729E+04  0.11238103729E+04  0.00000000000E+00 0.  1.
         21   -1    0    0  502  503 -0.00000000000E+00 -0.00000000000E+00 -0.33176193874E+02  0.33176193874E+02  0.00000000000E+00 0.  1.
          6    1    1    2  501    0 -0.33597077356E+02  0.28479049255E+02  0.76577971964E+03  0.78631253256E+03  0.17300000000E+03 0.  1.
         -6    1    1    2    0  503  0.33597077356E+02 -0.28479049255E+02  0.32485445937E+03  0.37067403419E+03  0.17300000000E+03 0.  1.
</event>
<event>
 4    1  0.5712137E+000  0.1000000E+03  0.7546771E-02  0.1280296E+00
         21   -1    0    0  501  502  0.00000000000E+00  0.00000000000E+00  0.23849021717E+02  0.23849021717E+02  0.00000000000E+00 0.  1.
         21   -1    0    0  502  503 -0.00000000000E+00 -0.00000000000E+00 -0.14259016326E+04  0.14259016326E+04  0.00000000000E+00 0.  1.
          6    1    1    2  501    0 -0.57050007500E+01 -0.50543810170E+02 -0.54928769933E+03  0.57812905169E+03  0.17300000000E+03 0.  1.
         -6    1    1    2    0  503  0.57050007500E+01  0.50543810170E+02 -0.85276491154E+03  0.87162160261E+03  0.17300000000E+03 0.  1.
</event>
<event>
 4    1  0.5712137E+000  0.1000000E+03  0.7546771E-02  0.1280296E+00
         21   -1    0    0  501  502  0.00000000000E+00  0.00000000000E+00  0.48546626283E+02  0.48546626283E+02  0.00000000000E+00 0. -1.
         21   -1    0    0  502  503 -0.00000000000E+00 -0.00000000000E+00 -0.87051911708E+03  0.87051911708E+03  0.00000000000E+00 0.  1.
          6    1    1    2  501    0  0.66015275567E+02 -0.88179946378E+02 -0.44244428845E+03  0.48766757933E+03  0.17300000000E+03 0. -1.
         -6    1    1    2    0  503 -0.66015275567E+02  0.88179946378E+02 -0.37952820235E+03  0.43139816403E+03  0.17300000000E+03 0.  1.
</event>
<event>
 4    1  0.5712137E+000  0.1000000E+03  0.7546771E-02  0.1280296E+00
         21   -1    0    0  501  502  0.00000000000E+00  0.00000000000E+00  0.46593896993E+03  0.46593896993E+03  0.00000000000E+00 0. -1.
         21   -1    0    0  502  503 -0.00000000000E+00 -0.00000000000E+00 -0.11060755722E+03  0.11060755722E+03  0.00000000000E+00 0.  1.
          6    1    1    2  501    0  0.11424022605E+03 -0.13392905812E+02  0.29388979933E+03  0.35990333886E+03  0.17300000000E+03 0. -1.
         -6    1    1    2    0  503 -0.11424022605E+03  0.13392905812E+02  0.61441613381E+02  0.21664318828E+03  0.17300000000E+03 0.  1.
</event>
<event>
 4    1  0.5712137E+000  0.1000000E+03  0.7546771E-02  0.1280296E+00
         21   -1    0    0  501  502  0.00000000000E+00  0.00000000000E+00  0.94614517405E+02  0.94614517405E+02  0.00000000000E+00 0. -1.
         21   -1    0    0  502  503 -0.00000000000E+00 -0.00000000000E+00 -0.40946330168E+03  0.40946330168E+03  0.00000000000E+00 0.  1.
          6    1    1    2  501    0  0.23807939634E+02  0.90278495047E+02 -0.14493385540E+03  0.24423727623E+03  0.17300000000E+03 0. -1.
         -6    1    1    2    0  503 -0.23807939634E+02 -0.90278495047E+02 -0.16991492887E+03  0.25984054285E+03  0.17300000000E+03 0.  1.
</event>
<event>
 4    1  0.5712137E+000  0.1000000E+03  0.7546771E-02  0.1280296E+00
         21   -1    0    0  501  502  0.00000000000E+00  0.00000000000E+00  0.52737279423E+02  0.52737279423E+02  0.00000000000E+00 0.  1.
         21   -1    0    0  502  503 -0.00000000000E+00 -0.00000000000E+00 -0.17667942005E+04  0.17667942005E+04  0.00000000000E+00 0. -1.
          6    1    1    2  501    0  0.69799258431E+02 -0.77079084697E+02 -0.17455873380E+03  0.26685740260E+03  0.17300000000E+03 0. -1.
         -6    1    1    2    0  503 -0.69799258431E+02  0.77079084697E+02 -0.15394981873E+04  0.15526740773E+04  0.17300000000E+03 0. -1.
</event>
<event>
 4    1  0.5712137E+000  0.1000000E+03  0.7546771E-02  0.1280296E+00
         21   -1    0    0  501  502  0.00000000000E+00  0.00000000000E+00  0.38603907193E+03  0.38603907193E+03  0.00000000000E+00 0.  1.
         21   -1    0    0  502  503 -0.00000000000E+00 -0.00000000000E+00 -0.90741250254E+03  0.90741250254E+03  0.00000000000E+00 0. -1.
          6    1    1    2  501    0  0.76797484570E+02  0.29798290140E+03  0.25840592514E+03  0.43748632586E+03  0.17300000000E+03 0. -1.
         -6    1    1    2    0  503 -0.76797484570E+02 -0.29798290140E+03 -0.77977935575E+03  0.85596524861E+03  0.17300000000E+03 0. -1.
</event>
<event>
 4    1  0.5712137E+000  0.1000000E+03  0.7546771E-02  0.1280296E+00
         21   -1    0    0  501  502  0.00000000000E+00  0.00000000000E+00  0.15421789709E+04  0.15421789709E+04  0.00000000000E+00 0.  1.
         21   -1    0    0  502  503 -0.00000000000E+00 -0.00000000000E+00 -0.27826983175E+02  0.27826983175E+02  0.00000000000E+00 0. -1.
          6    1    1    2  501    0 -0.65824616610E+02  0.90315522585E+02  0.84152019138E+03  0.86635732020E+03  0.17300000000E+03 0. -1.
         -6    1    1    2    0  503  0.65824616610E+02 -0.90315522585E+02  0.67283179631E+03  0.70364863383E+03  0.17300000000E+03 0. -1.
</event>
<event>
 4    1  0.5712137E+000  0.1000000E+03  0.7546771E-02  0.1280296E+00
         21   -1    0    0  503  502  0.00000000000E+00  0.00000000000E+00  0.11649045796E+03  0.11649045796E+03  0.00000000000E+00 0.  1.
         21   -1    0    0  501  503 -0.00000000000E+00 -0.00000000000E+00 -0.43987864746E+03  0.43987864746E+03  0.00000000000E+00 0. -1.
          6    1    1    2  501    0 -0.65299519144E+02 -0.24800761129E+02 -0.31923278221E+03  0.36975353168E+03  0.17300000000E+03 0.  1.
         -6    1    1    2    0  502  0.65299519144E+02  0.24800761129E+02 -0.41554072843E+01  0.18661557374E+03  0.17300000000E+03 0. -1.
</event>
<event>
 4    1  0.5712137E+000  0.1000000E+03  0.7546771E-02  0.1280296E+00
         21   -1    0    0  501  502  0.00000000000E+00  0.00000000000E+00  0.82219439194E+03  0.82219439194E+03  0.00000000000E+00 0. -1.
         21   -1    0    0  502  503 -0.00000000000E+00 -0.00000000000E+00 -0.38494737326E+03  0.38494737326E+03  0.00000000000E+00 0.  1.
          6    1    1    2  501    0  0.13670389492E+02 -0.13946195703E+02  0.79256613412E+03  0.81146253942E+03  0.17300000000E+03 0. -1.
         -6    1    1    2    0  503 -0.13670389492E+02  0.13946195703E+02 -0.35531911544E+03  0.39567922579E+03  0.17300000000E+03 0.  1.
</event>
<event>
 4    1  0.5712137E+000  0.1000000E+03  0.7546771E-02  0.1280296E+00
         21   -1    0    0  503  502  0.00000000000E+00  0.00000000000E+00  0.15887719656E+03  0.15887719656E+03  0.00000000000E+00 0. -1.
         21   -1    0    0  501  503 -0.00000000000E+00 -0.00000000000E+00 -0.30281591757E+03  0.30281591757E+03  0.00000000000E+00 0.  1.
          6    1    1    2  501    0  0.34134688700E+02  0.12126214010E+03 -0.12257327071E+03  0.24662297194E+03  0.17300000000E+03 0.  1.
         -6    1    1    2    0  502 -0.34134688700E+02 -0.12126214010E+03 -0.21365450297E+02  0.21507014219E+03  0.17300000000E+03 0. -1.
</event>
<event>
 4    1  0.5712137E+000  0.1000000E+03  0.7546771E-02  0.1280296E+00
         21   -1    0    0  503  502  0.00000000000E+00  0.00000000000E+00  0.14336507995E+04  0.14336507995E+04  0.00000000000E+00 0. -1.
         21   -1    0    0  501  503 -0.00000000000E+00 -0.00000000000E+00 -0.33244105472E+02  0.33244105472E+02  0.00000000000E+00 0.  1.
          6    1    1    2  501    0  0.44894672805E+02  0.11512489397E+03  0.53349835245E+03  0.57429849810E+03  0.17300000000E+03 0.  1.
         -6    1    1    2    0  502 -0.44894672805E+02 -0.11512489397E+03  0.86690834162E+03  0.89259640691E+03  0.17300000000E+03 0. -1.
</event>
<event>
 4    1  0.5712137E+000  0.1000000E+03  0.7546771E-02  0.1280296E+00
         21   -1    0    0  503  502  0.00000000000E+00  0.00000000000E+00  0.76364930213E+03  0.76364930213E+03  0.00000000000E+00 0. -1.
         21   -1    0    0  501  503 -0.00000000000E+00 -0.00000000000E+00 -0.12669855506E+03  0.12669855506E+03  0.00000000000E+00 0.  1.
          6    1    1    2  501    0  0.12652327274E+03 -0.71365192828E+02  0.12444736590E+02  0.22624102361E+03  0.17300000000E+03 0.  1.
         -6    1    1    2    0  502 -0.12652327274E+03  0.71365192828E+02  0.62450601048E+03  0.66410683358E+03  0.17300000000E+03 0. -1.
</event>
<event>
 4    1  0.5712137E+000  0.1000000E+03  0.7546771E-02  0.1280296E+00
         21   -1    0    0  503  502  0.00000000000E+00  0.00000000000E+00  0.98148574305E+03  0.98148574305E+03  0.00000000000E+00 0. -1.
         21   -1    0    0  501  503 -0.00000000000E+00 -0.00000000000E+00 -0.78884805700E+02  0.78884805700E+02  0.00000000000E+00 0.  1.
          6    1    1    2  501    0  0.15296056047E+03  0.16294333714E+01  0.15552716404E+03  0.27841926454E+03  0.17300000000E+03 0.  1.
         -6    1    1    2    0  502 -0.15296056047E+03 -0.16294333714E+01  0.74707377331E+03  0.78195128421E+03  0.17300000000E+03 0. -1.
</event>
<event>
 4    1  0.5712137E+000  0.1000000E+03  0.7546771E-02  0.1280296E+00
         21   -1    0    0  503  502  0.00000000000E+00  0.00000000000E+00  0.14196312411E+04  0.14196312411E+04  0.00000000000E+00 0.  1.
         21   -1    0    0  501  503 -0.00000000000E+00 -0.00000000000E+00 -0.32828648888E+02  0.32828648888E+02  0.00000000000E+00 0. -1.
          6    1    1    2  501    0  0.49888542718E+02 -0.10471252200E+03  0.50245008680E+03  0.54391053371E+03  0.17300000000E+03 0. -1.
         -6    1    1    2    0  502 -0.49888542718E+02  0.10471252200E+03  0.88435250541E+03  0.90854935628E+03  0.17300000000E+03 0.  1.
</event>
<event>
 4    1  0.5712137E+000  0.1000000E+03  0.7546771E-02  0.1280296E+00
         21   -1    0    0  503  502  0.00000000000E+00  0.00000000000E+00  0.28180287311E+03  0.28180287311E+03  0.00000000000E+00 0.  1.
         21   -1    0    0  501  503 -0.00000000000E+00 -0.00000000000E+00 -0.28292088762E+03  0.28292088762E+03  0.00000000000E+00 0. -1.
          6    1    1    2  501    0  0.13108833224E+03  0.18058024343E+03 -0.29135452799E+01  0.28236654178E+03  0.17300000000E+03 0. -1.
         -6    1    1    2    0  502 -0.13108833224E+03 -0.18058024343E+03  0.17955307720E+01  0.28235721896E+03  0.17300000000E+03 0.  1.
</event>
<event>
 4    1  0.5712137E+000  0.1000000E+03  0.7546771E-02  0.1280296E+00
         21   -1    0    0  503  502  0.00000000000E+00  0.00000000000E+00  0.43983994068E+03  0.43983994068E+03  0.00000000000E+00 0.  1.
         21   -1    0    0  501  503 -0.00000000000E+00 -0.00000000000E+00 -0.61988227284E+03  0.61988227284E+03  0.00000000000E+00 0. -1.
          6    1    1    2  501    0 -0.18785406392E+03 -0.91563462227E+02 -0.54274971533E+03  0.60677777681E+03  0.17300000000E+03 0. -1.
         -6    1    1    2    0  502  0.18785406392E+03  0.91563462227E+02  0.36270738316E+03  0.45294443671E+03  0.17300000000E+03 0.  1.
</event>
<event>
 4    1  0.5712137E+000  0.1000000E+03  0.7546771E-02  0.1280296E+00
         21   -1    0    0  503  502  0.00000000000E+00  0.00000000000E+00  0.13463565217E+03  0.13463565217E+03  0.00000000000E+00 0.  1.
         21   -1    0    0  501  503 -0.00000000000E+00 -0.00000000000E+00 -0.66076210204E+03  0.66076210204E+03  0.00000000000E+00 0. -1.
          6    1    1    2  501    0  0.79202159600E+02 -0.89885075510E+02 -0.54490954391E+03  0.58412988276E+03  0.17300000000E+03 0. -1.
         -6    1    1    2    0  502 -0.79202159600E+02  0.89885075510E+02  0.18783094051E+02  0.21126787145E+03  0.17300000000E+03 0.  1.
</event>
<event>
 4    1  0.5712137E+000  0.1000000E+03  0.7546771E-02  0.1280296E+00
         21   -1    0    0  501  502  0.00000000000E+00  0.00000000000E+00  0.85215222740E+03  0.85215222740E+03  0.00000000000E+00 0.  1.
         21   -1    0    0  502  503 -0.00000000000E+00 -0.00000000000E+00 -0.48158881324E+02  0.48158881324E+02  0.00000000000E+00 0.  1.
          6    1    1    2  501    0 -0.24911078124E+02  0.58887760624E+02  0.58819539199E+03  0.61643422140E+03  0.17300000000E+03 0.  1.
         -6    1    1    2    0  503  0.24911078124E+02 -0.58887760624E+02  0.21579795409E+03  0.28387688732E+03  0.17300000000E+03 0.  1.
</event>
<event>
 4    1  0.5712137E+000  0.1000000E+03  0.7546771E-02  0.1280296E+00
         21   -1    0    0  501  502  0.00000000000E+00  0.00000000000E+00  0.72006498590E+03  0.72006498590E+03  0.00000000000E+00 0.  1.
         21   -1    0    0  502  503 -0.00000000000E+00 -0.00000000000E+00 -0.51227209821E+02  0.51227209821E+02  0.00000000000E+00 0.  1.
          6    1    1    2  501    0 -0.59060538887E+02 -0.11020912594E+02  0.45060807857E+03  0.48640132425E+03  0.17300000000E+03 0.  1.
         -6    1    1    2    0  503  0.59060538887E+02  0.11020912594E+02  0.21822969751E+03  0.28489087146E+03  0.17300000000E+03 0.  1.
</event>
<event>
 4    1  0.5712137E+000  0.1000000E+03  0.7546771E-02  0.1280296E+00
         21   -1    0    0  503  502  0.00000000000E+00  0.00000000000E+00  0.40686594912E+03  0.40686594912E+03  0.00000000000E+00 0. -1.
         21   -1    0    0  501  503 -0.00000000000E+00 -0.00000000000E+00 -0.77708027814E+02  0.77708027814E+02  0.00000000000E+00 0. -1.
          6    1    1    2  501    0 -0.13373886842E+02 -0.19260499782E+01  0.21744365086E+03  0.27819653451E+03  0.17300000000E+03 0. -1.
         -6    1    1    2    0  502  0.13373886842E+02  0.19260499782E+01  0.11171427045E+03  0.20637744242E+03  0.17300000000E+03 0. -1.
</event>
<event>
 4    1  0.5712137E+000  0.1000000E+03  0.7546771E-02  0.1280296E+00
         21   -1    0    0  503  502  0.00000000000E+00  0.00000000000E+00  0.63304920721E+03  0.63304920721E+03  0.00000000000E+00 0. -1.
         21   -1    0    0  501  503 -0.00000000000E+00 -0.00000000000E+00 -0.97617282312E+02  0.97617282312E+02  0.00000000000E+00 0. -1.
          6    1    1    2  501    0  0.28025563559E+02 -0.15983755387E+03  0.15838848621E+03  0.28521814179E+03  0.17300000000E+03 0. -1.
         -6    1    1    2    0  502 -0.28025563559E+02  0.15983755387E+03  0.37704343869E+03  0.44544834774E+03  0.17300000000E+03 0. -1.
</event>
<event>
 4    1  0.5712137E+000  0.1000000E+03  0.7546771E-02  0.1280296E+00
         21   -1    0    0  503  502  0.00000000000E+00  0.00000000000E+00  0.34864999036E+02  0.34864999036E+02  0.00000000000E+00 0. -1.
         21   -1    0    0  501  503 -0.00000000000E+00 -0.00000000000E+00 -0.11150829856E+04  0.11150829856E+04  0.00000000000E+00 0. -1.
          6    1    1    2  501    0  0.84013878511E+02  0.43359010020E+02 -0.53087293346E+03  0.56629798429E+03  0.17300000000E+03 0. -1.
         -6    1    1    2    0  502 -0.84013878511E+02 -0.43359010020E+02 -0.54934505311E+03  0.58365000035E+03  0.17300000000E+03 0. -1.
</event>
<event>
 4    1  0.5712137E+000  0.1000000E+03  0.7546771E-02  0.1280296E+00
         21   -1    0    0  503  502  0.00000000000E+00  0.00000000000E+00  0.11596601340E+04  0.11596601340E+04  0.00000000000E+00 0.  1.
         21   -1    0    0  501  503 -0.00000000000E+00 -0.00000000000E+00 -0.17707014482E+03  0.17707014482E+03  0.00000000000E+00 0.  1.
          6    1    1    2  501    0 -0.89418634033E+02  0.41498715630E+02 -0.10908969367E+03  0.22704051792E+03  0.17300000000E+03 0.  1.
         -6    1    1    2    0  502  0.89418634033E+02 -0.41498715630E+02  0.10916796828E+04  0.11096897609E+04  0.17300000000E+03 0.  1.
</event>
<event>
 4    1  0.5712137E+000  0.1000000E+03  0.7546771E-02  0.1280296E+00
         21   -1    0    0  501  502  0.00000000000E+00  0.00000000000E+00  0.81826269452E+02  0.81826269452E+02  0.00000000000E+00 0. -1.
         21   -1    0    0  502  503 -0.00000000000E+00 -0.00000000000E+00 -0.17585091672E+04  0.17585091672E+04  0.00000000000E+00 0. -1.
          6    1    1    2  501    0 -0.11292670029E+03 -0.17872998664E+03 -0.19991687044E+03  0.33851529190E+03  0.17300000000E+03 0. -1.
         -6    1    1    2    0  503  0.11292670029E+03  0.17872998664E+03 -0.14767660273E+04  0.15018201448E+04  0.17300000000E+03 0. -1.
</event>
<event>
 4    1  0.5712137E+000  0.1000000E+03  0.7546771E-02  0.1280296E+00
         21   -1    0    0  501  502  0.00000000000E+00  0.00000000000E+00  0.14447859371E+03  0.14447859371E+03  0.00000000000E+00 0. -1.
         21   -1    0    0  502  503 -0.00000000000E+00 -0.00000000000E+00 -0.25397202183E+03  0.25397202183E+03  0.00000000000E+00 0. -1.
          6    1    1    2  501    0 -0.52456003552E+02 -0.58862998148E+02 -0.30399221699E+02  0.19253466581E+03  0.17300000000E+03 0. -1.
         -6    1    1    2    0  503  0.52456003552E+02  0.58862998148E+02 -0.79094206420E+02  0.20591594972E+03  0.17300000000E+03 0. -1.
</event>
<event>
 4    1  0.5712137E+000  0.1000000E+03  0.7546771E-02  0.1280296E+00
         21   -1    0    0  501  502  0.00000000000E+00  0.00000000000E+00  0.42600297938E+03  0.42600297938E+03  0.00000000000E+00 0. -1.
         21   -1    0    0  502  503 -0.00000000000E+00 -0.00000000000E+00 -0.11848013528E+03  0.11848013528E+03  0.00000000000E+00 0. -1.
          6    1    1    2  501    0 -0.46404986973E+02  0.87981396772E+02  0.27881463873E+03  0.34287133413E+03  0.17300000000E+03 0. -1.
         -6    1    1    2    0  503  0.46404986973E+02 -0.87981396772E+02  0.28708205366E+02  0.20161178053E+03  0.17300000000E+03 0. -1.
</event>
<event>
 4    1  0.5712137E+000  0.1000000E+03  0.7546771E-02  0.1280296E+00
         21   -1    0    0  501  502  0.00000000000E+00  0.00000000000E+00  0.77379027553E+03  0.77379027553E+03  0.00000000000E+00 0.  1.
         21   -1    0    0  502  503 -0.00000000000E+00 -0.00000000000E+00 -0.13262888909E+03  0.13262888909E+03  0.00000000000E+00 0.  1.
          6    1    1    2  501    0  0.88925776034E+02 -0.12897608582E+02  0.68021791896E+03  0.70760127136E+03  0.17300000000E+03 0.  1.
         -6    1    1    2    0  503 -0.88925776034E+02  0.12897608582E+02 -0.39056532521E+02  0.19881789327E+03  0.17300000000E+03 0.  1.
</event>
<event>
 4    1  0.5712137E+000  0.1000000E+03  0.7546771E-02  0.1280296E+00
         21   -1    0    0  501  502  0.00000000000E+00  0.00000000000E+00  0.58250377691E+03  0.58250377691E+03  0.00000000000E+00 0.  1.
         21   -1    0    0  502  503 -0.00000000000E+00 -0.00000000000E+00 -0.12817694916E+03  0.12817694916E+03  0.00000000000E+00 0.  1.
          6    1    1    2  501    0  0.15490451997E+03  0.12040153286E+03  0.32991145931E+03  0.42102554602E+03  0.17300000000E+03 0.  1.
         -6    1    1    2    0  503 -0.15490451997E+03 -0.12040153286E+03  0.12441536845E+03  0.28965518005E+03  0.17300000000E+03 0.  1.
</event>
<event>
 4    1  0.5712137E+000  0.1000000E+03  0.7546771E-02  0.1280296E+00
         21   -1    0    0  503  502  0.00000000000E+00  0.00000000000E+00  0.15389939844E+03  0.15389939844E+03  0.00000000000E+00 0. -1.
         21   -1    0    0  501  503 -0.00000000000E+00 -0.00000000000E+00 -0.20046243492E+03  0.20046243492E+03  0.00000000000E+00 0.  1.
          6    1    1    2  501    0  0.63407431567E+01 -0.33089189639E+01  0.64875111773E+01  0.17326927532E+03  0.17300000000E+03 0. -1.
         -6    1    1    2    0  502 -0.63407431567E+01  0.33089189639E+01 -0.53050547657E+02  0.18109255803E+03  0.17300000000E+03 0.  1.
</event>
<event>
 4    1  0.5712137E+000  0.1000000E+03  0.7546771E-02  0.1280296E+00
         21   -1    0    0  503  502  0.00000000000E+00  0.00000000000E+00  0.60074738390E+03  0.60074738390E+03  0.00000000000E+00 0. -1.
         21   -1    0    0  501  503 -0.00000000000E+00 -0.00000000000E+00 -0.73378173670E+02  0.73378173670E+02  0.00000000000E+00 0.  1.
          6    1    1    2  501    0  0.26426323728E+02  0.19199601550E+02  0.80038782210E+02  0.19339643726E+03  0.17300000000E+03 0. -1.
         -6    1    1    2    0  502 -0.26426323728E+02 -0.19199601550E+02  0.44733042802E+03  0.48072912031E+03  0.17300000000E+03 0.  1.
</event>
<event>
 4    1  0.5712137E+000  0.1000000E+03  0.7546771E-02  0.1280296E+00
         21   -1    0    0  503  502  0.00000000000E+00  0.00000000000E+00  0.67292303669E+02  0.67292303669E+02  0.00000000000E+00 0.  1.
         21   -1    0    0  501  503 -0.00000000000E+00 -0.00000000000E+00 -0.95884343646E+03  0.95884343646E+03  0.00000000000E+00 0.  1.
          6    1    1    2  501    0 -0.17036764209E+03  0.74490921081E+02 -0.43679851437E+03  0.50526821882E+03  0.17300000000E+03 0.  1.
         -6    1    1    2    0  502  0.17036764209E+03 -0.74490921081E+02 -0.45475261842E+03  0.52086752131E+03  0.17300000000E+03 0.  1.
</event>
<event>
 4    1  0.5712137E+000  0.1000000E+03  0.7546771E-02  0.1280296E+00
         21   -1    0    0  501  502  0.00000000000E+00  0.00000000000E+00  0.27659639000E+02  0.27659639000E+02  0.00000000000E+00 0.  1.
         21   -1    0    0  502  503 -0.00000000000E+00 -0.00000000000E+00 -0.16900512789E+04  0.16900512789E+04  0.00000000000E+00 0. -1.
          6    1    1    2  501    0 -0.90167481854E+02 -0.60599550604E+02 -0.54989527453E+03  0.58661426276E+03  0.17300000000E+03 0.  1.
         -6    1    1    2    0  503  0.90167481854E+02  0.60599550604E+02 -0.11124963654E+04  0.11310966552E+04  0.17300000000E+03 0. -1.
</event>
<event>
 4    1  0.5712137E+000  0.1000000E+03  0.7546771E-02  0.1280296E+00
         21   -1    0    0  501  502  0.00000000000E+00  0.00000000000E+00  0.22234040651E+03  0.22234040651E+03  0.00000000000E+00 0.  1.
         21   -1    0    0  502  503 -0.00000000000E+00 -0.00000000000E+00 -0.26055700070E+03  0.26055700070E+03  0.00000000000E+00 0. -1.
          6    1    1    2  501    0  0.33899209964E+02 -0.93008204605E+02  0.11623717989E+03  0.23073743638E+03  0.17300000000E+03 0.  1.
         -6    1    1    2    0  503 -0.33899209964E+02  0.93008204605E+02 -0.15445377409E+03  0.25215997083E+03  0.17300000000E+03 0. -1.
</event>
<event>
 4    1  0.5712137E+000  0.1000000E+03  0.7546771E-02  0.1280296E+00
         21   -1    0    0  501  502  0.00000000000E+00  0.00000000000E+00  0.54977313741E+02  0.54977313741E+02  0.00000000000E+00 0.  1.
         21   -1    0    0  502  503 -0.00000000000E+00 -0.00000000000E+00 -0.75897011660E+03  0.75897011660E+03  0.00000000000E+00 0. -1.
          6    1    1    2  501    0  0.10463756928E+03  0.25750321688E+02 -0.32489492085E+03  0.38353332263E+03  0.17300000000E+03 0.  1.
         -6    1    1    2    0  503 -0.10463756928E+03 -0.25750321688E+02 -0.37909788201E+03  0.43041410771E+03  0.17300000000E+03 0. -1.
</event>
<event>
 4    1  0.5712137E+000  0.1000000E+03  0.7546771E-02  0.1280296E+00
         21   -1    0    0  503  502  0.00000000000E+00  0.00000000000E+00  0.69600128455E+02  0.69600128455E+02  0.00000000000E+00 0. -1.
         21   -1    0    0  501  503 -0.00000000000E+00 -0.00000000000E+00 -0.12464380670E+04  0.12464380670E+04  0.00000000000E+00 0. -1.
          6    1    1    2  501    0  0.17085658268E+03  0.32982530651E+02 -0.95239823986E+03  0.98349947965E+03  0.17300000000E+03 0. -1.
         -6    1    1    2    0  502 -0.17085658268E+03 -0.32982530651E+02 -0.22443969870E+03  0.33253871583E+03  0.17300000000E+03 0. -1.
</event>
<event>
 4    1  0.5712137E+000  0.1000000E+03  0.7546771E-02  0.1280296E+00
         21   -1    0    0  501  502  0.00000000000E+00  0.00000000000E+00  0.12089504019E+03  0.12089504019E+03  0.00000000000E+00 0.  1.
         21   -1    0    0  502  503 -0.00000000000E+00 -0.00000000000E+00 -0.86148450275E+03  0.86148450275E+03  0.00000000000E+00 0.  1.
          6    1    1    2  501    0 -0.26589895839E+03 -0.35610409592E+02 -0.29810128789E+03  0.43676508009E+03  0.17300000000E+03 0.  1.
         -6    1    1    2    0  503  0.26589895839E+03  0.35610409592E+02 -0.44248817468E+03  0.54561446285E+03  0.17300000000E+03 0.  1.
</event>
<event>
 4    1  0.5712137E+000  0.1000000E+03  0.7546771E-02  0.1280296E+00
         21   -1    0    0  501  502  0.00000000000E+00  0.00000000000E+00  0.42084528454E+03  0.42084528454E+03  0.00000000000E+00 0.  1.
         21   -1    0    0  502  503 -0.00000000000E+00 -0.00000000000E+00 -0.75302581043E+02  0.75302581043E+02  0.00000000000E+00 0.  1.
          6    1    1    2  501    0  0.62875700873E+01 -0.23989924642E+02  0.21995996844E+03  0.28093849458E+03  0.17300000000E+03 0.  1.
         -6    1    1    2    0  503 -0.62875700873E+01  0.23989924642E+02  0.12558273506E+03  0.21520937100E+03  0.17300000000E+03 0.  1.
</event>
<event>
 4    1  0.5712137E+000  0.1000000E+03  0.7546771E-02  0.1280296E+00
         21   -1    0    0  503  502  0.00000000000E+00  0.00000000000E+00  0.28183456698E+03  0.28183456698E+03  0.00000000000E+00 0.  1.
         21   -1    0    0  501  503 -0.00000000000E+00 -0.00000000000E+00 -0.10910399938E+03  0.10910399938E+03  0.00000000000E+00 0. -1.
          6    1    1    2  501    0 -0.16083292091E+02  0.20035511186E+02  0.72257096883E+02  0.18923578426E+03  0.17300000000E+03 0. -1.
         -6    1    1    2    0  502  0.16083292091E+02 -0.20035511186E+02  0.10047347071E+03  0.20170278211E+03  0.17300000000E+03 0.  1.
</event>
<event>
 4    1  0.5712137E+000  0.1000000E+03  0.7546771E-02  0.1280296E+00
         21   -1    0    0  501  502  0.00000000000E+00  0.00000000000E+00  0.10428369360E+03  0.10428369360E+03  0.00000000000E+00 0.  1.
         21   -1    0    0  502  503 -0.00000000000E+00 -0.00000000000E+00 -0.31222200782E+03  0.31222200782E+03  0.00000000000E+00 0. -1.
          6    1    1    2  501    0  0.30830516230E+02  0.56672868378E+01 -0.15082167525E+03  0.23164372773E+03  0.17300000000E+03 0. -1.
         -6    1    1    2    0  503 -0.30830516230E+02 -0.56672868378E+01 -0.57116638968E+02  0.18486197369E+03  0.17300000000E+03 0.  1.
</event>
<event>
 4    1  0.5712137E+000  0.1000000E+03  0.7546771E-02  0.1280296E+00
         21   -1    0    0  501  502  0.00000000000E+00  0.00000000000E+00  0.34399970550E+02  0.34399970550E+02  0.00000000000E+00 0.  1.
         21   -1    0    0  502  503 -0.00000000000E+00 -0.00000000000E+00 -0.13111005819E+04  0.13111005819E+04  0.00000000000E+00 0. -1.
          6    1    1    2  501    0  0.21911828149E+02  0.11200387178E+03 -0.78516055678E+03  0.81205362842E+03  0.17300000000E+03 0. -1.
         -6    1    1    2    0  503 -0.21911828149E+02 -0.11200387178E+03 -0.49154005453E+03  0.53344692399E+03  0.17300000000E+03 0.  1.
</event>
<event>
 4    1  0.5712137E+000  0.1000000E+03  0.7546771E-02  0.1280296E+00
         21   -1    0    0  503  502  0.00000000000E+00  0.00000000000E+00  0.48341388187E+03  0.48341388187E+03  0.00000000000E+00 0.  1.
         21   -1    0    0  501  503 -0.00000000000E+00 -0.00000000000E+00 -0.33041206768E+03  0.33041206768E+03  0.00000000000E+00 0. -1.
          6    1    1    2  501    0 -0.23741339159E+03  0.17146955732E+03 -0.13714158971E+03  0.36674751972E+03  0.17300000000E+03 0.  1.
         -6    1    1    2    0  502  0.23741339159E+03 -0.17146955732E+03  0.29014340390E+03  0.44707842983E+03  0.17300000000E+03 0.  1.
</event>
<event>
 4    1  0.5712137E+000  0.1000000E+03  0.7546771E-02  0.1280296E+00
         21   -1    0    0  503  502  0.00000000000E+00  0.00000000000E+00  0.37179646610E+03  0.37179646610E+03  0.00000000000E+00 0.  1.
         21   -1    0    0  501  503 -0.00000000000E+00 -0.00000000000E+00 -0.24689726485E+03  0.24689726485E+03  0.00000000000E+00 0. -1.
          6    1    1    2  501    0  0.57495144595E+02 -0.21599560227E+01 -0.18462112806E+03  0.25946930066E+03  0.17300000000E+03 0.  1.
         -6    1    1    2    0  502 -0.57495144595E+02  0.21599560227E+01  0.30952032931E+03  0.35922443029E+03  0.17300000000E+03 0.  1.
</event>
<event>
 4    1  0.5712137E+000  0.1000000E+03  0.7546771E-02  0.1280296E+00
         21   -1    0    0  503  502  0.00000000000E+00  0.00000000000E+00  0.78085869081E+03  0.78085869081E+03  0.00000000000E+00 0.  1.
         21   -1    0    0  501  503 -0.00000000000E+00 -0.00000000000E+00 -0.57396637284E+02  0.57396637284E+02  0.00000000000E+00 0.  1.
          6    1    1    2  501    0 -0.81556321305E+02  0.65203659712E+02  0.23672690760E+03  0.31124199518E+03  0.17300000000E+03 0.  1.
         -6    1    1    2    0  502  0.81556321305E+02 -0.65203659712E+02  0.48673514593E+03  0.52701333291E+03  0.17300000000E+03 0.  1.
</event>
<event>
 4    1  0.5712137E+000  0.1000000E+03  0.7546771E-02  0.1280296E+00
         21   -1    0    0  501  502  0.00000000000E+00  0.00000000000E+00  0.16265445290E+03  0.16265445290E+03  0.00000000000E+00 0.  1.
         21   -1    0    0  502  503 -0.00000000000E+00 -0.00000000000E+00 -0.54830426895E+03  0.54830426895E+03  0.00000000000E+00 0.  1.
          6    1    1    2  501    0  0.12964729104E+03  0.69814881554E+02  0.37906216807E+02  0.23032242408E+03  0.17300000000E+03 0.  1.
         -6    1    1    2    0  503 -0.12964729104E+03 -0.69814881554E+02 -0.42355603286E+03  0.48063629777E+03  0.17300000000E+03 0.  1.
</event>
<event>
 4    1  0.5712137E+000  0.1000000E+03  0.7546771E-02  0.1280296E+00
         21   -1    0    0  501  502  0.00000000000E+00  0.00000000000E+00  0.99908874083E+02  0.99908874083E+02  0.00000000000E+00 0. -1.
         21   -1    0    0  502  503 -0.00000000000E+00 -0.00000000000E+00 -0.18164115813E+04  0.18164115813E+04  0.00000000000E+00 0. -1.
          6    1    1    2  501    0 -0.25933300647E+03 -0.14103134003E+03 -0.28745306547E+03  0.44687997490E+03  0.17300000000E+03 0. -1.
         -6    1    1    2    0  503  0.25933300647E+03  0.14103134003E+03 -0.14290496417E+04  0.14694404805E+04  0.17300000000E+03 0. -1.
</event>
<event>
 4    1  0.5712137E+000  0.1000000E+03  0.7546771E-02  0.1280296E+00
         21   -1    0    0  501  502  0.00000000000E+00  0.00000000000E+00  0.27280222646E+03  0.27280222646E+03  0.00000000000E+00 0. -1.
         21   -1    0    0  502  503 -0.00000000000E+00 -0.00000000000E+00 -0.12557504613E+03  0.12557504613E+03  0.00000000000E+00 0. -1.
          6    1    1    2  501    0 -0.56471719416E+02 -0.26292640570E+00  0.10993444990E+03  0.21261163538E+03  0.17300000000E+03 0. -1.
         -6    1    1    2    0  503  0.56471719416E+02  0.26292640570E+00  0.37292730432E+02  0.18576563721E+03  0.17300000000E+03 0. -1.
</event>
<event>
 4    1  0.5712137E+000  0.1000000E+03  0.7546771E-02  0.1280296E+00
         21   -1    0    0  501  502  0.00000000000E+00  0.00000000000E+00  0.23306084341E+03  0.23306084341E+03  0.00000000000E+00 0.  1.
         21   -1    0    0  502  503 -0.00000000000E+00 -0.00000000000E+00 -0.68003327931E+03  0.68003327931E+03  0.00000000000E+00 0.  1.
          6    1    1    2  501    0 -0.35160985788E+02 -0.26924100359E+03  0.45052726416E+02  0.32509346517E+03  0.17300000000E+03 0.  1.
         -6    1    1    2    0  503  0.35160985788E+02  0.26924100359E+03 -0.49202516231E+03  0.58800065756E+03  0.17300000000E+03 0.  1.
</event>
<event>
 4    1  0.5712137E+000  0.1000000E+03  0.7546771E-02  0.1280296E+00
         21   -1    0    0  501  502  0.00000000000E+00  0.00000000000E+00  0.16709008911E+03  0.16709008911E+03  0.00000000000E+00 0.  1.
         21   -1    0    0  502  503 -0.00000000000E+00 -0.00000000000E+00 -0.28263555898E+03  0.28263555898E+03  0.00000000000E+00 0.  1.
          6    1    1    2  501    0  0.10151454874E+03  0.24159909182E+02  0.25055777555E+02  0.20358216230E+03  0.17300000000E+03 0.  1.
         -6    1    1    2    0  503 -0.10151454874E+03 -0.24159909182E+02 -0.14060124742E+03  0.24614348579E+03  0.17300000000E+03 0.  1.
</event>
<event>
 4    1  0.5712137E+000  0.1000000E+03  0.7546771E-02  0.1280296E+00
         21   -1    0    0  503  502  0.00000000000E+00  0.00000000000E+00  0.27981288636E+03  0.27981288636E+03  0.00000000000E+00 0.  1.
         21   -1    0    0  501  503 -0.00000000000E+00 -0.00000000000E+00 -0.21220991903E+03  0.21220991903E+03  0.00000000000E+00 0.  1.
          6    1    1    2  501    0  0.95791116768E+02 -0.36505280240E+02 -0.10514439991E+03  0.22692051112E+03  0.17300000000E+03 0.  1.
         -6    1    1    2    0  502 -0.95791116768E+02  0.36505280240E+02  0.17274736724E+03  0.26510229427E+03  0.17300000000E+03 0.  1.
</event>
<event>
 4    1  0.5712137E+000  0.1000000E+03  0.7546771E-02  0.1280296E+00
         21   -1    0    0  503  502  0.00000000000E+00  0.00000000000E+00  0.93151448305E+02  0.93151448305E+02  0.00000000000E+00 0.  1.
         21   -1    0    0  501  503 -0.00000000000E+00 -0.00000000000E+00 -0.98087336785E+03  0.98087336785E+03  0.00000000000E+00 0.  1.
          6    1    1    2  501    0 -0.10223746023E+03  0.17228825852E+03 -0.18454804672E+03  0.32268052908E+03  0.17300000000E+03 0.  1.
         -6    1    1    2    0  502  0.10223746023E+03 -0.17228825852E+03 -0.70317387283E+03  0.75134428708E+03  0.17300000000E+03 0.  1.
</event>
<event>
 4    1  0.5712137E+000  0.1000000E+03  0.7546771E-02  0.1280296E+00
         21   -1    0    0  503  502  0.00000000000E+00  0.00000000000E+00  0.13698823415E+03  0.13698823415E+03  0.00000000000E+00 0.  1.
         21   -1    0    0  501  503 -0.00000000000E+00 -0.00000000000E+00 -0.46790826538E+03  0.46790826538E+03  0.00000000000E+00 0.  1.
          6    1    1    2  501    0 -0.67809124642E+02 -0.12117101327E+03 -0.31122513435E+03  0.38219180537E+03  0.17300000000E+03 0.  1.
         -6    1    1    2    0  502  0.67809124642E+02  0.12117101327E+03 -0.19694896877E+02  0.22270469417E+03  0.17300000000E+03 0.  1.
</event>
<event>
 4    1  0.5712137E+000  0.1000000E+03  0.7546771E-02  0.1280296E+00
         21   -1    0    0  503  502  0.00000000000E+00  0.00000000000E+00  0.53849512126E+03  0.53849512126E+03  0.00000000000E+00 0.  1.
         21   -1    0    0  501  503 -0.00000000000E+00 -0.00000000000E+00 -0.15746227745E+03  0.15746227745E+03  0.00000000000E+00 0.  1.
          6    1    1    2  501    0  0.76236646879E+02 -0.34019099136E+02 -0.71010028117E+02  0.20479440795E+03  0.17300000000E+03 0.  1.
         -6    1    1    2    0  502 -0.76236646879E+02  0.34019099136E+02  0.45204287193E+03  0.49116299076E+03  0.17300000000E+03 0.  1.
</event>
<event>
 4    1  0.5712137E+000  0.1000000E+03  0.7546771E-02  0.1280296E+00
         21   -1    0    0  503  502  0.00000000000E+00  0.00000000000E+00  0.27277448436E+03  0.27277448436E+03  0.00000000000E+00 0.  1.
         21   -1    0    0  501  503 -0.00000000000E+00 -0.00000000000E+00 -0.13897836402E+03  0.13897836402E+03  0.00000000000E+00 0.  1.
          6    1    1    2  501    0 -0.61485215953E+02  0.59115097022E+02  0.94987878552E+02  0.21500400822E+03  0.17300000000E+03 0.  1.
         -6    1    1    2    0  502  0.61485215953E+02 -0.59115097022E+02  0.38808241781E+02  0.19674884017E+03  0.17300000000E+03 0.  1.
</event>
<event>
 4    1  0.5712137E+000  0.1000000E+03  0.7546771E-02  0.1280296E+00
         21   -1    0    0  501  502  0.00000000000E+00  0.00000000000E+00  0.11098237154E+04  0.11098237154E+04  0.00000000000E+00 0. -1.
         21   -1    0    0  502  503 -0.00000000000E+00 -0.00000000000E+00 -0.78299745908E+02  0.78299745908E+02  0.00000000000E+00 0. -1.
          6    1    1    2  501    0  0.63841384731E+02 -0.11365302238E+03  0.91869281021E+03  0.94388463884E+03  0.17300000000E+03 0. -1.
         -6    1    1    2    0  503 -0.63841384731E+02  0.11365302238E+03  0.11283115929E+03  0.24423882248E+03  0.17300000000E+03 0. -1.
</event>
<event>
 4    1  0.5712137E+000  0.1000000E+03  0.7546771E-02  0.1280296E+00
         21   -1    0    0  501  502  0.00000000000E+00  0.00000000000E+00  0.26675527314E+03  0.26675527314E+03  0.00000000000E+00 0. -1.
         21   -1    0    0  502  503 -0.00000000000E+00 -0.00000000000E+00 -0.63199932354E+03  0.63199932354E+03  0.00000000000E+00 0. -1.
          6    1    1    2  501    0  0.49998126682E+02  0.29075356506E+03  0.66044135925E+02  0.34832208680E+03  0.17300000000E+03 0. -1.
         -6    1    1    2    0  503 -0.49998126682E+02 -0.29075356506E+03 -0.43128818633E+03  0.55043250988E+03  0.17300000000E+03 0. -1.
</event>
<event>
 4    1  0.5712137E+000  0.1000000E+03  0.7546771E-02  0.1280296E+00
         21   -1    0    0  503  502  0.00000000000E+00  0.00000000000E+00  0.13444281441E+03  0.13444281441E+03  0.00000000000E+00 0. -1.
         21   -1    0    0  501  503 -0.00000000000E+00 -0.00000000000E+00 -0.43104896581E+03  0.43104896581E+03  0.00000000000E+00 0. -1.
          6    1    1    2  501    0  0.44373282643E+02  0.16103291291E+03 -0.13533800371E+03  0.27594557888E+03  0.17300000000E+03 0.  1.
         -6    1    1    2    0  502 -0.44373282643E+02 -0.16103291291E+03 -0.16126814769E+03  0.28954620135E+03  0.17300000000E+03 0.  1.
</event>
<event>
 4    1  0.5712137E+000  0.1000000E+03  0.7546771E-02  0.1280296E+00
         21   -1    0    0  503  502  0.00000000000E+00  0.00000000000E+00  0.57279581145E+03  0.57279581145E+03  0.00000000000E+00 0. -1.
         21   -1    0    0  501  503 -0.00000000000E+00 -0.00000000000E+00 -0.22052059111E+03  0.22052059111E+03  0.00000000000E+00 0. -1.
          6    1    1    2  501    0  0.24790554771E+02 -0.23258158640E+03 -0.51703654655E+02  0.29548440541E+03  0.17300000000E+03 0.  1.
         -6    1    1    2    0  502 -0.24790554771E+02  0.23258158640E+03  0.40397887500E+03  0.49783199715E+03  0.17300000000E+03 0.  1.
</event>
<event>
 4    1  0.5712137E+000  0.1000000E+03  0.7546771E-02  0.1280296E+00
         21   -1    0    0  503  502  0.00000000000E+00  0.00000000000E+00  0.11260111802E+03  0.11260111802E+03  0.00000000000E+00 0. -1.
         21   -1    0    0  501  503 -0.00000000000E+00 -0.00000000000E+00 -0.35366423446E+03  0.35366423446E+03  0.00000000000E+00 0. -1.
          6    1    1    2  501    0 -0.48716804050E+02  0.43679886294E+00 -0.22184305464E+03  0.28551157364E+03  0.17300000000E+03 0.  1.
         -6    1    1    2    0  502  0.48716804050E+02 -0.43679886294E+00 -0.19220061802E+02  0.18075377884E+03  0.17300000000E+03 0.  1.
</event>
<event>
 4    1  0.5712137E+000  0.1000000E+03  0.7546771E-02  0.1280296E+00
         21   -1    0    0  503  502  0.00000000000E+00  0.00000000000E+00  0.81689664187E+03  0.81689664187E+03  0.00000000000E+00 0.  1.
         21   -1    0    0  501  503 -0.00000000000E+00 -0.00000000000E+00 -0.71921069985E+02  0.71921069985E+02  0.00000000000E+00 0. -1.
          6    1    1    2  501    0 -0.11781941815E+03  0.45962568923E+02  0.16481991911E+03  0.27034899440E+03  0.17300000000E+03 0.  1.
         -6    1    1    2    0  502  0.11781941815E+03 -0.45962568923E+02  0.58015565277E+03  0.61846871746E+03  0.17300000000E+03 0. -1.
</event>
<event>
 4    1  0.5712137E+000  0.1000000E+03  0.7546771E-02  0.1280296E+00
         21   -1    0    0  503  502  0.00000000000E+00  0.00000000000E+00  0.60014179181E+03  0.60014179181E+03  0.00000000000E+00 0. -1.
         21   -1    0    0  501  503 -0.00000000000E+00 -0.00000000000E+00 -0.29656373219E+03  0.29656373219E+03  0.00000000000E+00 0. -1.
          6    1    1    2  501    0 -0.37082029437E+03  0.96332660520E+02  0.11401079186E+03  0.43556300676E+03  0.17300000000E+03 0. -1.
         -6    1    1    2    0  502  0.37082029437E+03 -0.96332660520E+02  0.18956726776E+03  0.46114251724E+03  0.17300000000E+03 0. -1.
</event>
<event>
 4    1  0.5712137E+000  0.1000000E+03  0.7546771E-02  0.1280296E+00
         21   -1    0    0  503  502  0.00000000000E+00  0.00000000000E+00  0.45926318876E+03  0.45926318876E+03  0.00000000000E+00 0. -1.
         21   -1    0    0  501  503 -0.00000000000E+00 -0.00000000000E+00 -0.14410626210E+03  0.14410626210E+03  0.00000000000E+00 0. -1.
          6    1    1    2  501    0 -0.59280999334E-01 -0.93479017751E+02 -0.36943553962E+02  0.20008037498E+03  0.17300000000E+03 0. -1.
         -6    1    1    2    0  502  0.59280999334E-01  0.93479017751E+02  0.35210048061E+03  0.40328907588E+03  0.17300000000E+03 0. -1.
</event>
<event>
 4    1  0.5712137E+000  0.1000000E+03  0.7546771E-02  0.1280296E+00
         21   -1    0    0  503  502  0.00000000000E+00  0.00000000000E+00  0.55451480504E+03  0.55451480504E+03  0.00000000000E+00 0. -1.
         21   -1    0    0  501  503 -0.00000000000E+00 -0.00000000000E+00 -0.87639962427E+02  0.87639962427E+02  0.00000000000E+00 0. -1.
          6    1    1    2  501    0 -0.42840485522E+02  0.82982913479E+02  0.88175373998E+02  0.21546546756E+03  0.17300000000E+03 0. -1.
         -6    1    1    2    0  502  0.42840485522E+02 -0.82982913479E+02  0.37869946862E+03  0.42668929991E+03  0.17300000000E+03 0. -1.
</event>
<event>
 4    1  0.5712137E+000  0.1000000E+03  0.7546771E-02  0.1280296E+00
         21   -1    0    0  503  502  0.00000000000E+00  0.00000000000E+00  0.30706968169E+03  0.30706968169E+03  0.00000000000E+00 0.  1.
         21   -1    0    0  501  503 -0.00000000000E+00 -0.00000000000E+00 -0.26059128369E+03  0.26059128369E+03  0.00000000000E+00 0.  1.
          6    1    1    2  501    0  0.24105781317E+02  0.10641247411E+03 -0.17283145143E+03  0.26777679874E+03  0.17300000000E+03 0.  1.
         -6    1    1    2    0  502 -0.24105781317E+02 -0.10641247411E+03  0.21930984944E+03  0.29988416664E+03  0.17300000000E+03 0.  1.
</event>
<event>
 4    1  0.5712137E+000  0.1000000E+03  0.7546771E-02  0.1280296E+00
         21   -1    0    0  503  502  0.00000000000E+00  0.00000000000E+00  0.24007922012E+03  0.24007922012E+03  0.00000000000E+00 0.  1.
         21   -1    0    0  501  503 -0.00000000000E+00 -0.00000000000E+00 -0.20256793186E+03  0.20256793186E+03  0.00000000000E+00 0.  1.
          6    1    1    2  501    0 -0.11503277649E+03 -0.65156877956E+02 -0.16376340866E+02  0.21834638296E+03  0.17300000000E+03 0.  1.
         -6    1    1    2    0  502  0.11503277649E+03  0.65156877956E+02  0.53887629125E+02  0.22430076902E+03  0.17300000000E+03 0.  1.
</event>
<event>
 4    1  0.5712137E+000  0.1000000E+03  0.7546771E-02  0.1280296E+00
         21   -1    0    0  503  502  0.00000000000E+00  0.00000000000E+00  0.16216153888E+03  0.16216153888E+03  0.00000000000E+00 0.  1.
         21   -1    0    0  501  503 -0.00000000000E+00 -0.00000000000E+00 -0.73484595658E+03  0.73484595658E+03  0.00000000000E+00 0.  1.
          6    1    1    2  501    0 -0.84715884972E+02  0.11891952427E+03 -0.62493711207E+03  0.66467588226E+03  0.17300000000E+03 0.  1.
         -6    1    1    2    0  502  0.84715884972E+02 -0.11891952427E+03  0.52252694376E+02  0.23233161319E+03  0.17300000000E+03 0.  1.
</event>
<event>
 4    1  0.5712137E+000  0.1000000E+03  0.7546771E-02  0.1280296E+00
         21   -1    0    0  503  502  0.00000000000E+00  0.00000000000E+00  0.31027846164E+02  0.31027846164E+02  0.00000000000E+00 0.  1.
         21   -1    0    0  501  503 -0.00000000000E+00 -0.00000000000E+00 -0.14164884001E+04  0.14164884001E+04  0.00000000000E+00 0.  1.
          6    1    1    2  501    0 -0.11274049823E+03  0.24072314131E+02 -0.78611462019E+03  0.81313903628E+03  0.17300000000E+03 0.  1.
         -6    1    1    2    0  502  0.11274049823E+03 -0.24072314131E+02 -0.59934593377E+03  0.63437721000E+03  0.17300000000E+03 0.  1.
</event>
<event>
 4    1  0.5712137E+000  0.1000000E+03  0.7546771E-02  0.1280296E+00
         21   -1    0    0  503  502  0.00000000000E+00  0.00000000000E+00  0.11156924607E+04  0.11156924607E+04  0.00000000000E+00 0.  1.
         21   -1    0    0  501  503 -0.00000000000E+00 -0.00000000000E+00 -0.29677360256E+02  0.29677360256E+02  0.00000000000E+00 0.  1.
          6    1    1    2  501    0  0.37821100884E+02 -0.21782815711E+02  0.43054550949E+03  0.46605081534E+03  0.17300000000E+03 0.  1.
         -6    1    1    2    0  502 -0.37821100884E+02  0.21782815711E+02  0.65546959092E+03  0.67931900559E+03  0.17300000000E+03 0.  1.
</event>
<event>
 4    1  0.5712137E+000  0.1000000E+03  0.7546771E-02  0.1280296E+00
         21   -1    0    0  503  502  0.00000000000E+00  0.00000000000E+00  0.20526168024E+03  0.20526168024E+03  0.00000000000E+00 0. -1.
         21   -1    0    0  501  503 -0.00000000000E+00 -0.00000000000E+00 -0.15512796781E+03  0.15512796781E+03  0.00000000000E+00 0. -1.
          6    1    1    2  501    0  0.28372573894E+02 -0.29393000113E+02  0.92969982847E+01  0.17800108309E+03  0.17300000000E+03 0. -1.
         -6    1    1    2    0  502 -0.28372573894E+02  0.29393000113E+02  0.40836714146E+02  0.18238856496E+03  0.17300000000E+03 0. -1.
</event>
<event>
 4    1  0.5712137E+000  0.1000000E+03  0.7546771E-02  0.1280296E+00
         21   -1    0    0  501  502  0.00000000000E+00  0.00000000000E+00  0.30590982491E+03  0.30590982491E+03  0.00000000000E+00 0. -1.
         21   -1    0    0  502  503 -0.00000000000E+00 -0.00000000000E+00 -0.11466146436E+03  0.11466146436E+03  0.00000000000E+00 0.  1.
          6    1    1    2  501    0 -0.57583904740E+02  0.42700244851E+02  0.92478024511E+02  0.20885497843E+03  0.17300000000E+03 0. -1.
         -6    1    1    2    0  503  0.57583904740E+02 -0.42700244851E+02  0.98770336043E+02  0.21171631084E+03  0.17300000000E+03 0.  1.
</event>
<event>
 4    1  0.5712137E+000  0.1000000E+03  0.7546771E-02  0.1280296E+00
         21   -1    0    0  501  502  0.00000000000E+00  0.00000000000E+00  0.14742077062E+03  0.14742077062E+03  0.00000000000E+00 0. -1.
         21   -1    0    0  502  503 -0.00000000000E+00 -0.00000000000E+00 -0.27313992775E+03  0.27313992775E+03  0.00000000000E+00 0.  1.
          6    1    1    2  501    0 -0.97727132076E+02  0.22535348757E+02 -0.45353900561E+02  0.20504733742E+03  0.17300000000E+03 0. -1.
         -6    1    1    2    0  503  0.97727132076E+02 -0.22535348757E+02 -0.80365256567E+02  0.21551336096E+03  0.17300000000E+03 0.  1.
</event>
<event>
 4    1  0.5712137E+000  0.1000000E+03  0.7546771E-02  0.1280296E+00
         21   -1    0    0  501  502  0.00000000000E+00  0.00000000000E+00  0.63791131299E+02  0.63791131299E+02  0.00000000000E+00 0.  1.
         21   -1    0    0  502  503 -0.00000000000E+00 -0.00000000000E+00 -0.64384676300E+03  0.64384676300E+03  0.00000000000E+00 0.  1.
          6    1    1    2  501    0 -0.47648343865E+01 -0.10545125811E+03 -0.29038523841E+03  0.35411192887E+03  0.17300000000E+03 0.  1.
         -6    1    1    2    0  503  0.47648343865E+01  0.10545125811E+03 -0.28967039329E+03  0.35352596543E+03  0.17300000000E+03 0.  1.
</event>
<event>
 4    1  0.5712137E+000  0.1000000E+03  0.7546771E-02  0.1280296E+00
         21   -1    0    0  501  502  0.00000000000E+00  0.00000000000E+00  0.51853929931E+02  0.51853929931E+02  0.00000000000E+00 0.  1.
         21   -1    0    0  502  503 -0.00000000000E+00 -0.00000000000E+00 -0.15480294180E+04  0.15480294180E+04  0.00000000000E+00 0.  1.
          6    1    1    2  501    0 -0.59343263764E+01 -0.78661997111E+02 -0.15503531837E+03  0.24533217474E+03  0.17300000000E+03 0.  1.
         -6    1    1    2    0  503  0.59343263764E+01  0.78661997111E+02 -0.13411401697E+04  0.13545511732E+04  0.17300000000E+03 0.  1.
</event>
<event>
 4    1  0.5712137E+000  0.1000000E+03  0.7546771E-02  0.1280296E+00
         21   -1    0    0  503  502  0.00000000000E+00  0.00000000000E+00  0.33443789008E+03  0.33443789008E+03  0.00000000000E+00 0.  1.
         21   -1    0    0  501  503 -0.00000000000E+00 -0.00000000000E+00 -0.13634714580E+03  0.13634714580E+03  0.00000000000E+00 0.  1.
          6    1    1    2  501    0  0.10606253331E+01 -0.16584213627E+02 -0.37725795362E+02  0.17784374238E+03  0.17300000000E+03 0. -1.
         -6    1    1    2    0  502 -0.10606253331E+01  0.16584213627E+02  0.23581653965E+03  0.29294129350E+03  0.17300000000E+03 0. -1.
</event>
<event>
 4    1  0.5712137E+000  0.1000000E+03  0.7546771E-02  0.1280296E+00
         21   -1    0    0  503  502  0.00000000000E+00  0.00000000000E+00  0.52941090398E+03  0.52941090398E+03  0.00000000000E+00 0.  1.
         21   -1    0    0  501  503 -0.00000000000E+00 -0.00000000000E+00 -0.19246127950E+03  0.19246127950E+03  0.00000000000E+00 0.  1.
          6    1    1    2  501    0 -0.17244995323E+02 -0.18772669769E+03 -0.47325669703E+02  0.26020649858E+03  0.17300000000E+03 0.  1.
         -6    1    1    2    0  502  0.17244995323E+02  0.18772669769E+03  0.38427529418E+03  0.46166568490E+03  0.17300000000E+03 0.  1.
</event>
<event>
 4    1  0.5712137E+000  0.1000000E+03  0.7546771E-02  0.1280296E+00
         21   -1    0    0  503  502  0.00000000000E+00  0.00000000000E+00  0.51357433547E+03  0.51357433547E+03  0.00000000000E+00 0. -1.
         21   -1    0    0  501  503 -0.00000000000E+00 -0.00000000000E+00 -0.10133501464E+03  0.10133501464E+03  0.00000000000E+00 0. -1.
          6    1    1    2  501    0 -0.13007191358E+03 -0.18191208146E+01  0.10900849899E+03  0.24235070612E+03  0.17300000000E+03 0. -1.
         -6    1    1    2    0  502  0.13007191358E+03  0.18191208146E+01  0.30323082184E+03  0.37255864400E+03  0.17300000000E+03 0. -1.
</event>
<event>
 4    1  0.5712137E+000  0.1000000E+03  0.7546771E-02  0.1280296E+00
         21   -1    0    0  503  502  0.00000000000E+00  0.00000000000E+00  0.19925766451E+04  0.19925766451E+04  0.00000000000E+00 0. -1.
         21   -1    0    0  501  503 -0.00000000000E+00 -0.00000000000E+00 -0.24258343336E+02  0.24258343336E+02  0.00000000000E+00 0. -1.
          6    1    1    2  501    0  0.90114733771E+02 -0.83734657062E+02  0.72165402140E+03  0.75222714963E+03  0.17300000000E+03 0. -1.
         -6    1    1    2    0  502 -0.90114733771E+02  0.83734657062E+02  0.12466642804E+04  0.12646078388E+04  0.17300000000E+03 0. -1.
</event>
<event>
 4    1  0.5712137E+000  0.1000000E+03  0.7546771E-02  0.1280296E+00
         21   -1    0    0  503  502  0.00000000000E+00  0.00000000000E+00  0.62553565635E+03  0.62553565635E+03  0.00000000000E+00 0. -1.
         21   -1    0    0  501  503 -0.00000000000E+00 -0.00000000000E+00 -0.10675576257E+03  0.10675576257E+03  0.00000000000E+00 0. -1.
          6    1    1    2  501    0  0.15659416063E+03  0.44965317144E+02  0.11554427100E+03  0.26424059009E+03  0.17300000000E+03 0. -1.
         -6    1    1    2    0  502 -0.15659416063E+03 -0.44965317144E+02  0.40323562279E+03  0.46805082883E+03  0.17300000000E+03 0. -1.
</event>
<event>
 4    1  0.5712137E+000  0.1000000E+03  0.7546771E-02  0.1280296E+00
         21   -1    0    0  503  502  0.00000000000E+00  0.00000000000E+00  0.66820619893E+03  0.66820619893E+03  0.00000000000E+00 0. -1.
         21   -1    0    0  501  503 -0.00000000000E+00 -0.00000000000E+00 -0.49117301167E+02  0.49117301167E+02  0.00000000000E+00 0. -1.
          6    1    1    2  501    0 -0.50869521981E+02 -0.14995073807E+02  0.29195635459E+03  0.34348227537E+03  0.17300000000E+03 0. -1.
         -6    1    1    2    0  502  0.50869521981E+02  0.14995073807E+02  0.32713254317E+03  0.37384122473E+03  0.17300000000E+03 0. -1.
</event>
<event>
 4    1  0.5712137E+000  0.1000000E+03  0.7546771E-02  0.1280296E+00
         21   -1    0    0  503  502  0.00000000000E+00  0.00000000000E+00  0.41174196759E+03  0.41174196759E+03  0.00000000000E+00 0. -1.
         21   -1    0    0  501  503 -0.00000000000E+00 -0.00000000000E+00 -0.94685324070E+02  0.94685324070E+02  0.00000000000E+00 0. -1.
          6    1    1    2  501    0  0.86466341648E+02  0.36070240854E+02  0.13709099686E+03  0.23979247681E+03  0.17300000000E+03 0. -1.
         -6    1    1    2    0  502 -0.86466341648E+02 -0.36070240854E+02  0.17996564666E+03  0.26663481485E+03  0.17300000000E+03 0. -1.
</event>
<event>
 4    1  0.5712137E+000  0.1000000E+03  0.7546771E-02  0.1280296E+00
         21   -1    0    0  503  502  0.00000000000E+00  0.00000000000E+00  0.35463137734E+03  0.35463137734E+03  0.00000000000E+00 0. -1.
         21   -1    0    0  501  503 -0.00000000000E+00 -0.00000000000E+00 -0.75159286303E+03  0.75159286303E+03  0.00000000000E+00 0. -1.
          6    1    1    2  501    0 -0.18347794363E+03  0.54329737664E+02 -0.67759737967E+03  0.72504005761E+03  0.17300000000E+03 0. -1.
         -6    1    1    2    0  502  0.18347794363E+03 -0.54329737664E+02  0.28063589399E+03  0.38118418276E+03  0.17300000000E+03 0. -1.
</event>
<event>
 4    1  0.5712137E+000  0.1000000E+03  0.7546771E-02  0.1280296E+00
         21   -1    0    0  503  502  0.00000000000E+00  0.00000000000E+00  0.61011799133E+03  0.61011799133E+03  0.00000000000E+00 0. -1.
         21   -1    0    0  501  503 -0.00000000000E+00 -0.00000000000E+00 -0.14585202335E+03  0.14585202335E+03  0.00000000000E+00 0. -1.
          6    1    1    2  501    0 -0.11016464104E+03 -0.10098982994E+03 -0.10683980075E+02  0.22886314976E+03  0.17300000000E+03 0. -1.
         -6    1    1    2    0  502  0.11016464104E+03  0.10098982994E+03  0.47494994806E+03  0.52710686492E+03  0.17300000000E+03 0. -1.
</event>
<event>
 4    1  0.5712137E+000  0.1000000E+03  0.7546771E-02  0.1280296E+00
         21   -1    0    0  501  502  0.00000000000E+00  0.00000000000E+00  0.11845868205E+03  0.11845868205E+03  0.00000000000E+00 0. -1.
         21   -1    0    0  502  503 -0.00000000000E+00 -0.00000000000E+00 -0.58594987761E+03  0.58594987761E+03  0.00000000000E+00 0.  1.
          6    1    1    2  501    0 -0.31616300071E+02 -0.82234221480E+02  0.43471222858E+01  0.19419051234E+03  0.17300000000E+03 0. -1.
         -6    1    1    2    0  503  0.31616300071E+02  0.82234221480E+02 -0.47183831784E+03  0.51021804731E+03  0.17300000000E+03 0.  1.
</event>
<event>
 4    1  0.5712137E+000  0.1000000E+03  0.7546771E-02  0.1280296E+00
         21   -1    0    0  501  502  0.00000000000E+00  0.00000000000E+00  0.97559738807E+02  0.97559738807E+02  0.00000000000E+00 0. -1.
         21   -1    0    0  502  503 -0.00000000000E+00 -0.00000000000E+00 -0.34727854390E+03  0.34727854390E+03  0.00000000000E+00 0.  1.
          6    1    1    2  501    0  0.60677999473E+02 -0.14506936018E+02 -0.11556730745E+03  0.21720283922E+03  0.17300000000E+03 0. -1.
         -6    1    1    2    0  503 -0.60677999473E+02  0.14506936018E+02 -0.13415149764E+03  0.22763544349E+03  0.17300000000E+03 0.  1.
</event>
<event>
 4    1  0.5712137E+000  0.1000000E+03  0.7546771E-02  0.1280296E+00
         21   -1    0    0  501  502  0.00000000000E+00  0.00000000000E+00  0.23451543052E+03  0.23451543052E+03  0.00000000000E+00 0.  1.
         21   -1    0    0  502  503 -0.00000000000E+00 -0.00000000000E+00 -0.17250266786E+03  0.17250266786E+03  0.00000000000E+00 0.  1.
          6    1    1    2  501    0 -0.57531076277E+02  0.65251087388E+02  0.86036417451E+02  0.21189335589E+03  0.17300000000E+03 0.  1.
         -6    1    1    2    0  503  0.57531076277E+02 -0.65251087388E+02 -0.24023654792E+02  0.19512474249E+03  0.17300000000E+03 0.  1.
</event>
<event>
 4    1  0.5712137E+000  0.1000000E+03  0.7546771E-02  0.1280296E+00
         21   -1    0    0  501  502  0.00000000000E+00  0.00000000000E+00  0.47990310831E+03  0.47990310831E+03  0.00000000000E+00 0.  1.
         21   -1    0    0  502  503 -0.00000000000E+00 -0.00000000000E+00 -0.96223162161E+02  0.96223162161E+02  0.00000000000E+00 0.  1.
          6    1    1    2  501    0  0.11286881896E+02 -0.12223804616E+03  0.23787369114E+03  0.31871998144E+03  0.17300000000E+03 0.  1.
         -6    1    1    2    0  503 -0.11286881896E+02  0.12223804616E+03  0.14580625501E+03  0.25740628903E+03  0.17300000000E+03 0.  1.
</event>
<event>
 4    1  0.5712137E+000  0.1000000E+03  0.7546771E-02  0.1280296E+00
         21   -1    0    0  501  502  0.00000000000E+00  0.00000000000E+00  0.11119296838E+04  0.11119296838E+04  0.00000000000E+00 0.  1.
         21   -1    0    0  502  503 -0.00000000000E+00 -0.00000000000E+00 -0.77097675772E+02  0.77097675772E+02  0.00000000000E+00 0.  1.
          6    1    1    2  501    0 -0.21168514820E+03 -0.10415337478E+03  0.54141257220E+03  0.61539832693E+03  0.17300000000E+03 0.  1.
         -6    1    1    2    0  503  0.21168514820E+03  0.10415337478E+03  0.49341943586E+03  0.57362903268E+03  0.17300000000E+03 0.  1.
</event>
<event>
 4    1  0.5712137E+000  0.1000000E+03  0.7546771E-02  0.1280296E+00
         21   -1    0    0  501  502  0.00000000000E+00  0.00000000000E+00  0.17192225877E+03  0.17192225877E+03  0.00000000000E+00 0. -1.
         21   -1    0    0  502  503 -0.00000000000E+00 -0.00000000000E+00 -0.32706866489E+03  0.32706866489E+03  0.00000000000E+00 0.  1.
          6    1    1    2  501    0  0.94259261231E+02  0.40176131565E+02  0.54690108249E+02  0.20837211381E+03  0.17300000000E+03 0.  1.
         -6    1    1    2    0  503 -0.94259261231E+02 -0.40176131565E+02 -0.20983651437E+03  0.29061880985E+03  0.17300000000E+03 0. -1.
</event>
<event>
 4    1  0.5712137E+000  0.1000000E+03  0.7546771E-02  0.1280296E+00
         21   -1    0    0  501  502  0.00000000000E+00  0.00000000000E+00  0.10224982132E+03  0.10224982132E+03  0.00000000000E+00 0. -1.
         21   -1    0    0  502  503 -0.00000000000E+00 -0.00000000000E+00 -0.23471364086E+04  0.23471364086E+04  0.00000000000E+00 0.  1.
          6    1    1    2  501    0 -0.20048421831E+03  0.67322129598E+02 -0.10592640032E+03  0.29304537739E+03  0.17300000000E+03 0.  1.
         -6    1    1    2    0  503  0.20048421831E+03 -0.67322129598E+02 -0.21389601870E+04  0.21563408526E+04  0.17300000000E+03 0. -1.
</event>
<event>
 4    1  0.5712137E+000  0.1000000E+03  0.7546771E-02  0.1280296E+00
         21   -1    0    0  501  502  0.00000000000E+00  0.00000000000E+00  0.23885956808E+03  0.23885956808E+03  0.00000000000E+00 0. -1.
         21   -1    0    0  502  503 -0.00000000000E+00 -0.00000000000E+00 -0.63895191970E+03  0.63895191970E+03  0.00000000000E+00 0.  1.
          6    1    1    2  501    0  0.29919941639E+03  0.44463236208E+02 -0.16204524019E+01  0.34846649194E+03  0.17300000000E+03 0.  1.
         -6    1    1    2    0  503 -0.29919941639E+03 -0.44463236208E+02 -0.39847189922E+03  0.52934499583E+03  0.17300000000E+03 0. -1.
</event>
<event>
 4    1  0.5712137E+000  0.1000000E+03  0.7546771E-02  0.1280296E+00
         21   -1    0    0  501  502  0.00000000000E+00  0.00000000000E+00  0.70344579531E+03  0.70344579531E+03  0.00000000000E+00 0. -1.
         21   -1    0    0  502  503 -0.00000000000E+00 -0.00000000000E+00 -0.17005885253E+03  0.17005885253E+03  0.00000000000E+00 0. -1.
          6    1    1    2  501    0  0.65556165840E+02  0.33906420400E+02  0.63322187158E+03  0.66056505726E+03  0.17300000000E+03 0. -1.
         -6    1    1    2    0  503 -0.65556165840E+02 -0.33906420400E+02 -0.99834928807E+02  0.21293959057E+03  0.17300000000E+03 0. -1.
</event>
<event>
 4    1  0.5712137E+000  0.1000000E+03  0.7546771E-02  0.1280296E+00
         21   -1    0    0  501  502  0.00000000000E+00  0.00000000000E+00  0.48684466454E+02  0.48684466454E+02  0.00000000000E+00 0. -1.
         21   -1    0    0  502  503 -0.00000000000E+00 -0.00000000000E+00 -0.23781860926E+04  0.23781860926E+04  0.00000000000E+00 0. -1.
          6    1    1    2  501    0  0.15219771285E+03  0.31967391604E+02 -0.27918631894E+03  0.36340068603E+03  0.17300000000E+03 0. -1.
         -6    1    1    2    0  503 -0.15219771285E+03 -0.31967391604E+02 -0.20503153073E+04  0.20634698731E+04  0.17300000000E+03 0. -1.
</event>
<event>
 4    1  0.5712137E+000  0.1000000E+03  0.7546771E-02  0.1280296E+00
         21   -1    0    0  503  502  0.00000000000E+00  0.00000000000E+00  0.29790453293E+02  0.29790453293E+02  0.00000000000E+00 0. -1.
         21   -1    0    0  501  503 -0.00000000000E+00 -0.00000000000E+00 -0.13866510379E+04  0.13866510379E+04  0.00000000000E+00 0.  1.
          6    1    1    2  501    0 -0.32732824101E+02  0.10088294102E+03 -0.63852385793E+03  0.66999292736E+03  0.17300000000E+03 0. -1.
         -6    1    1    2    0  502  0.32732824101E+02 -0.10088294102E+03 -0.71833672672E+03  0.74644856388E+03  0.17300000000E+03 0. -1.
</event>
<event>
 4    1  0.5712137E+000  0.1000000E+03  0.7546771E-02  0.1280296E+00
         21   -1    0    0  503  502  0.00000000000E+00  0.00000000000E+00  0.86282680705E+02  0.86282680705E+02  0.00000000000E+00 0. -1.
         21   -1    0    0  501  503 -0.00000000000E+00 -0.00000000000E+00 -0.11482279065E+04  0.11482279065E+04  0.00000000000E+00 0.  1.
          6    1    1    2  501    0  0.13831790721E+03  0.40032177592E+02 -0.96244295853E+03  0.98841280198E+03  0.17300000000E+03 0. -1.
         -6    1    1    2    0  502 -0.13831790721E+03 -0.40032177592E+02 -0.99502267254E+02  0.24609778521E+03  0.17300000000E+03 0. -1.
</event>
<event>
 4    1  0.5712137E+000  0.1000000E+03  0.7546771E-02  0.1280296E+00
         21   -1    0    0  503  502  0.00000000000E+00  0.00000000000E+00  0.59412584402E+03  0.59412584402E+03  0.00000000000E+00 0. -1.
         21   -1    0    0  501  503 -0.00000000000E+00 -0.00000000000E+00 -0.11586570279E+03  0.11586570279E+03  0.00000000000E+00 0.  1.
          6    1    1    2  501    0  0.58555146823E+02 -0.17581242918E+03  0.14765209651E+03  0.29337494283E+03  0.17300000000E+03 0. -1.
         -6    1    1    2    0  502 -0.58555146823E+02  0.17581242918E+03  0.33060804472E+03  0.41661660398E+03  0.17300000000E+03 0. -1.
</event>
<event>
 4    1  0.5712137E+000  0.1000000E+03  0.7546771E-02  0.1280296E+00
         21   -1    0    0  503  502  0.00000000000E+00  0.00000000000E+00  0.10337487042E+04  0.10337487042E+04  0.00000000000E+00 0. -1.
         21   -1    0    0  501  503 -0.00000000000E+00 -0.00000000000E+00 -0.11261383570E+03  0.11261383570E+03  0.00000000000E+00 0.  1.
          6    1    1    2  501    0 -0.24690832254E+02 -0.29015700815E+03  0.39161535668E+03  0.51777631672E+03  0.17300000000E+03 0. -1.
         -6    1    1    2    0  502  0.24690832254E+02  0.29015700815E+03  0.52951951187E+03  0.62858622322E+03  0.17300000000E+03 0. -1.
</event>
<event>
 4    1  0.5712137E+000  0.1000000E+03  0.7546771E-02  0.1280296E+00
         21   -1    0    0  503  502  0.00000000000E+00  0.00000000000E+00  0.11977805377E+03  0.11977805377E+03  0.00000000000E+00 0. -1.
         21   -1    0    0  501  503 -0.00000000000E+00 -0.00000000000E+00 -0.33443676162E+03  0.33443676162E+03  0.00000000000E+00 0.  1.
          6    1    1    2  501    0  0.19753500841E+02  0.37187159753E+02 -0.21105531122E+03  0.27612756118E+03  0.17300000000E+03 0. -1.
         -6    1    1    2    0  502 -0.19753500841E+02 -0.37187159753E+02 -0.36033966298E+01  0.17808725421E+03  0.17300000000E+03 0. -1.
</event>
<event>
 4    1  0.5712137E+000  0.1000000E+03  0.7546771E-02  0.1280296E+00
         21   -1    0    0  503  502  0.00000000000E+00  0.00000000000E+00  0.50284175097E+03  0.50284175097E+03  0.00000000000E+00 0.  1.
         21   -1    0    0  501  503 -0.00000000000E+00 -0.00000000000E+00 -0.13311168783E+03  0.13311168783E+03  0.00000000000E+00 0.  1.
          6    1    1    2  501    0  0.17181579910E+03  0.26556060842E+02  0.83669471127E+02  0.25914373152E+03  0.17300000000E+03 0.  1.
         -6    1    1    2    0  502 -0.17181579910E+03 -0.26556060842E+02  0.28606059201E+03  0.37680970727E+03  0.17300000000E+03 0.  1.
</event>
<event>
 4    1  0.5712137E+000  0.1000000E+03  0.7546771E-02  0.1280296E+00
         21   -1    0    0  503  502  0.00000000000E+00  0.00000000000E+00  0.24097035044E+03  0.24097035044E+03  0.00000000000E+00 0.  1.
         21   -1    0    0  501  503 -0.00000000000E+00 -0.00000000000E+00 -0.28867157997E+03  0.28867157997E+03  0.00000000000E+00 0.  1.
          6    1    1    2  501    0 -0.10316734905E+03 -0.34813947083E+02 -0.19119436072E+03  0.27989247291E+03  0.17300000000E+03 0.  1.
         -6    1    1    2    0  502  0.10316734905E+03  0.34813947083E+02  0.14349313118E+03  0.24974945749E+03  0.17300000000E+03 0.  1.
</event>
<event>
 4    1  0.5712137E+000  0.1000000E+03  0.7546771E-02  0.1280296E+00
         21   -1    0    0  503  502  0.00000000000E+00  0.00000000000E+00  0.88776005387E+02  0.88776005387E+02  0.00000000000E+00 0.  1.
         21   -1    0    0  501  503 -0.00000000000E+00 -0.00000000000E+00 -0.45172595775E+03  0.45172595775E+03  0.00000000000E+00 0.  1.
          6    1    1    2  501    0 -0.16860584279E+02 -0.44877227306E+02 -0.61714852737E+02  0.18983141964E+03  0.17300000000E+03 0.  1.
         -6    1    1    2    0  502  0.16860584279E+02  0.44877227306E+02 -0.30123509963E+03  0.35067054350E+03  0.17300000000E+03 0.  1.
</event>
<event>
 4    1  0.5712137E+000  0.1000000E+03  0.7546771E-02  0.1280296E+00
         21   -1    0    0  503  502  0.00000000000E+00  0.00000000000E+00  0.13196538881E+04  0.13196538881E+04  0.00000000000E+00 0.  1.
         21   -1    0    0  501  503 -0.00000000000E+00 -0.00000000000E+00 -0.35511051961E+02  0.35511051961E+02  0.00000000000E+00 0.  1.
          6    1    1    2  501    0 -0.10585438435E+03 -0.39149043225E+01  0.40549270440E+03  0.45340248178E+03  0.17300000000E+03 0.  1.
         -6    1    1    2    0  502  0.10585438435E+03  0.39149043225E+01  0.87865013171E+03  0.90176245825E+03  0.17300000000E+03 0.  1.
</event>
<event>
 4    1  0.5712137E+000  0.1000000E+03  0.7546771E-02  0.1280296E+00
         21   -1    0    0  503  502  0.00000000000E+00  0.00000000000E+00  0.47920720670E+03  0.47920720670E+03  0.00000000000E+00 0.  1.
         21   -1    0    0  501  503 -0.00000000000E+00 -0.00000000000E+00 -0.80922252617E+02  0.80922252617E+02  0.00000000000E+00 0.  1.
          6    1    1    2  501    0 -0.27127723182E+02  0.65569720909E+02  0.11130781812E+03  0.21760912674E+03  0.17300000000E+03 0.  1.
         -6    1    1    2    0  502  0.27127723182E+02 -0.65569720909E+02  0.28697713595E+03  0.34252033257E+03  0.17300000000E+03 0.  1.
</event>
<event>
 4    1  0.5712137E+000  0.1000000E+03  0.7546771E-02  0.1280296E+00
         21   -1    0    0  503  502  0.00000000000E+00  0.00000000000E+00  0.66680913782E+03  0.66680913782E+03  0.00000000000E+00 0.  1.
         21   -1    0    0  501  503 -0.00000000000E+00 -0.00000000000E+00 -0.46513779937E+02  0.46513779937E+02  0.00000000000E+00 0.  1.
          6    1    1    2  501    0  0.74855535794E+01 -0.28621672477E+02  0.28068978161E+03  0.33104529471E+03  0.17300000000E+03 0.  1.
         -6    1    1    2    0  502 -0.74855535794E+01  0.28621672477E+02  0.33960557627E+03  0.38227762305E+03  0.17300000000E+03 0.  1.
</event>
<event>
 4    1  0.5712137E+000  0.1000000E+03  0.7546771E-02  0.1280296E+00
         21   -1    0    0  501  502  0.00000000000E+00  0.00000000000E+00  0.34693685664E+02  0.34693685664E+02  0.00000000000E+00 0.  1.
         21   -1    0    0  502  503 -0.00000000000E+00 -0.00000000000E+00 -0.14953917631E+04  0.14953917631E+04  0.00000000000E+00 0. -1.
          6    1    1    2  501    0 -0.25980697086E+02 -0.12258893402E+03 -0.46484286013E+03  0.51157690329E+03  0.17300000000E+03 0.  1.
         -6    1    1    2    0  503  0.25980697086E+02  0.12258893402E+03 -0.99585521726E+03  0.10185085454E+04  0.17300000000E+03 0. -1.
</event>
<event>
 4    1  0.5712137E+000  0.1000000E+03  0.7546771E-02  0.1280296E+00
         21   -1    0    0  501  502  0.00000000000E+00  0.00000000000E+00  0.11871237364E+03  0.11871237364E+03  0.00000000000E+00 0.  1.
         21   -1    0    0  502  503 -0.00000000000E+00 -0.00000000000E+00 -0.86250749192E+03  0.86250749192E+03  0.00000000000E+00 0. -1.
          6    1    1    2  501    0  0.87547467507E+02 -0.29841890821E+01  0.18362116070E+02  0.19478098408E+03  0.17300000000E+03 0.  1.
         -6    1    1    2    0  503 -0.87547467507E+02  0.29841890821E+01 -0.76215723434E+03  0.78643888149E+03  0.17300000000E+03 0. -1.
</event>
<event>
 4    1  0.5712137E+000  0.1000000E+03  0.7546771E-02  0.1280296E+00
         21   -1    0    0  501  502  0.00000000000E+00  0.00000000000E+00  0.87187542791E+03  0.87187542791E+03  0.00000000000E+00 0.  1.
         21   -1    0    0  502  503 -0.00000000000E+00 -0.00000000000E+00 -0.59771476782E+02  0.59771476782E+02  0.00000000000E+00 0. -1.
          6    1    1    2  501    0 -0.33482502100E+02  0.54661428107E+01  0.70199022892E+03  0.72378880770E+03  0.17300000000E+03 0.  1.
         -6    1    1    2    0  503  0.33482502100E+02 -0.54661428107E+01  0.11011372221E+03  0.20785809699E+03  0.17300000000E+03 0. -1.
</event>
<event>
 4    1  0.5712137E+000  0.1000000E+03  0.7546771E-02  0.1280296E+00
         21   -1    0    0  503  502  0.00000000000E+00  0.00000000000E+00  0.19370490461E+03  0.19370490461E+03  0.00000000000E+00 0. -1.
         21   -1    0    0  501  503 -0.00000000000E+00 -0.00000000000E+00 -0.82250685512E+03  0.82250685512E+03  0.00000000000E+00 0. -1.
          6    1    1    2  501    0  0.13341597703E+02 -0.73297671487E+02 -0.76237388151E+03  0.78529833954E+03  0.17300000000E+03 0. -1.
         -6    1    1    2    0  502 -0.13341597703E+02  0.73297671487E+02  0.13357193099E+03  0.23091342019E+03  0.17300000000E+03 0. -1.
</event>
<event>
 4    1  0.5712137E+000  0.1000000E+03  0.7546771E-02  0.1280296E+00
         21   -1    0    0  503  502  0.00000000000E+00  0.00000000000E+00  0.20790422034E+03  0.20790422034E+03  0.00000000000E+00 0. -1.
         21   -1    0    0  501  503 -0.00000000000E+00 -0.00000000000E+00 -0.17403880672E+03  0.17403880672E+03  0.00000000000E+00 0. -1.
          6    1    1    2  501    0 -0.14232890010E+02 -0.42360877505E+02 -0.48573924441E+02  0.18516329344E+03  0.17300000000E+03 0. -1.
         -6    1    1    2    0  502  0.14232890010E+02  0.42360877505E+02  0.82439338061E+02  0.19677973361E+03  0.17300000000E+03 0. -1.
</event>
<event>
 4    1  0.5712137E+000  0.1000000E+03  0.7546771E-02  0.1280296E+00
         21   -1    0    0  503  502  0.00000000000E+00  0.00000000000E+00  0.16585534566E+02  0.16585534566E+02  0.00000000000E+00 0. -1.
         21   -1    0    0  501  503 -0.00000000000E+00 -0.00000000000E+00 -0.19488725302E+04  0.19488725302E+04  0.00000000000E+00 0. -1.
          6    1    1    2  501    0 -0.39029221351E+01  0.28519421207E+01 -0.12322883344E+04  0.12443821380E+04  0.17300000000E+03 0. -1.
         -6    1    1    2    0  502  0.39029221351E+01 -0.28519421207E+01 -0.69999866125E+03  0.72107592674E+03  0.17300000000E+03 0. -1.
</event>
<event>
 4    1  0.5712137E+000  0.1000000E+03  0.7546771E-02  0.1280296E+00
         21   -1    0    0  501  502  0.00000000000E+00  0.00000000000E+00  0.34156696002E+02  0.34156696002E+02  0.00000000000E+00 0.  1.
         21   -1    0    0  502  503 -0.00000000000E+00 -0.00000000000E+00 -0.19073113641E+04  0.19073113641E+04  0.00000000000E+00 0. -1.
          6    1    1    2  501    0  0.16879871438E+03 -0.60033096533E+02 -0.72409075017E+03  0.76572409727E+03  0.17300000000E+03 0.  1.
         -6    1    1    2    0  503 -0.16879871438E+03  0.60033096533E+02 -0.11490639179E+04  0.11757439628E+04  0.17300000000E+03 0.  1.
</event>
<event>
 4    1  0.5712137E+000  0.1000000E+03  0.7546771E-02  0.1280296E+00
         21   -1    0    0  501  502  0.00000000000E+00  0.00000000000E+00  0.12245603535E+04  0.12245603535E+04  0.00000000000E+00 0. -1.
         21   -1    0    0  502  503 -0.00000000000E+00 -0.00000000000E+00 -0.29481448350E+02  0.29481448350E+02  0.00000000000E+00 0.  1.
          6    1    1    2  501    0 -0.40397985242E+02 -0.43764590292E+02  0.76663086773E+03  0.78816192748E+03  0.17300000000E+03 0.  1.
         -6    1    1    2    0  503  0.40397985242E+02  0.43764590292E+02  0.42844803747E+03  0.46587987441E+03  0.17300000000E+03 0.  1.
</event>
<event>
 4    1  0.5712137E+000  0.1000000E+03  0.7546771E-02  0.1280296E+00
         21   -1    0    0  501  502  0.00000000000E+00  0.00000000000E+00  0.12120066508E+04  0.12120066508E+04  0.00000000000E+00 0. -1.
         21   -1    0    0  502  503 -0.00000000000E+00 -0.00000000000E+00 -0.38480950264E+02  0.38480950264E+02  0.00000000000E+00 0.  1.
          6    1    1    2  501    0  0.69087085775E+01  0.92909405306E+02  0.84620428509E+03  0.86871777923E+03  0.17300000000E+03 0.  1.
         -6    1    1    2    0  503 -0.69087085775E+01 -0.92909405306E+02  0.32732141541E+03  0.38176982180E+03  0.17300000000E+03 0.  1.
</event>
<event>
 4    1  0.5712137E+000  0.1000000E+03  0.7546771E-02  0.1280296E+00
         21   -1    0    0  501  502  0.00000000000E+00  0.00000000000E+00  0.10037625567E+03  0.10037625567E+03  0.00000000000E+00 0. -1.
         21   -1    0    0  502  503 -0.00000000000E+00 -0.00000000000E+00 -0.54661029055E+03  0.54661029055E+03  0.00000000000E+00 0.  1.
          6    1    1    2  501    0 -0.13798939699E+03  0.68784899280E+02 -0.17597350403E+03  0.29097785168E+03  0.17300000000E+03 0.  1.
         -6    1    1    2    0  503  0.13798939699E+03 -0.68784899280E+02 -0.27026053085E+03  0.35600869454E+03  0.17300000000E+03 0.  1.
</event>
<event>
 4    1  0.5712137E+000  0.1000000E+03  0.7546771E-02  0.1280296E+00
         21   -1    0    0  503  502  0.00000000000E+00  0.00000000000E+00  0.35872981661E+02  0.35872981661E+02  0.00000000000E+00 0.  1.
         21   -1    0    0  501  503 -0.00000000000E+00 -0.00000000000E+00 -0.12395601658E+04  0.12395601658E+04  0.00000000000E+00 0.  1.
          6    1    1    2  501    0  0.32390595710E+02  0.52928534724E+02 -0.91448095722E+03  0.93276738880E+03  0.17300000000E+03 0.  1.
         -6    1    1    2    0  502 -0.32390595710E+02 -0.52928534724E+02 -0.28920622696E+03  0.34266575871E+03  0.17300000000E+03 0.  1.
</event>
<event>
 4    1  0.5712137E+000  0.1000000E+03  0.7546771E-02  0.1280296E+00
         21   -1    0    0  503  502  0.00000000000E+00  0.00000000000E+00  0.64713608116E+03  0.64713608116E+03  0.00000000000E+00 0.  1.
         21   -1    0    0  501  503 -0.00000000000E+00 -0.00000000000E+00 -0.61029660311E+02  0.61029660311E+02  0.00000000000E+00 0.  1.
          6    1    1    2  501    0  0.38071943791E+02 -0.37475030477E+02  0.14708741340E+03  0.23327571239E+03  0.17300000000E+03 0.  1.
         -6    1    1    2    0  502 -0.38071943791E+02  0.37475030477E+02  0.43901900745E+03  0.47489002908E+03  0.17300000000E+03 0.  1.
</event>
<event>
 4    1  0.5712137E+000  0.1000000E+03  0.7546771E-02  0.1280296E+00
         21   -1    0    0  503  502  0.00000000000E+00  0.00000000000E+00  0.53924085643E+02  0.53924085643E+02  0.00000000000E+00 0.  1.
         21   -1    0    0  501  503 -0.00000000000E+00 -0.00000000000E+00 -0.78710231159E+03  0.78710231159E+03  0.00000000000E+00 0. -1.
          6    1    1    2  501    0 -0.65582677428E+02 -0.49278030841E+01 -0.55130265155E+03  0.58154018298E+03  0.17300000000E+03 0.  1.
         -6    1    1    2    0  502  0.65582677428E+02  0.49278030841E+01 -0.18187557440E+03  0.25948621425E+03  0.17300000000E+03 0.  1.
</event>
<event>
 4    1  0.5712137E+000  0.1000000E+03  0.7546771E-02  0.1280296E+00
         21   -1    0    0  503  502  0.00000000000E+00  0.00000000000E+00  0.18254191265E+03  0.18254191265E+03  0.00000000000E+00 0. -1.
         21   -1    0    0  501  503 -0.00000000000E+00 -0.00000000000E+00 -0.76011701259E+03  0.76011701259E+03  0.00000000000E+00 0. -1.
          6    1    1    2  501    0 -0.21103345931E+03 -0.99039936412E+02 -0.58412759974E+03  0.65228681017E+03  0.17300000000E+03 0. -1.
         -6    1    1    2    0  502  0.21103345931E+03  0.99039936412E+02  0.65524997879E+01  0.29037211506E+03  0.17300000000E+03 0. -1.
</event>
<event>
 4    1  0.5712137E+000  0.1000000E+03  0.7546771E-02  0.1280296E+00
         21   -1    0    0  503  502  0.00000000000E+00  0.00000000000E+00  0.11281485339E+03  0.11281485339E+03  0.00000000000E+00 0. -1.
         21   -1    0    0  501  503 -0.00000000000E+00 -0.00000000000E+00 -0.10386067779E+04  0.10386067779E+04  0.00000000000E+00 0. -1.
          6    1    1    2  501    0  0.19825219483E+03 -0.13796716111E+03 -0.74882787677E+03  0.80561222641E+03  0.17300000000E+03 0. -1.
         -6    1    1    2    0  502 -0.19825219483E+03  0.13796716111E+03 -0.17696404771E+03  0.34580940485E+03  0.17300000000E+03 0. -1.
</event>
<event>
 4    1  0.5712137E+000  0.1000000E+03  0.7546771E-02  0.1280296E+00
         21   -1    0    0  503  502  0.00000000000E+00  0.00000000000E+00  0.10704272251E+04  0.10704272251E+04  0.00000000000E+00 0. -1.
         21   -1    0    0  501  503 -0.00000000000E+00 -0.00000000000E+00 -0.15741823850E+03  0.15741823850E+03  0.00000000000E+00 0. -1.
          6    1    1    2  501    0  0.25501724424E+03 -0.11657457994E+03  0.90310944778E+02  0.34162624942E+03  0.17300000000E+03 0. -1.
         -6    1    1    2    0  502 -0.25501724424E+03  0.11657457994E+03  0.82269804187E+03  0.88621921422E+03  0.17300000000E+03 0. -1.
</event>
<event>
 4    1  0.5712137E+000  0.1000000E+03  0.7546771E-02  0.1280296E+00
         21   -1    0    0  503  502  0.00000000000E+00  0.00000000000E+00  0.12730363692E+03  0.12730363692E+03  0.00000000000E+00 0. -1.
         21   -1    0    0  501  503 -0.00000000000E+00 -0.00000000000E+00 -0.10047969496E+04  0.10047969496E+04  0.00000000000E+00 0. -1.
          6    1    1    2  501    0 -0.28857083795E+03  0.16283034317E+02 -0.62897923839E+03  0.71349992855E+03  0.17300000000E+03 0. -1.
         -6    1    1    2    0  502  0.28857083795E+03 -0.16283034317E+02 -0.24851407425E+03  0.41860065793E+03  0.17300000000E+03 0. -1.
</event>
<event>
 4    1  0.5712137E+000  0.1000000E+03  0.7546771E-02  0.1280296E+00
         21   -1    0    0  503  502  0.00000000000E+00  0.00000000000E+00  0.11893879240E+03  0.11893879240E+03  0.00000000000E+00 0. -1.
         21   -1    0    0  501  503 -0.00000000000E+00 -0.00000000000E+00 -0.37290198876E+03  0.37290198876E+03  0.00000000000E+00 0. -1.
          6    1    1    2  501    0  0.28571039495E+02  0.29246382161E+02 -0.25884435334E+03  0.31400804834E+03  0.17300000000E+03 0. -1.
         -6    1    1    2    0  502 -0.28571039495E+02 -0.29246382161E+02  0.48811569880E+01  0.17783273282E+03  0.17300000000E+03 0. -1.
</event>
<event>
 4    1  0.5712137E+000  0.1000000E+03  0.7546771E-02  0.1280296E+00
         21   -1    0    0  503  502  0.00000000000E+00  0.00000000000E+00  0.52689865987E+03  0.52689865987E+03  0.00000000000E+00 0. -1.
         21   -1    0    0  501  503 -0.00000000000E+00 -0.00000000000E+00 -0.35875692362E+03  0.35875692362E+03  0.00000000000E+00 0. -1.
          6    1    1    2  501    0 -0.55778881383E+02  0.36988005397E+03 -0.56975387032E+02  0.41605015642E+03  0.17300000000E+03 0. -1.
         -6    1    1    2    0  502  0.55778881383E+02 -0.36988005397E+03  0.22511712329E+03  0.46960542706E+03  0.17300000000E+03 0. -1.
</event>
<event>
 4    1  0.5712137E+000  0.1000000E+03  0.7546771E-02  0.1280296E+00
         21   -1    0    0  503  502  0.00000000000E+00  0.00000000000E+00  0.31423883568E+03  0.31423883568E+03  0.00000000000E+00 0.  1.
         21   -1    0    0  501  503 -0.00000000000E+00 -0.00000000000E+00 -0.22543780014E+03  0.22543780014E+03  0.00000000000E+00 0.  1.
          6    1    1    2  501    0  0.28807111221E+02  0.11653838245E+03 -0.12064116657E+03  0.24268155124E+03  0.17300000000E+03 0.  1.
         -6    1    1    2    0  502 -0.28807111221E+02 -0.11653838245E+03  0.20944220211E+03  0.29699508458E+03  0.17300000000E+03 0.  1.
</event>
<event>
 4    1  0.5712137E+000  0.1000000E+03  0.7546771E-02  0.1280296E+00
         21   -1    0    0  501  502  0.00000000000E+00  0.00000000000E+00  0.13000176475E+03  0.13000176475E+03  0.00000000000E+00 0.  1.
         21   -1    0    0  502  503 -0.00000000000E+00 -0.00000000000E+00 -0.50787360599E+03  0.50787360599E+03  0.00000000000E+00 0.  1.
          6    1    1    2  501    0 -0.14343091099E+03 -0.19973443001E+02 -0.36288957553E+02  0.22851094742E+03  0.17300000000E+03 0.  1.
         -6    1    1    2    0  503  0.14343091099E+03  0.19973443001E+02 -0.34158288369E+03  0.40936442332E+03  0.17300000000E+03 0.  1.
</event>
<event>
 4    1  0.5712137E+000  0.1000000E+03  0.7546771E-02  0.1280296E+00
         21   -1    0    0  503  502  0.00000000000E+00  0.00000000000E+00  0.33403911345E+02  0.33403911345E+02  0.00000000000E+00 0.  1.
         21   -1    0    0  501  503 -0.00000000000E+00 -0.00000000000E+00 -0.18111067882E+04  0.18111067882E+04  0.00000000000E+00 0.  1.
          6    1    1    2  501    0 -0.75169679069E+02  0.74682161635E+02 -0.14103121339E+04  0.14248288392E+04  0.17300000000E+03 0.  1.
         -6    1    1    2    0  502  0.75169679069E+02 -0.74682161635E+02 -0.36739074298E+03  0.41968186039E+03  0.17300000000E+03 0.  1.
</event>
<event>
 4    1  0.5712137E+000  0.1000000E+03  0.7546771E-02  0.1280296E+00
         21   -1    0    0  503  502  0.00000000000E+00  0.00000000000E+00  0.64402861211E+03  0.64402861211E+03  0.00000000000E+00 0.  1.
         21   -1    0    0  501  503 -0.00000000000E+00 -0.00000000000E+00 -0.21392978306E+03  0.21392978306E+03  0.00000000000E+00 0.  1.
          6    1    1    2  501    0 -0.24264560220E+03  0.14103694143E+03  0.17969576502E+02  0.33018209036E+03  0.17300000000E+03 0.  1.
         -6    1    1    2    0  502  0.24264560220E+03 -0.14103694143E+03  0.41212925255E+03  0.52777630481E+03  0.17300000000E+03 0.  1.
</event>
<event>
 4    1  0.5712137E+000  0.1000000E+03  0.7546771E-02  0.1280296E+00
         21   -1    0    0  503  502  0.00000000000E+00  0.00000000000E+00  0.10835883142E+03  0.10835883142E+03  0.00000000000E+00 0.  1.
         21   -1    0    0  501  503 -0.00000000000E+00 -0.00000000000E+00 -0.49376722946E+03  0.49376722946E+03  0.00000000000E+00 0.  1.
          6    1    1    2  501    0  0.11723586418E+03 -0.98413085594E+02 -0.20841250633E+03  0.31111759202E+03  0.17300000000E+03 0.  1.
         -6    1    1    2    0  502 -0.11723586418E+03  0.98413085594E+02 -0.17699589171E+03  0.29100846886E+03  0.17300000000E+03 0.  1.
</event>
<event>
 4    1  0.5712137E+000  0.1000000E+03  0.7546771E-02  0.1280296E+00
         21   -1    0    0  503  502  0.00000000000E+00  0.00000000000E+00  0.11702665251E+03  0.11702665251E+03  0.00000000000E+00 0.  1.
         21   -1    0    0  501  503 -0.00000000000E+00 -0.00000000000E+00 -0.31216152132E+03  0.31216152132E+03  0.00000000000E+00 0.  1.
          6    1    1    2  501    0  0.27780190799E+02 -0.11788809422E+02 -0.18227050501E+03  0.25310521927E+03  0.17300000000E+03 0.  1.
         -6    1    1    2    0  502 -0.27780190799E+02  0.11788809422E+02 -0.12864363807E+02  0.17608295455E+03  0.17300000000E+03 0.  1.
</event>
<event>
 4    1  0.5712137E+000  0.1000000E+03  0.7546771E-02  0.1280296E+00
         21   -1    0    0  503  502  0.00000000000E+00  0.00000000000E+00  0.19617279069E+03  0.19617279069E+03  0.00000000000E+00 0.  1.
         21   -1    0    0  501  503 -0.00000000000E+00 -0.00000000000E+00 -0.23121415968E+03  0.23121415968E+03  0.00000000000E+00 0.  1.
          6    1    1    2  501    0 -0.66531698233E+02 -0.41518595129E+02 -0.11417192714E+03  0.22161789088E+03  0.17300000000E+03 0.  1.
         -6    1    1    2    0  502  0.66531698233E+02  0.41518595129E+02  0.79130558153E+02  0.20576905949E+03  0.17300000000E+03 0.  1.
</event>
<event>
 4    1  0.5712137E+000  0.1000000E+03  0.7546771E-02  0.1280296E+00
         21   -1    0    0  503  502  0.00000000000E+00  0.00000000000E+00  0.24081293099E+03  0.24081293099E+03  0.00000000000E+00 0.  1.
         21   -1    0    0  501  503 -0.00000000000E+00 -0.00000000000E+00 -0.27741370115E+03  0.27741370115E+03  0.00000000000E+00 0.  1.
          6    1    1    2  501    0  0.13216763062E+02 -0.89080411391E+02 -0.18832982935E+03  0.27112197835E+03  0.17300000000E+03 0.  1.
         -6    1    1    2    0  502 -0.13216763062E+02  0.89080411391E+02  0.15172905919E+03  0.24710465379E+03  0.17300000000E+03 0.  1.
</event>
<event>
 4    1  0.5712137E+000  0.1000000E+03  0.7546771E-02  0.1280296E+00
         21   -1    0    0  501  502  0.00000000000E+00  0.00000000000E+00  0.28797430052E+03  0.28797430052E+03  0.00000000000E+00 0. -1.
         21   -1    0    0  502  503 -0.00000000000E+00 -0.00000000000E+00 -0.18330458264E+03  0.18330458264E+03  0.00000000000E+00 0.  1.
          6    1    1    2  501    0  0.14922148348E+03  0.20512938648E+02  0.65714212241E+02  0.23861095841E+03  0.17300000000E+03 0. -1.
         -6    1    1    2    0  503 -0.14922148348E+03 -0.20512938648E+02  0.38955505643E+02  0.23266792474E+03  0.17300000000E+03 0.  1.
</event>
<event>
 4    1  0.5712137E+000  0.1000000E+03  0.7546771E-02  0.1280296E+00
         21   -1    0    0  501  502  0.00000000000E+00  0.00000000000E+00  0.59863329532E+02  0.59863329532E+02  0.00000000000E+00 0. -1.
         21   -1    0    0  502  503 -0.00000000000E+00 -0.00000000000E+00 -0.11789390597E+04  0.11789390597E+04  0.00000000000E+00 0.  1.
          6    1    1    2  501    0  0.28176721888E+02  0.60371802049E+02 -0.11588283734E+03  0.21862413894E+03  0.17300000000E+03 0. -1.
         -6    1    1    2    0  503 -0.28176721888E+02 -0.60371802049E+02 -0.10031928928E+04  0.10201782503E+04  0.17300000000E+03 0.  1.
</event>
<event>
 4    1  0.5712137E+000  0.1000000E+03  0.7546771E-02  0.1280296E+00
         21   -1    0    0  501  502  0.00000000000E+00  0.00000000000E+00  0.16628607696E+04  0.16628607696E+04  0.00000000000E+00 0. -1.
         21   -1    0    0  502  503 -0.00000000000E+00 -0.00000000000E+00 -0.57864137067E+02  0.57864137067E+02  0.00000000000E+00 0.  1.
          6    1    1    2  501    0 -0.19826849746E+03  0.96162114206E+02  0.11718545507E+04  0.12048774366E+04  0.17300000000E+03 0. -1.
         -6    1    1    2    0  503  0.19826849746E+03 -0.96162114206E+02  0.43314208183E+03  0.51584747004E+03  0.17300000000E+03 0.  1.
</event>
<event>
 4    1  0.5712137E+000  0.1000000E+03  0.7546771E-02  0.1280296E+00
         21   -1    0    0  503  502  0.00000000000E+00  0.00000000000E+00  0.26374336782E+03  0.26374336782E+03  0.00000000000E+00 0. -1.
         21   -1    0    0  501  503 -0.00000000000E+00 -0.00000000000E+00 -0.44099591356E+03  0.44099591356E+03  0.00000000000E+00 0. -1.
          6    1    1    2  501    0  0.11993092128E+03  0.14229437478E+03 -0.32366750879E+03  0.41148605228E+03  0.17300000000E+03 0. -1.
         -6    1    1    2    0  502 -0.11993092128E+03 -0.14229437478E+03  0.14641496305E+03  0.29325322910E+03  0.17300000000E+03 0. -1.
</event>
<event>
 4    1  0.5712137E+000  0.1000000E+03  0.7546771E-02  0.1280296E+00
         21   -1    0    0  503  502  0.00000000000E+00  0.00000000000E+00  0.46469578076E+02  0.46469578076E+02  0.00000000000E+00 0. -1.
         21   -1    0    0  501  503 -0.00000000000E+00 -0.00000000000E+00 -0.81256554399E+03  0.81256554399E+03  0.00000000000E+00 0. -1.
          6    1    1    2  501    0  0.86686474756E+02  0.80076171013E+00 -0.42230276779E+03  0.46452536401E+03  0.17300000000E+03 0. -1.
         -6    1    1    2    0  502 -0.86686474756E+02 -0.80076171013E+00 -0.34379319812E+03  0.39450975806E+03  0.17300000000E+03 0. -1.
</event>
<event>
 4    1  0.5712137E+000  0.1000000E+03  0.7546771E-02  0.1280296E+00
         21   -1    0    0  503  502  0.00000000000E+00  0.00000000000E+00  0.19006015001E+03  0.19006015001E+03  0.00000000000E+00 0. -1.
         21   -1    0    0  501  503 -0.00000000000E+00 -0.00000000000E+00 -0.19830435965E+03  0.19830435965E+03  0.00000000000E+00 0. -1.
          6    1    1    2  501    0  0.71063730102E+02 -0.50989288799E+02 -0.14650399247E+02  0.19440574967E+03  0.17300000000E+03 0. -1.
         -6    1    1    2    0  502 -0.71063730102E+02  0.50989288799E+02  0.64061896099E+01  0.19395875998E+03  0.17300000000E+03 0. -1.
</event>
<event>
 4    1  0.5712137E+000  0.1000000E+03  0.7546771E-02  0.1280296E+00
         21   -1    0    0  503  502  0.00000000000E+00  0.00000000000E+00  0.42642926089E+03  0.42642926089E+03  0.00000000000E+00 0. -1.
         21   -1    0    0  501  503 -0.00000000000E+00 -0.00000000000E+00 -0.71602582187E+02  0.71602582187E+02  0.00000000000E+00 0. -1.
          6    1    1    2  501    0 -0.80812754416E+01 -0.23150268782E+02  0.17486637308E+03  0.24720131551E+03  0.17300000000E+03 0. -1.
         -6    1    1    2    0  502  0.80812754416E+01  0.23150268782E+02  0.17996030563E+03  0.25083052756E+03  0.17300000000E+03 0. -1.
</event>
<event>
 4    1  0.5712137E+000  0.1000000E+03  0.7546771E-02  0.1280296E+00
         21   -1    0    0  503  502  0.00000000000E+00  0.00000000000E+00  0.24425369436E+02  0.24425369436E+02  0.00000000000E+00 0. -1.
         21   -1    0    0  501  503 -0.00000000000E+00 -0.00000000000E+00 -0.25673132000E+04  0.25673132000E+04  0.00000000000E+00 0. -1.
          6    1    1    2  501    0  0.36175847083E+02  0.20454344793E+02 -0.21833340126E+04  0.21905714969E+04  0.17300000000E+03 0. -1.
         -6    1    1    2    0  502 -0.36175847083E+02 -0.20454344793E+02 -0.35955381796E+03  0.40116707260E+03  0.17300000000E+03 0. -1.
</event>
<event>
 4    1  0.5712137E+000  0.1000000E+03  0.7546771E-02  0.1280296E+00
         21   -1    0    0  503  502  0.00000000000E+00  0.00000000000E+00  0.23545567667E+03  0.23545567667E+03  0.00000000000E+00 0. -1.
         21   -1    0    0  501  503 -0.00000000000E+00 -0.00000000000E+00 -0.25195415307E+03  0.25195415307E+03  0.00000000000E+00 0. -1.
          6    1    1    2  501    0  0.82116378027E+02  0.29878466258E+02 -0.15584386230E+03  0.24870088802E+03  0.17300000000E+03 0. -1.
         -6    1    1    2    0  502 -0.82116378027E+02 -0.29878466258E+02  0.13934538590E+03  0.23870894172E+03  0.17300000000E+03 0. -1.
</event>
<event>
 4    1  0.5712137E+000  0.1000000E+03  0.7546771E-02  0.1280296E+00
         21   -1    0    0  501  502  0.00000000000E+00  0.00000000000E+00  0.51080893385E+02  0.51080893385E+02  0.00000000000E+00 0.  1.
         21   -1    0    0  502  503 -0.00000000000E+00 -0.00000000000E+00 -0.12532519247E+04  0.12532519247E+04  0.00000000000E+00 0. -1.
          6    1    1    2  501    0 -0.14194587403E+02  0.60153183075E+02 -0.15264559372E+03  0.23885051607E+03  0.17300000000E+03 0.  1.
         -6    1    1    2    0  503  0.14194587403E+02 -0.60153183075E+02 -0.10495254376E+04  0.10654823020E+04  0.17300000000E+03 0. -1.
</event>
<event>
 4    1  0.5712137E+000  0.1000000E+03  0.7546771E-02  0.1280296E+00
         21   -1    0    0  501  502  0.00000000000E+00  0.00000000000E+00  0.34551879927E+03  0.34551879927E+03  0.00000000000E+00 0.  1.
         21   -1    0    0  502  503 -0.00000000000E+00 -0.00000000000E+00 -0.19274949124E+03  0.19274949124E+03  0.00000000000E+00 0. -1.
          6    1    1    2  501    0 -0.12321213421E+03  0.10253636139E+03  0.18563716531E+03  0.30014178744E+03  0.17300000000E+03 0.  1.
         -6    1    1    2    0  503  0.12321213421E+03 -0.10253636139E+03 -0.32867857277E+02  0.23812650307E+03  0.17300000000E+03 0. -1.
</event>
<event>
 4    1  0.5712137E+000  0.1000000E+03  0.7546771E-02  0.1280296E+00
         21   -1    0    0  501  502  0.00000000000E+00  0.00000000000E+00  0.33353437258E+03  0.33353437258E+03  0.00000000000E+00 0.  1.
         21   -1    0    0  502  503 -0.00000000000E+00 -0.00000000000E+00 -0.97991525973E+02  0.97991525973E+02  0.00000000000E+00 0. -1.
          6    1    1    2  501    0 -0.12978844949E+02 -0.14613275158E+02  0.17590398217E+03  0.24749385683E+03  0.17300000000E+03 0.  1.
         -6    1    1    2    0  503  0.12978844949E+02  0.14613275158E+02  0.59638864434E+02  0.18403204172E+03  0.17300000000E+03 0. -1.
</event>
<event>
 4    1  0.5712137E+000  0.1000000E+03  0.7546771E-02  0.1280296E+00
         21   -1    0    0  503  502  0.00000000000E+00  0.00000000000E+00  0.33746084604E+03  0.33746084604E+03  0.00000000000E+00 0. -1.
         21   -1    0    0  501  503 -0.00000000000E+00 -0.00000000000E+00 -0.15051952137E+03  0.15051952137E+03  0.00000000000E+00 0. -1.
          6    1    1    2  501    0  0.93086571163E+02 -0.22406438925E+02 -0.23620839472E+02  0.19913337815E+03  0.17300000000E+03 0. -1.
         -6    1    1    2    0  502 -0.93086571163E+02  0.22406438925E+02  0.21056216415E+03  0.28884698926E+03  0.17300000000E+03 0. -1.
</event>
<event>
 4    1  0.5712137E+000  0.1000000E+03  0.7546771E-02  0.1280296E+00
         21   -1    0    0  503  502  0.00000000000E+00  0.00000000000E+00  0.89360957624E+02  0.89360957624E+02  0.00000000000E+00 0. -1.
         21   -1    0    0  501  503 -0.00000000000E+00 -0.00000000000E+00 -0.81277632255E+03  0.81277632255E+03  0.00000000000E+00 0. -1.
          6    1    1    2  501    0 -0.38683405742E+02 -0.18415990249E+03 -0.50461444371E+03  0.56566422228E+03  0.17300000000E+03 0. -1.
         -6    1    1    2    0  502  0.38683405742E+02  0.18415990249E+03 -0.21880092122E+03  0.33647305790E+03  0.17300000000E+03 0. -1.
</event>
<event>
 4    1  0.5712137E+000  0.1000000E+03  0.7546771E-02  0.1280296E+00
         21   -1    0    0  503  502  0.00000000000E+00  0.00000000000E+00  0.32096129928E+03  0.32096129928E+03  0.00000000000E+00 0. -1.
         21   -1    0    0  501  503 -0.00000000000E+00 -0.00000000000E+00 -0.20932278216E+04  0.20932278216E+04  0.00000000000E+00 0. -1.
          6    1    1    2  501    0  0.92144918490E+02 -0.11608295837E+03 -0.20456715793E+04  0.20583165814E+04  0.17300000000E+03 0. -1.
         -6    1    1    2    0  502 -0.92144918490E+02  0.11608295837E+03  0.27340505690E+03  0.35587253949E+03  0.17300000000E+03 0. -1.
</event>
<event>
 4    1  0.5712137E+000  0.1000000E+03  0.7546771E-02  0.1280296E+00
         21   -1    0    0  501  502  0.00000000000E+00  0.00000000000E+00  0.64467954410E+03  0.64467954410E+03  0.00000000000E+00 0. -1.
         21   -1    0    0  502  503 -0.00000000000E+00 -0.00000000000E+00 -0.14472811609E+03  0.14472811609E+03  0.00000000000E+00 0.  1.
          6    1    1    2  501    0  0.14020825318E+03  0.38677108082E+02  0.51548637745E+03  0.56285831102E+03  0.17300000000E+03 0. -1.
         -6    1    1    2    0  503 -0.14020825318E+03 -0.38677108082E+02 -0.15534949441E+02  0.22654934916E+03  0.17300000000E+03 0.  1.
</event>
<event>
 4    1  0.5712137E+000  0.1000000E+03  0.7546771E-02  0.1280296E+00
         21   -1    0    0  501  502  0.00000000000E+00  0.00000000000E+00  0.28148605091E+03  0.28148605091E+03  0.00000000000E+00 0. -1.
         21   -1    0    0  502  503 -0.00000000000E+00 -0.00000000000E+00 -0.29192988373E+03  0.29192988373E+03  0.00000000000E+00 0.  1.
          6    1    1    2  501    0 -0.34082332321E+02  0.80200889281E+02  0.20612192445E+03  0.28285868514E+03  0.17300000000E+03 0. -1.
         -6    1    1    2    0  503  0.34082332321E+02 -0.80200889281E+02 -0.21656575727E+03  0.29055724950E+03  0.17300000000E+03 0.  1.
</event>
<event>
 4    1  0.5712137E+000  0.1000000E+03  0.7546771E-02  0.1280296E+00
         21   -1    0    0  501  502  0.00000000000E+00  0.00000000000E+00  0.81284999886E+02  0.81284999886E+02  0.00000000000E+00 0. -1.
         21   -1    0    0  502  503 -0.00000000000E+00 -0.00000000000E+00 -0.87712855548E+03  0.87712855548E+03  0.00000000000E+00 0. -1.
          6    1    1    2  501    0  0.40114127773E+02  0.75008785604E+02 -0.66353534262E+02  0.20388048625E+03  0.17300000000E+03 0. -1.
         -6    1    1    2    0  503 -0.40114127773E+02 -0.75008785604E+02 -0.72949002133E+03  0.75453306911E+03  0.17300000000E+03 0. -1.
</event>
<event>
 4    1  0.5712137E+000  0.1000000E+03  0.7546771E-02  0.1280296E+00
         21   -1    0    0  501  502  0.00000000000E+00  0.00000000000E+00  0.76385367854E+03  0.76385367854E+03  0.00000000000E+00 0. -1.
         21   -1    0    0  502  503 -0.00000000000E+00 -0.00000000000E+00 -0.70795000082E+02  0.70795000082E+02  0.00000000000E+00 0. -1.
          6    1    1    2  501    0 -0.11431601151E+03  0.88822032970E+02  0.44789663940E+03  0.50149566660E+03  0.17300000000E+03 0. -1.
         -6    1    1    2    0  503  0.11431601151E+03 -0.88822032970E+02  0.24516203906E+03  0.33315301203E+03  0.17300000000E+03 0. -1.
</event>
<event>
 4    1  0.5712137E+000  0.1000000E+03  0.7546771E-02  0.1280296E+00
         21   -1    0    0  503  502  0.00000000000E+00  0.00000000000E+00  0.31054012154E+03  0.31054012154E+03  0.00000000000E+00 0.  1.
         21   -1    0    0  501  503 -0.00000000000E+00 -0.00000000000E+00 -0.67502633994E+03  0.67502633994E+03  0.00000000000E+00 0.  1.
          6    1    1    2  501    0  0.11309707880E+03 -0.14351680184E+03 -0.59393032781E+03  0.64503508116E+03  0.17300000000E+03 0.  1.
         -6    1    1    2    0  502 -0.11309707880E+03  0.14351680184E+03  0.22944410940E+03  0.34053138032E+03  0.17300000000E+03 0.  1.
</event>
<event>
 4    1  0.5712137E+000  0.1000000E+03  0.7546771E-02  0.1280296E+00
         21   -1    0    0  503  502  0.00000000000E+00  0.00000000000E+00  0.11528540168E+04  0.11528540168E+04  0.00000000000E+00 0.  1.
         21   -1    0    0  501  503 -0.00000000000E+00 -0.00000000000E+00 -0.31442369070E+02  0.31442369070E+02  0.00000000000E+00 0.  1.
          6    1    1    2  501    0 -0.16921989559E+02  0.76504283296E+02  0.60245672856E+03  0.63168217394E+03  0.17300000000E+03 0.  1.
         -6    1    1    2    0  502  0.16921989559E+02 -0.76504283296E+02  0.51895491920E+03  0.55261421196E+03  0.17300000000E+03 0.  1.
</event>
<event>
 4    1  0.5712137E+000  0.1000000E+03  0.7546771E-02  0.1280296E+00
         21   -1    0    0  503  502  0.00000000000E+00  0.00000000000E+00  0.74128485434E+02  0.74128485434E+02  0.00000000000E+00 0. -1.
         21   -1    0    0  501  503 -0.00000000000E+00 -0.00000000000E+00 -0.70569430519E+03  0.70569430519E+03  0.00000000000E+00 0. -1.
          6    1    1    2  501    0  0.47329728119E+02  0.62360217882E+02 -0.53312667727E+03  0.56593458452E+03  0.17300000000E+03 0. -1.
         -6    1    1    2    0  502 -0.47329728119E+02 -0.62360217882E+02 -0.98439142492E+02  0.21388820611E+03  0.17300000000E+03 0. -1.
</event>
<event>
 4    1  0.5712137E+000  0.1000000E+03  0.7546771E-02  0.1280296E+00
         21   -1    0    0  503  502  0.00000000000E+00  0.00000000000E+00  0.26744001497E+03  0.26744001497E+03  0.00000000000E+00 0. -1.
         21   -1    0    0  501  503 -0.00000000000E+00 -0.00000000000E+00 -0.51312701464E+03  0.51312701464E+03  0.00000000000E+00 0. -1.
          6    1    1    2  501    0 -0.17630575379E+03  0.27606709102E+03 -0.12050212923E+03  0.38954655783E+03  0.17300000000E+03 0. -1.
         -6    1    1    2    0  502  0.17630575379E+03 -0.27606709102E+03 -0.12518487043E+03  0.39102047178E+03  0.17300000000E+03 0. -1.
</event>
<event>
 4    1  0.5712137E+000  0.1000000E+03  0.7546771E-02  0.1280296E+00
         21   -1    0    0  503  502  0.00000000000E+00  0.00000000000E+00  0.47185575049E+03  0.47185575049E+03  0.00000000000E+00 0. -1.
         21   -1    0    0  501  503 -0.00000000000E+00 -0.00000000000E+00 -0.12478079985E+03  0.12478079985E+03  0.00000000000E+00 0. -1.
          6    1    1    2  501    0 -0.13054725007E+03 -0.10723560378E+03  0.19835473523E+03  0.31275495233E+03  0.17300000000E+03 0. -1.
         -6    1    1    2    0  502  0.13054725007E+03  0.10723560378E+03  0.14872021541E+03  0.28388159801E+03  0.17300000000E+03 0. -1.
</event>
<event>
 4    1  0.5712137E+000  0.1000000E+03  0.7546771E-02  0.1280296E+00
         21   -1    0    0  503  502  0.00000000000E+00  0.00000000000E+00  0.35827208842E+02  0.35827208842E+02  0.00000000000E+00 0. -1.
         21   -1    0    0  501  503 -0.00000000000E+00 -0.00000000000E+00 -0.10546631920E+04  0.10546631920E+04  0.00000000000E+00 0. -1.
          6    1    1    2  501    0 -0.54759765393E+02 -0.61850373128E+02 -0.59955050139E+03  0.62945524406E+03  0.17300000000E+03 0. -1.
         -6    1    1    2    0  502  0.54759765393E+02  0.61850373128E+02 -0.41928548174E+03  0.46103515675E+03  0.17300000000E+03 0. -1.
</event>
<event>
 4    1  0.5712137E+000  0.1000000E+03  0.7546771E-02  0.1280296E+00
         21   -1    0    0  503  502  0.00000000000E+00  0.00000000000E+00  0.91827857558E+03  0.91827857558E+03  0.00000000000E+00 0. -1.
         21   -1    0    0  501  503 -0.00000000000E+00 -0.00000000000E+00 -0.43941310251E+02  0.43941310251E+02  0.00000000000E+00 0. -1.
          6    1    1    2  501    0  0.92755034275E+02 -0.42418932468E+02  0.44747071260E+03  0.49047110093E+03  0.17300000000E+03 0. -1.
         -6    1    1    2    0  502 -0.92755034275E+02  0.42418932468E+02  0.42686655273E+03  0.47174878490E+03  0.17300000000E+03 0. -1.
</event>
<event>
 4    1  0.5712137E+000  0.1000000E+03  0.7546771E-02  0.1280296E+00
         21   -1    0    0  503  502  0.00000000000E+00  0.00000000000E+00  0.15077669262E+03  0.15077669262E+03  0.00000000000E+00 0. -1.
         21   -1    0    0  501  503 -0.00000000000E+00 -0.00000000000E+00 -0.95723821454E+03  0.95723821454E+03  0.00000000000E+00 0. -1.
          6    1    1    2  501    0 -0.38838445242E+02  0.27060664733E+03 -0.69365697229E+03  0.76539230308E+03  0.17300000000E+03 0. -1.
         -6    1    1    2    0  502  0.38838445242E+02 -0.27060664733E+03 -0.11280454963E+03  0.34262260408E+03  0.17300000000E+03 0. -1.
</event>
<event>
 4    1  0.5712137E+000  0.1000000E+03  0.7546771E-02  0.1280296E+00
         21   -1    0    0  503  502  0.00000000000E+00  0.00000000000E+00  0.20030706537E+04  0.20030706537E+04  0.00000000000E+00 0. -1.
         21   -1    0    0  501  503 -0.00000000000E+00 -0.00000000000E+00 -0.19324269239E+03  0.19324269239E+03  0.00000000000E+00 0. -1.
          6    1    1    2  501    0  0.13473319802E+03 -0.40578865499E+03  0.16793761655E+03  0.49086608176E+03  0.17300000000E+03 0. -1.
         -6    1    1    2    0  502 -0.13473319802E+03  0.40578865499E+03  0.16418903448E+04  0.17054472643E+04  0.17300000000E+03 0. -1.
</event>
<event>
 4    1  0.5712137E+000  0.1000000E+03  0.7546771E-02  0.1280296E+00
         21   -1    0    0  503  502  0.00000000000E+00  0.00000000000E+00  0.21563562983E+03  0.21563562983E+03  0.00000000000E+00 0.  1.
         21   -1    0    0  501  503 -0.00000000000E+00 -0.00000000000E+00 -0.28677771050E+03  0.28677771050E+03  0.00000000000E+00 0. -1.
          6    1    1    2  501    0  0.96138264045E+02 -0.85181715021E+01 -0.18741863287E+03  0.27270839556E+03  0.17300000000E+03 0.  1.
         -6    1    1    2    0  502 -0.96138264045E+02  0.85181715021E+01  0.11627655220E+03  0.22970494477E+03  0.17300000000E+03 0. -1.
</event>
<event>
 4    1  0.5712137E+000  0.1000000E+03  0.7546771E-02  0.1280296E+00
         21   -1    0    0  503  502  0.00000000000E+00  0.00000000000E+00  0.36605340777E+03  0.36605340777E+03  0.00000000000E+00 0.  1.
         21   -1    0    0  501  503 -0.00000000000E+00 -0.00000000000E+00 -0.10543048899E+03  0.10543048899E+03  0.00000000000E+00 0. -1.
          6    1    1    2  501    0  0.41561678988E+02  0.11312966276E+02  0.31292607748E+02  0.18100713706E+03  0.17300000000E+03 0. -1.
         -6    1    1    2    0  502 -0.41561678988E+02 -0.11312966276E+02  0.22933031104E+03  0.29047675970E+03  0.17300000000E+03 0.  1.
</event>
<event>
 4    1  0.5712137E+000  0.1000000E+03  0.7546771E-02  0.1280296E+00
         21   -1    0    0  503  502  0.00000000000E+00  0.00000000000E+00  0.15915487080E+04  0.15915487080E+04  0.00000000000E+00 0.  1.
         21   -1    0    0  501  503 -0.00000000000E+00 -0.00000000000E+00 -0.36691754248E+02  0.36691754248E+02  0.00000000000E+00 0. -1.
          6    1    1    2  501    0 -0.72479589375E+02  0.52787434721E+02  0.29591737021E+03  0.35431044880E+03  0.17300000000E+03 0. -1.
         -6    1    1    2    0  502  0.72479589375E+02 -0.52787434721E+02  0.12589395835E+04  0.12739300134E+04  0.17300000000E+03 0.  1.
</event>
<event>
 4    1  0.5712137E+000  0.1000000E+03  0.7546771E-02  0.1280296E+00
         21   -1    0    0  503  502  0.00000000000E+00  0.00000000000E+00  0.14659732813E+03  0.14659732813E+03  0.00000000000E+00 0.  1.
         21   -1    0    0  501  503 -0.00000000000E+00 -0.00000000000E+00 -0.35570834471E+03  0.35570834471E+03  0.00000000000E+00 0. -1.
          6    1    1    2  501    0  0.86028647000E+02 -0.83895622058E+02 -0.20155015099E+03  0.29153193113E+03  0.17300000000E+03 0. -1.
         -6    1    1    2    0  502 -0.86028647000E+02  0.83895622058E+02 -0.75608655953E+01  0.21077374171E+03  0.17300000000E+03 0.  1.
</event>
<event>
 4    1  0.5712137E+000  0.1000000E+03  0.7546771E-02  0.1280296E+00
         21   -1    0    0  503  502  0.00000000000E+00  0.00000000000E+00  0.73626345840E+02  0.73626345840E+02  0.00000000000E+00 0. -1.
         21   -1    0    0  501  503 -0.00000000000E+00 -0.00000000000E+00 -0.55148170736E+03  0.55148170736E+03  0.00000000000E+00 0. -1.
          6    1    1    2  501    0 -0.65507934816E+02 -0.67252745192E+02 -0.17202529448E+03  0.26141140603E+03  0.17300000000E+03 0. -1.
         -6    1    1    2    0  502  0.65507934816E+02  0.67252745192E+02 -0.30583006704E+03  0.36369664717E+03  0.17300000000E+03 0. -1.
</event>
<event>
 4    1  0.5712137E+000  0.1000000E+03  0.7546771E-02  0.1280296E+00
         21   -1    0    0  503  502  0.00000000000E+00  0.00000000000E+00  0.28644819329E+03  0.28644819329E+03  0.00000000000E+00 0. -1.
         21   -1    0    0  501  503 -0.00000000000E+00 -0.00000000000E+00 -0.33635726832E+03  0.33635726832E+03  0.00000000000E+00 0. -1.
          6    1    1    2  501    0  0.32715394884E+01  0.14893667999E+03 -0.23593545073E+03  0.32830987577E+03  0.17300000000E+03 0. -1.
         -6    1    1    2    0  502 -0.32715394884E+01 -0.14893667999E+03  0.18602637570E+03  0.29449558583E+03  0.17300000000E+03 0. -1.
</event>
<event>
 4    1  0.5712137E+000  0.1000000E+03  0.7546771E-02  0.1280296E+00
         21   -1    0    0  503  502  0.00000000000E+00  0.00000000000E+00  0.19529949504E+03  0.19529949504E+03  0.00000000000E+00 0. -1.
         21   -1    0    0  501  503 -0.00000000000E+00 -0.00000000000E+00 -0.27794320960E+03  0.27794320960E+03  0.00000000000E+00 0. -1.
          6    1    1    2  501    0 -0.81813890401E+02  0.23967249116E+02 -0.17407221859E+03  0.25980392410E+03  0.17300000000E+03 0. -1.
         -6    1    1    2    0  502  0.81813890401E+02 -0.23967249116E+02  0.91428504028E+02  0.21343878055E+03  0.17300000000E+03 0. -1.
</event>
<event>
 4    1  0.5712137E+000  0.1000000E+03  0.7546771E-02  0.1280296E+00
         21   -1    0    0  501  502  0.00000000000E+00  0.00000000000E+00  0.14432613823E+04  0.14432613823E+04  0.00000000000E+00 0.  1.
         21   -1    0    0  502  503 -0.00000000000E+00 -0.00000000000E+00 -0.24635166075E+02  0.24635166075E+02  0.00000000000E+00 0. -1.
          6    1    1    2  501    0 -0.10494984273E+02 -0.73934855588E+02  0.68193435188E+03  0.70748849308E+03  0.17300000000E+03 0. -1.
         -6    1    1    2    0  503  0.10494984273E+02  0.73934855588E+02  0.73669186434E+03  0.76040805529E+03  0.17300000000E+03 0.  1.
</event>
<event>
 4    1  0.5712137E+000  0.1000000E+03  0.7546771E-02  0.1280296E+00
         21   -1    0    0  501  502  0.00000000000E+00  0.00000000000E+00  0.74044158383E+02  0.74044158383E+02  0.00000000000E+00 0.  1.
         21   -1    0    0  502  503 -0.00000000000E+00 -0.00000000000E+00 -0.50575645142E+03  0.50575645142E+03  0.00000000000E+00 0.  1.
          6    1    1    2  501    0 -0.42060867413E+02  0.31879921826E+02 -0.31892809391E+03  0.36664638968E+03  0.17300000000E+03 0.  1.
         -6    1    1    2    0  503  0.42060867413E+02 -0.31879921826E+02 -0.11278419913E+03  0.21315422012E+03  0.17300000000E+03 0.  1.
</event>
<event>
 4    1  0.5712137E+000  0.1000000E+03  0.7546771E-02  0.1280296E+00
         21   -1    0    0  503  502  0.00000000000E+00  0.00000000000E+00  0.30832909567E+03  0.30832909567E+03  0.00000000000E+00 0.  1.
         21   -1    0    0  501  503 -0.00000000000E+00 -0.00000000000E+00 -0.18758380235E+03  0.18758380235E+03  0.00000000000E+00 0.  1.
          6    1    1    2  501    0  0.40722267442E+02  0.10627564169E+03 -0.65715505646E+02  0.21725639867E+03  0.17300000000E+03 0.  1.
         -6    1    1    2    0  502 -0.40722267442E+02 -0.10627564169E+03  0.18646079896E+03  0.27865649935E+03  0.17300000000E+03 0.  1.
</event>
<event>
 4    1  0.5712137E+000  0.1000000E+03  0.7546771E-02  0.1280296E+00
         21   -1    0    0  503  502  0.00000000000E+00  0.00000000000E+00  0.19485573493E+03  0.19485573493E+03  0.00000000000E+00 0.  1.
         21   -1    0    0  501  503 -0.00000000000E+00 -0.00000000000E+00 -0.29376760583E+03  0.29376760583E+03  0.00000000000E+00 0.  1.
          6    1    1    2  501    0 -0.35920952048E+02 -0.52500227516E+02 -0.20521495010E+03  0.27584191927E+03  0.17300000000E+03 0.  1.
         -6    1    1    2    0  502  0.35920952048E+02  0.52500227516E+02  0.10630307919E+03  0.21278142149E+03  0.17300000000E+03 0.  1.
</event>
<event>
 4    1  0.5712137E+000  0.1000000E+03  0.7546771E-02  0.1280296E+00
         21   -1    0    0  503  502  0.00000000000E+00  0.00000000000E+00  0.85221275388E+02  0.85221275388E+02  0.00000000000E+00 0.  1.
         21   -1    0    0  501  503 -0.00000000000E+00 -0.00000000000E+00 -0.86811392957E+03  0.86811392957E+03  0.00000000000E+00 0.  1.
          6    1    1    2  501    0 -0.20689070442E+03 -0.35259634473E+02 -0.38723640984E+03  0.47321035756E+03  0.17300000000E+03 0.  1.
         -6    1    1    2    0  502  0.20689070442E+03  0.35259634473E+02 -0.39565624434E+03  0.48012484739E+03  0.17300000000E+03 0.  1.
</event>
<event>
 4    1  0.5712137E+000  0.1000000E+03  0.7546771E-02  0.1280296E+00
         21   -1    0    0  503  502  0.00000000000E+00  0.00000000000E+00  0.20614037711E+02  0.20614037711E+02  0.00000000000E+00 0.  1.
         21   -1    0    0  501  503 -0.00000000000E+00 -0.00000000000E+00 -0.25642971623E+04  0.25642971623E+04  0.00000000000E+00 0.  1.
          6    1    1    2  501    0  0.10202335271E+02  0.12427313196E+03 -0.78879991615E+03  0.81711823299E+03  0.17300000000E+03 0.  1.
         -6    1    1    2    0  502 -0.10202335271E+02 -0.12427313196E+03 -0.17548832084E+04  0.17677929670E+04  0.17300000000E+03 0.  1.
</event>
<event>
 4    1  0.5712137E+000  0.1000000E+03  0.7546771E-02  0.1280296E+00
         21   -1    0    0  503  502  0.00000000000E+00  0.00000000000E+00  0.15746036747E+03  0.15746036747E+03  0.00000000000E+00 0. -1.
         21   -1    0    0  501  503 -0.00000000000E+00 -0.00000000000E+00 -0.30127734622E+03  0.30127734622E+03  0.00000000000E+00 0.  1.
          6    1    1    2  501    0  0.19032302446E+02  0.54484594994E+02 -0.19730780078E+03  0.26868228054E+03  0.17300000000E+03 0.  1.
         -6    1    1    2    0  502 -0.19032302446E+02 -0.54484594994E+02  0.53490822035E+02  0.19005543315E+03  0.17300000000E+03 0. -1.
</event>
<event>
 4    1  0.5712137E+000  0.1000000E+03  0.7546771E-02  0.1280296E+00
         21   -1    0    0  503  502  0.00000000000E+00  0.00000000000E+00  0.20789407482E+03  0.20789407482E+03  0.00000000000E+00 0.  1.
         21   -1    0    0  501  503 -0.00000000000E+00 -0.00000000000E+00 -0.16169969568E+03  0.16169969568E+03  0.00000000000E+00 0.  1.
          6    1    1    2  501    0  0.46031856976E+02 -0.16430310130E+02 -0.13222622522E+02  0.18025738458E+03  0.17300000000E+03 0.  1.
         -6    1    1    2    0  502 -0.46031856976E+02  0.16430310130E+02  0.59417001657E+02  0.18933638592E+03  0.17300000000E+03 0.  1.
</event>
<event>
 4    1  0.5712137E+000  0.1000000E+03  0.7546771E-02  0.1280296E+00
         21   -1    0    0  503  502  0.00000000000E+00  0.00000000000E+00  0.26087626099E+03  0.26087626099E+03  0.00000000000E+00 0.  1.
         21   -1    0    0  501  503 -0.00000000000E+00 -0.00000000000E+00 -0.17900555048E+03  0.17900555048E+03  0.00000000000E+00 0.  1.
          6    1    1    2  501    0  0.20009563110E+02  0.10235534432E+02 -0.88863590264E+02  0.19578275321E+03  0.17300000000E+03 0. -1.
         -6    1    1    2    0  502 -0.20009563110E+02 -0.10235534432E+02  0.17073430077E+03  0.24409905825E+03  0.17300000000E+03 0. -1.
</event>
<event>
 4    1  0.5712137E+000  0.1000000E+03  0.7546771E-02  0.1280296E+00
         21   -1    0    0  503  502  0.00000000000E+00  0.00000000000E+00  0.66577293951E+03  0.66577293951E+03  0.00000000000E+00 0. -1.
         21   -1    0    0  501  503 -0.00000000000E+00 -0.00000000000E+00 -0.14847296534E+03  0.14847296534E+03  0.00000000000E+00 0. -1.
          6    1    1    2  501    0 -0.12627058593E+03 -0.67538975006E+02 -0.26272410640E+02  0.22610841112E+03  0.17300000000E+03 0.  1.
         -6    1    1    2    0  502  0.12627058593E+03  0.67538975006E+02  0.54357238480E+03  0.58813749374E+03  0.17300000000E+03 0.  1.
</event>
<event>
 4    1  0.5712137E+000  0.1000000E+03  0.7546771E-02  0.1280296E+00
         21   -1    0    0  503  502  0.00000000000E+00  0.00000000000E+00  0.10326717795E+03  0.10326717795E+03  0.00000000000E+00 0. -1.
         21   -1    0    0  501  503 -0.00000000000E+00 -0.00000000000E+00 -0.61276496361E+03  0.61276496361E+03  0.00000000000E+00 0. -1.
          6    1    1    2  501    0  0.12396637013E+03  0.41251945572E+02 -0.43634363373E+03  0.48723110598E+03  0.17300000000E+03 0.  1.
         -6    1    1    2    0  502 -0.12396637013E+03 -0.41251945572E+02 -0.73154151935E+02  0.22880103558E+03  0.17300000000E+03 0.  1.
</event>
<event>
 4    1  0.5712137E+000  0.1000000E+03  0.7546771E-02  0.1280296E+00
         21   -1    0    0  503  502  0.00000000000E+00  0.00000000000E+00  0.14820982990E+04  0.14820982990E+04  0.00000000000E+00 0. -1.
         21   -1    0    0  501  503 -0.00000000000E+00 -0.00000000000E+00 -0.13799134696E+03  0.13799134696E+03  0.00000000000E+00 0. -1.
          6    1    1    2  501    0 -0.16202350274E+03  0.37011243725E+02 -0.14625086555E+02  0.24034213272E+03  0.17300000000E+03 0.  1.
         -6    1    1    2    0  502  0.16202350274E+03 -0.37011243725E+02  0.13587320386E+04  0.13797475133E+04  0.17300000000E+03 0.  1.
</event>
<event>
 4    1  0.5712137E+000  0.1000000E+03  0.7546771E-02  0.1280296E+00
         21   -1    0    0  503  502  0.00000000000E+00  0.00000000000E+00  0.24156871072E+03  0.24156871072E+03  0.00000000000E+00 0. -1.
         21   -1    0    0  501  503 -0.00000000000E+00 -0.00000000000E+00 -0.34660643577E+03  0.34660643577E+03  0.00000000000E+00 0. -1.
          6    1    1    2  501    0 -0.20178949306E+03 -0.31212983281E+02 -0.16434843159E+03  0.31405836528E+03  0.17300000000E+03 0. -1.
         -6    1    1    2    0  502  0.20178949306E+03  0.31212983281E+02  0.59310706533E+02  0.27411678121E+03  0.17300000000E+03 0. -1.
</event>
<event>
 4    1  0.5712137E+000  0.1000000E+03  0.7546771E-02  0.1280296E+00
         21   -1    0    0  503  502  0.00000000000E+00  0.00000000000E+00  0.19266339724E+03  0.19266339724E+03  0.00000000000E+00 0. -1.
         21   -1    0    0  501  503 -0.00000000000E+00 -0.00000000000E+00 -0.51050288895E+03  0.51050288895E+03  0.00000000000E+00 0. -1.
          6    1    1    2  501    0  0.27743066706E+02  0.12818040955E+03 -0.41265215248E+03  0.46627319684E+03  0.17300000000E+03 0. -1.
         -6    1    1    2    0  502 -0.27743066706E+02 -0.12818040955E+03  0.94812660771E+02  0.23689308936E+03  0.17300000000E+03 0. -1.
</event>
<event>
 4    1  0.5712137E+000  0.1000000E+03  0.7546771E-02  0.1280296E+00
         21   -1    0    0  503  502  0.00000000000E+00  0.00000000000E+00  0.43793487985E+02  0.43793487985E+02  0.00000000000E+00 0.  1.
         21   -1    0    0  501  503 -0.00000000000E+00 -0.00000000000E+00 -0.12191627092E+04  0.12191627092E+04  0.00000000000E+00 0.  1.
          6    1    1    2  501    0 -0.53579782340E+02  0.80545052838E+02 -0.91224476909E+03  0.93352976243E+03  0.17300000000E+03 0.  1.
         -6    1    1    2    0  502  0.53579782340E+02 -0.80545052838E+02 -0.26312445215E+03  0.32942643478E+03  0.17300000000E+03 0.  1.
</event>
<event>
 4    1  0.5712137E+000  0.1000000E+03  0.7546771E-02  0.1280296E+00
         21   -1    0    0  503  502  0.00000000000E+00  0.00000000000E+00  0.73211832333E+03  0.73211832333E+03  0.00000000000E+00 0.  1.
         21   -1    0    0  501  503 -0.00000000000E+00 -0.00000000000E+00 -0.19578661564E+03  0.19578661564E+03  0.00000000000E+00 0.  1.
          6    1    1    2  501    0  0.11349174029E+03  0.22115366095E+03 -0.10255855383E+02  0.30302392552E+03  0.17300000000E+03 0.  1.
         -6    1    1    2    0  502 -0.11349174029E+03 -0.22115366095E+03  0.54658756307E+03  0.62488101345E+03  0.17300000000E+03 0.  1.
</event>
<event>
 4    1  0.5712137E+000  0.1000000E+03  0.7546771E-02  0.1280296E+00
         21   -1    0    0  503  502  0.00000000000E+00  0.00000000000E+00  0.11147514275E+03  0.11147514275E+03  0.00000000000E+00 0.  1.
         21   -1    0    0  501  503 -0.00000000000E+00 -0.00000000000E+00 -0.29504580373E+03  0.29504580373E+03  0.00000000000E+00 0.  1.
          6    1    1    2  501    0 -0.16227552709E+02  0.49651917968E+02 -0.10887953668E+03  0.21097961971E+03  0.17300000000E+03 0.  1.
         -6    1    1    2    0  502  0.16227552709E+02 -0.49651917968E+02 -0.74691124300E+02  0.19554132677E+03  0.17300000000E+03 0.  1.
</event>
<event>
 4    1  0.5712137E+000  0.1000000E+03  0.7546771E-02  0.1280296E+00
         21   -1    0    0  503  502  0.00000000000E+00  0.00000000000E+00  0.10792033894E+04  0.10792033894E+04  0.00000000000E+00 0.  1.
         21   -1    0    0  501  503 -0.00000000000E+00 -0.00000000000E+00 -0.38763778288E+02  0.38763778288E+02  0.00000000000E+00 0.  1.
          6    1    1    2  501    0  0.50253513269E+02 -0.91550199198E+02  0.43387594485E+03  0.47862740215E+03  0.17300000000E+03 0.  1.
         -6    1    1    2    0  502 -0.50253513269E+02  0.91550199198E+02  0.60656366626E+03  0.63933976553E+03  0.17300000000E+03 0.  1.
</event>
<event>
 4    1  0.5712137E+000  0.1000000E+03  0.7546771E-02  0.1280296E+00
         21   -1    0    0  501  502  0.00000000000E+00  0.00000000000E+00  0.37862268965E+03  0.37862268965E+03  0.00000000000E+00 0. -1.
         21   -1    0    0  502  503 -0.00000000000E+00 -0.00000000000E+00 -0.24841920890E+03  0.24841920890E+03  0.00000000000E+00 0. -1.
          6    1    1    2  501    0 -0.89315945601E+00  0.63457337718E+02  0.31571830133E+03  0.36556077093E+03  0.17300000000E+03 0. -1.
         -6    1    1    2    0  503  0.89315945601E+00 -0.63457337718E+02 -0.18551482058E+03  0.26148112762E+03  0.17300000000E+03 0. -1.
</event>
<event>
 4    1  0.5712137E+000  0.1000000E+03  0.7546771E-02  0.1280296E+00
         21   -1    0    0  501  502  0.00000000000E+00  0.00000000000E+00  0.30379814921E+02  0.30379814921E+02  0.00000000000E+00 0. -1.
         21   -1    0    0  502  503 -0.00000000000E+00 -0.00000000000E+00 -0.13845800015E+04  0.13845800015E+04  0.00000000000E+00 0. -1.
          6    1    1    2  501    0  0.99710589996E+02 -0.25669381760E+02 -0.54203068164E+03  0.57821049693E+03  0.17300000000E+03 0. -1.
         -6    1    1    2    0  503 -0.99710589996E+02  0.25669381760E+02 -0.81216950489E+03  0.83674931945E+03  0.17300000000E+03 0. -1.
</event>
<event>
 4    1  0.5712137E+000  0.1000000E+03  0.7546771E-02  0.1280296E+00
         21   -1    0    0  501  502  0.00000000000E+00  0.00000000000E+00  0.64620828671E+03  0.64620828671E+03  0.00000000000E+00 0.  1.
         21   -1    0    0  502  503 -0.00000000000E+00 -0.00000000000E+00 -0.18797487253E+03  0.18797487253E+03  0.00000000000E+00 0.  1.
          6    1    1    2  501    0 -0.20735949440E+03  0.15485106763E+03  0.41668291304E+03  0.52012543014E+03  0.17300000000E+03 0.  1.
         -6    1    1    2    0  503  0.20735949440E+03 -0.15485106763E+03  0.41550501146E+02  0.31405772910E+03  0.17300000000E+03 0.  1.
</event>
<event>
 4    1  0.5712137E+000  0.1000000E+03  0.7546771E-02  0.1280296E+00
         21   -1    0    0  501  502  0.00000000000E+00  0.00000000000E+00  0.11875016105E+04  0.11875016105E+04  0.00000000000E+00 0.  1.
         21   -1    0    0  502  503 -0.00000000000E+00 -0.00000000000E+00 -0.59847564277E+02  0.59847564277E+02  0.00000000000E+00 0.  1.
          6    1    1    2  501    0  0.17673608175E+03 -0.34392040387E+02  0.78230938550E+03  0.82119146956E+03  0.17300000000E+03 0.  1.
         -6    1    1    2    0  503 -0.17673608175E+03  0.34392040387E+02  0.34534466077E+03  0.42615770527E+03  0.17300000000E+03 0.  1.
</event>
<event>
 4    1  0.5712137E+000  0.1000000E+03  0.7546771E-02  0.1280296E+00
         21   -1    0    0  503  502  0.00000000000E+00  0.00000000000E+00  0.66137279505E+03  0.66137279505E+03  0.00000000000E+00 0. -1.
         21   -1    0    0  501  503 -0.00000000000E+00 -0.00000000000E+00 -0.13199703265E+03  0.13199703265E+03  0.00000000000E+00 0. -1.
          6    1    1    2  501    0  0.54353805695E+01 -0.18652966472E+03  0.63088799876E+02  0.26216799166E+03  0.17300000000E+03 0. -1.
         -6    1    1    2    0  502 -0.54353805695E+01  0.18652966472E+03  0.46628696253E+03  0.53120183603E+03  0.17300000000E+03 0. -1.
</event>
<event>
 4    1  0.5712137E+000  0.1000000E+03  0.7546771E-02  0.1280296E+00
         21   -1    0    0  501  502  0.00000000000E+00  0.00000000000E+00  0.86559895521E+03  0.86559895521E+03  0.00000000000E+00 0. -1.
         21   -1    0    0  502  503 -0.00000000000E+00 -0.00000000000E+00 -0.42544628578E+02  0.42544628578E+02  0.00000000000E+00 0.  1.
          6    1    1    2  501    0 -0.19256347703E+02 -0.77618435256E+02  0.35850422077E+03  0.40601687739E+03  0.17300000000E+03 0.  1.
         -6    1    1    2    0  503  0.19256347703E+02  0.77618435256E+02  0.46455010586E+03  0.50212670640E+03  0.17300000000E+03 0. -1.
</event>
<event>
 4    1  0.5712137E+000  0.1000000E+03  0.7546771E-02  0.1280296E+00
         21   -1    0    0  501  502  0.00000000000E+00  0.00000000000E+00  0.34599970920E+03  0.34599970920E+03  0.00000000000E+00 0. -1.
         21   -1    0    0  502  503 -0.00000000000E+00 -0.00000000000E+00 -0.13891482267E+03  0.13891482267E+03  0.00000000000E+00 0.  1.
          6    1    1    2  501    0 -0.89200552838E+01  0.11680930301E+02  0.25158470246E+03  0.30567936474E+03  0.17300000000E+03 0.  1.
         -6    1    1    2    0  503  0.89200552838E+01 -0.11680930301E+02 -0.44499815919E+02  0.17923516713E+03  0.17300000000E+03 0. -1.
</event>
<event>
 4    1  0.5712137E+000  0.1000000E+03  0.7546771E-02  0.1280296E+00
         21   -1    0    0  501  502  0.00000000000E+00  0.00000000000E+00  0.15706087975E+03  0.15706087975E+03  0.00000000000E+00 0. -1.
         21   -1    0    0  502  503 -0.00000000000E+00 -0.00000000000E+00 -0.90964344088E+03  0.90964344088E+03  0.00000000000E+00 0.  1.
          6    1    1    2  501    0 -0.10877029860E+03  0.29087045292E+02  0.70511212376E+02  0.21812350889E+03  0.17300000000E+03 0.  1.
         -6    1    1    2    0  503  0.10877029860E+03 -0.29087045292E+02 -0.82309377351E+03  0.84858081174E+03  0.17300000000E+03 0.  1.
</event>
<event>
 4    1  0.5712137E+000  0.1000000E+03  0.7546771E-02  0.1280296E+00
         21   -1    0    0  501  502  0.00000000000E+00  0.00000000000E+00  0.62116148053E+03  0.62116148053E+03  0.00000000000E+00 0. -1.
         21   -1    0    0  502  503 -0.00000000000E+00 -0.00000000000E+00 -0.13191058105E+03  0.13191058105E+03  0.00000000000E+00 0.  1.
          6    1    1    2  501    0 -0.36732551918E+02  0.10838612177E+03  0.50410665558E+03  0.54511407243E+03  0.17300000000E+03 0.  1.
         -6    1    1    2    0  503  0.36732551918E+02 -0.10838612177E+03 -0.14855756105E+02  0.20795798915E+03  0.17300000000E+03 0.  1.
</event>
<event>
 4    1  0.5712137E+000  0.1000000E+03  0.7546771E-02  0.1280296E+00
         21   -1    0    0  501  502  0.00000000000E+00  0.00000000000E+00  0.88212784127E+03  0.88212784127E+03  0.00000000000E+00 0. -1.
         21   -1    0    0  502  503 -0.00000000000E+00 -0.00000000000E+00 -0.29171627707E+03  0.29171627707E+03  0.00000000000E+00 0.  1.
          6    1    1    2  501    0 -0.83451326201E+02 -0.30563665310E+03  0.70756670818E+03  0.79432835408E+03  0.17300000000E+03 0.  1.
         -6    1    1    2    0  503  0.83451326201E+02  0.30563665310E+03 -0.11715514397E+03  0.37951576426E+03  0.17300000000E+03 0.  1.
</event>
<event>
 4    1  0.5712137E+000  0.1000000E+03  0.7546771E-02  0.1280296E+00
         21   -1    0    0  503  502  0.00000000000E+00  0.00000000000E+00  0.33567570902E+03  0.33567570902E+03  0.00000000000E+00 0. -1.
         21   -1    0    0  501  503 -0.00000000000E+00 -0.00000000000E+00 -0.17695700620E+03  0.17695700620E+03  0.00000000000E+00 0.  1.
          6    1    1    2  501    0  0.11196322032E+03 -0.98582498485E+02 -0.99830727368E+01  0.22865461608E+03  0.17300000000E+03 0.  1.
         -6    1    1    2    0  502 -0.11196322032E+03  0.98582498485E+02  0.16870177556E+03  0.28397809913E+03  0.17300000000E+03 0. -1.
</event>
<event>
 4    1  0.5712137E+000  0.1000000E+03  0.7546771E-02  0.1280296E+00
         21   -1    0    0  501  502  0.00000000000E+00  0.00000000000E+00  0.73263132478E+02  0.73263132478E+02  0.00000000000E+00 0. -1.
         21   -1    0    0  502  503 -0.00000000000E+00 -0.00000000000E+00 -0.11647509024E+04  0.11647509024E+04  0.00000000000E+00 0. -1.
          6    1    1    2  501    0  0.20400343190E+02 -0.34165678157E+02 -0.54144300846E+02  0.18559114440E+03  0.17300000000E+03 0. -1.
         -6    1    1    2    0  503 -0.20400343190E+02  0.34165678157E+02 -0.10373434691E+04  0.10524228905E+04  0.17300000000E+03 0. -1.
</event>
<event>
 4    1  0.5712137E+000  0.1000000E+03  0.7546771E-02  0.1280296E+00
         21   -1    0    0  501  502  0.00000000000E+00  0.00000000000E+00  0.99728206878E+03  0.99728206878E+03  0.00000000000E+00 0. -1.
         21   -1    0    0  502  503 -0.00000000000E+00 -0.00000000000E+00 -0.65477351844E+02  0.65477351844E+02  0.00000000000E+00 0. -1.
          6    1    1    2  501    0  0.23591466923E+02  0.18653383047E+03  0.47495736670E+03  0.53931894775E+03  0.17300000000E+03 0. -1.
         -6    1    1    2    0  503 -0.23591466923E+02 -0.18653383047E+03  0.45684735024E+03  0.52344047287E+03  0.17300000000E+03 0. -1.
</event>
<event>
 4    1  0.5712137E+000  0.1000000E+03  0.7546771E-02  0.1280296E+00
         21   -1    0    0  503  502  0.00000000000E+00  0.00000000000E+00  0.14812395350E+03  0.14812395350E+03  0.00000000000E+00 0.  1.
         21   -1    0    0  501  503 -0.00000000000E+00 -0.00000000000E+00 -0.64328930954E+03  0.64328930954E+03  0.00000000000E+00 0.  1.
          6    1    1    2  501    0  0.68965259956E+02  0.16175874145E+03 -0.48546405695E+03  0.54454242085E+03  0.17300000000E+03 0.  1.
         -6    1    1    2    0  502 -0.68965259956E+02 -0.16175874145E+03 -0.97012990862E+01  0.24687084219E+03  0.17300000000E+03 0.  1.
</event>
<event>
 4    1  0.5712137E+000  0.1000000E+03  0.7546771E-02  0.1280296E+00
         21   -1    0    0  503  502  0.00000000000E+00  0.00000000000E+00  0.55284488118E+02  0.55284488118E+02  0.00000000000E+00 0.  1.
         21   -1    0    0  501  503 -0.00000000000E+00 -0.00000000000E+00 -0.11433031107E+04  0.11433031107E+04  0.00000000000E+00 0.  1.
          6    1    1    2  501    0 -0.13362668801E+03 -0.13762106912E+02 -0.83820898177E+03  0.86635372941E+03  0.17300000000E+03 0.  1.
         -6    1    1    2    0  502  0.13362668801E+03  0.13762106912E+02 -0.24980964077E+03  0.33223386937E+03  0.17300000000E+03 0.  1.
</event>
<event>
 4    1  0.5712137E+000  0.1000000E+03  0.7546771E-02  0.1280296E+00
         21   -1    0    0  503  502  0.00000000000E+00  0.00000000000E+00  0.17728172006E+03  0.17728172006E+03  0.00000000000E+00 0.  1.
         21   -1    0    0  501  503 -0.00000000000E+00 -0.00000000000E+00 -0.25316141661E+03  0.25316141661E+03  0.00000000000E+00 0.  1.
          6    1    1    2  501    0 -0.57170024702E+02  0.28998049014E+02 -0.14372424877E+03  0.23386953255E+03  0.17300000000E+03 0.  1.
         -6    1    1    2    0  502  0.57170024702E+02 -0.28998049014E+02  0.67844552211E+02  0.19657360412E+03  0.17300000000E+03 0.  1.
</event>
<event>
 4    1  0.5712137E+000  0.1000000E+03  0.7546771E-02  0.1280296E+00
         21   -1    0    0  503  502  0.00000000000E+00  0.00000000000E+00  0.71741697242E+02  0.71741697242E+02  0.00000000000E+00 0. -1.
         21   -1    0    0  501  503 -0.00000000000E+00 -0.00000000000E+00 -0.44383125548E+03  0.44383125548E+03  0.00000000000E+00 0. -1.
          6    1    1    2  501    0 -0.27889622456E+02 -0.31653576099E+02 -0.16942004612E+03  0.24578838856E+03  0.17300000000E+03 0. -1.
         -6    1    1    2    0  502  0.27889622456E+02  0.31653576099E+02 -0.20266951211E+03  0.26978456416E+03  0.17300000000E+03 0. -1.
</event>
<event>
 4    1  0.5712137E+000  0.1000000E+03  0.7546771E-02  0.1280296E+00
         21   -1    0    0  501  502  0.00000000000E+00  0.00000000000E+00  0.15344764574E+04  0.15344764574E+04  0.00000000000E+00 0. -1.
         21   -1    0    0  502  503 -0.00000000000E+00 -0.00000000000E+00 -0.54946860326E+02  0.54946860326E+02  0.00000000000E+00 0.  1.
          6    1    1    2  501    0 -0.54870749176E+02  0.14242130572E+03  0.12223518072E+04  0.12439323004E+04  0.17300000000E+03 0. -1.
         -6    1    1    2    0  503  0.54870749176E+02 -0.14242130572E+03  0.25717778984E+03  0.34549101729E+03  0.17300000000E+03 0.  1.
</event>
<event>
 4    1  0.5712137E+000  0.1000000E+03  0.7546771E-02  0.1280296E+00
         21   -1    0    0  501  502  0.00000000000E+00  0.00000000000E+00  0.19726824842E+03  0.19726824842E+03  0.00000000000E+00 0. -1.
         21   -1    0    0  502  503 -0.00000000000E+00 -0.00000000000E+00 -0.51761338432E+03  0.51761338432E+03  0.00000000000E+00 0. -1.
          6    1    1    2  501    0 -0.18722389837E+02  0.20576762043E+03  0.31916069358E+02  0.27136410408E+03  0.17300000000E+03 0. -1.
         -6    1    1    2    0  503  0.18722389837E+02 -0.20576762043E+03 -0.35226120526E+03  0.44351752866E+03  0.17300000000E+03 0. -1.
</event>
<event>
 4    1  0.5712137E+000  0.1000000E+03  0.7546771E-02  0.1280296E+00
         21   -1    0    0  501  502  0.00000000000E+00  0.00000000000E+00  0.10817740281E+03  0.10817740281E+03  0.00000000000E+00 0. -1.
         21   -1    0    0  502  503 -0.00000000000E+00 -0.00000000000E+00 -0.31908183491E+03  0.31908183491E+03  0.00000000000E+00 0. -1.
          6    1    1    2  501    0 -0.16283956931E+02  0.59085602140E+02 -0.72282038253E+02  0.19725609924E+03  0.17300000000E+03 0. -1.
         -6    1    1    2    0  503  0.16283956931E+02 -0.59085602140E+02 -0.13862239384E+03  0.23000313848E+03  0.17300000000E+03 0. -1.
</event>
<event>
 4    1  0.5712137E+000  0.1000000E+03  0.7546771E-02  0.1280296E+00
         21   -1    0    0  501  502  0.00000000000E+00  0.00000000000E+00  0.17401824989E+03  0.17401824989E+03  0.00000000000E+00 0. -1.
         21   -1    0    0  502  503 -0.00000000000E+00 -0.00000000000E+00 -0.60394197535E+03  0.60394197535E+03  0.00000000000E+00 0. -1.
          6    1    1    2  501    0 -0.24314247675E+03 -0.95478265939E+02 -0.11505148441E+03  0.33376669596E+03  0.17300000000E+03 0. -1.
         -6    1    1    2    0  503  0.24314247675E+03  0.95478265939E+02 -0.31487224106E+03  0.44419352928E+03  0.17300000000E+03 0. -1.
</event>
<event>
 4    1  0.5712137E+000  0.1000000E+03  0.7546771E-02  0.1280296E+00
         21   -1    0    0  503  502  0.00000000000E+00  0.00000000000E+00  0.88259583745E+03  0.88259583745E+03  0.00000000000E+00 0.  1.
         21   -1    0    0  501  503 -0.00000000000E+00 -0.00000000000E+00 -0.54459411390E+02  0.54459411390E+02  0.00000000000E+00 0.  1.
          6    1    1    2  501    0  0.13194741457E+03 -0.26381804322E+02  0.40226008284E+03  0.45809201484E+03  0.17300000000E+03 0.  1.
         -6    1    1    2    0  502 -0.13194741457E+03  0.26381804322E+02  0.42587634321E+03  0.47896323400E+03  0.17300000000E+03 0.  1.
</event>
<event>
 4    1  0.5712137E+000  0.1000000E+03  0.7546771E-02  0.1280296E+00
         21   -1    0    0  503  502  0.00000000000E+00  0.00000000000E+00  0.10373079248E+04  0.10373079248E+04  0.00000000000E+00 0.  1.
         21   -1    0    0  501  503 -0.00000000000E+00 -0.00000000000E+00 -0.62148796615E+02  0.62148796615E+02  0.00000000000E+00 0.  1.
          6    1    1    2  501    0 -0.13196719634E+03  0.12918845776E+03  0.53265529607E+03  0.58970811675E+03  0.17300000000E+03 0.  1.
         -6    1    1    2    0  502  0.13196719634E+03 -0.12918845776E+03  0.44250383216E+03  0.50974860471E+03  0.17300000000E+03 0.  1.
</event>
<event>
 4    1  0.5712137E+000  0.1000000E+03  0.7546771E-02  0.1280296E+00
         21   -1    0    0  503  502  0.00000000000E+00  0.00000000000E+00  0.37352489065E+03  0.37352489065E+03  0.00000000000E+00 0.  1.
         21   -1    0    0  501  503 -0.00000000000E+00 -0.00000000000E+00 -0.27835275709E+03  0.27835275709E+03  0.00000000000E+00 0.  1.
          6    1    1    2  501    0  0.24850309937E+03 -0.49815034912E+02 -0.52518641847E+02  0.31132384400E+03  0.17300000000E+03 0.  1.
         -6    1    1    2    0  502 -0.24850309937E+03  0.49815034912E+02  0.14769077541E+03  0.34055380374E+03  0.17300000000E+03 0.  1.
</event>
<event>
 4    1  0.5712137E+000  0.1000000E+03  0.7546771E-02  0.1280296E+00
         21   -1    0    0  501  502  0.00000000000E+00  0.00000000000E+00  0.19615834596E+03  0.19615834596E+03  0.00000000000E+00 0.  1.
         21   -1    0    0  502  503 -0.00000000000E+00 -0.00000000000E+00 -0.40395377542E+03  0.40395377542E+03  0.00000000000E+00 0.  1.
          6    1    1    2  501    0  0.80296685864E+02  0.17243502936E+03 -0.22603291460E+03  0.34234671839E+03  0.17300000000E+03 0.  1.
         -6    1    1    2    0  503 -0.80296685864E+02 -0.17243502936E+03  0.18237485143E+02  0.25776540299E+03  0.17300000000E+03 0.  1.
</event>
<event>
 4    1  0.5712137E+000  0.1000000E+03  0.7546771E-02  0.1280296E+00
         21   -1    0    0  501  502  0.00000000000E+00  0.00000000000E+00  0.10009232915E+04  0.10009232915E+04  0.00000000000E+00 0. -1.
         21   -1    0    0  502  503 -0.00000000000E+00 -0.00000000000E+00 -0.30920505416E+03  0.30920505416E+03  0.00000000000E+00 0.  1.
          6    1    1    2  501    0  0.11783052839E+03  0.20149524341E+03  0.90449121491E+03  0.95000932857E+03  0.17300000000E+03 0. -1.
         -6    1    1    2    0  503 -0.11783052839E+03 -0.20149524341E+03 -0.21277297752E+03  0.36011901713E+03  0.17300000000E+03 0.  1.
</event>
<event>
 4    1  0.5712137E+000  0.1000000E+03  0.7546771E-02  0.1280296E+00
         21   -1    0    0  501  502  0.00000000000E+00  0.00000000000E+00  0.15245038150E+03  0.15245038150E+03  0.00000000000E+00 0. -1.
         21   -1    0    0  502  503 -0.00000000000E+00 -0.00000000000E+00 -0.12048770308E+04  0.12048770308E+04  0.00000000000E+00 0.  1.
          6    1    1    2  501    0 -0.17660444754E+03  0.21032574193E+03 -0.83033421991E+02  0.33503671109E+03  0.17300000000E+03 0. -1.
         -6    1    1    2    0  503  0.17660444754E+03 -0.21032574193E+03 -0.96939322734E+03  0.10222907012E+04  0.17300000000E+03 0.  1.
</event>
<event>
 4    1  0.5712137E+000  0.1000000E+03  0.7546771E-02  0.1280296E+00
         21   -1    0    0  501  502  0.00000000000E+00  0.00000000000E+00  0.26961611179E+03  0.26961611179E+03  0.00000000000E+00 0. -1.
         21   -1    0    0  502  503 -0.00000000000E+00 -0.00000000000E+00 -0.14104569267E+04  0.14104569267E+04  0.00000000000E+00 0.  1.
          6    1    1    2  501    0  0.25689806557E+03 -0.41200334344E+02  0.15380975740E+03  0.34825353569E+03  0.17300000000E+03 0. -1.
         -6    1    1    2    0  503 -0.25689806557E+03  0.41200334344E+02 -0.12946505724E+04  0.13318195028E+04  0.17300000000E+03 0.  1.
</event>
<event>
 4    1  0.5712137E+000  0.1000000E+03  0.7546771E-02  0.1280296E+00
         21   -1    0    0  501  502  0.00000000000E+00  0.00000000000E+00  0.84645401269E+02  0.84645401269E+02  0.00000000000E+00 0.  1.
         21   -1    0    0  502  503 -0.00000000000E+00 -0.00000000000E+00 -0.81018896383E+03  0.81018896383E+03  0.00000000000E+00 0. -1.
          6    1    1    2  501    0 -0.13204439004E+03 -0.61888551342E+02 -0.13750825737E+03  0.26477053192E+03  0.17300000000E+03 0. -1.
         -6    1    1    2    0  503  0.13204439004E+03  0.61888551342E+02 -0.58803530520E+03  0.63006383318E+03  0.17300000000E+03 0. -1.
</event>
<event>
 4    1  0.5712137E+000  0.1000000E+03  0.7546771E-02  0.1280296E+00
         21   -1    0    0  503  502  0.00000000000E+00  0.00000000000E+00  0.59683515260E+03  0.59683515260E+03  0.00000000000E+00 0. -1.
         21   -1    0    0  501  503 -0.00000000000E+00 -0.00000000000E+00 -0.64570828996E+03  0.64570828996E+03  0.00000000000E+00 0.  1.
          6    1    1    2  501    0  0.64036426759E+02  0.15795225411E+02 -0.61743427799E+03  0.64459618424E+03  0.17300000000E+03 0.  1.
         -6    1    1    2    0  502 -0.64036426759E+02 -0.15795225411E+02  0.56856114063E+03  0.59794725832E+03  0.17300000000E+03 0. -1.
</event>
<event>
 4    1  0.5712137E+000  0.1000000E+03  0.7546771E-02  0.1280296E+00
         21   -1    0    0  503  502  0.00000000000E+00  0.00000000000E+00  0.94997833422E+02  0.94997833422E+02  0.00000000000E+00 0. -1.
         21   -1    0    0  501  503 -0.00000000000E+00 -0.00000000000E+00 -0.36798415104E+03  0.36798415104E+03  0.00000000000E+00 0. -1.
          6    1    1    2  501    0 -0.38093114768E+02 -0.30087162207E+01 -0.21045524442E+03  0.27510097723E+03  0.17300000000E+03 0. -1.
         -6    1    1    2    0  502  0.38093114768E+02  0.30087162207E+01 -0.62531073201E+02  0.18788100724E+03  0.17300000000E+03 0. -1.
</event>
<event>
 4    1  0.5712137E+000  0.1000000E+03  0.7546771E-02  0.1280296E+00
         21   -1    0    0  501  502  0.00000000000E+00  0.00000000000E+00  0.41486536305E+03  0.41486536305E+03  0.00000000000E+00 0. -1.
         21   -1    0    0  502  503 -0.00000000000E+00 -0.00000000000E+00 -0.12042921347E+03  0.12042921347E+03  0.00000000000E+00 0. -1.
          6    1    1    2  501    0  0.11206703893E+03  0.29192626712E+02  0.24465585599E+03  0.32124246067E+03  0.17300000000E+03 0. -1.
         -6    1    1    2    0  503 -0.11206703893E+03 -0.29192626712E+02  0.49780293590E+02  0.21405211585E+03  0.17300000000E+03 0. -1.
</event>
<event>
 4    1  0.5712137E+000  0.1000000E+03  0.7546771E-02  0.1280296E+00
         21   -1    0    0  501  502  0.00000000000E+00  0.00000000000E+00  0.21111633364E+04  0.21111633364E+04  0.00000000000E+00 0. -1.
         21   -1    0    0  502  503 -0.00000000000E+00 -0.00000000000E+00 -0.19484055463E+03  0.19484055463E+03  0.00000000000E+00 0. -1.
          6    1    1    2  501    0  0.16130847615E+03  0.15250978629E+03  0.19942204850E+04  0.20139821255E+04  0.17300000000E+03 0. -1.
         -6    1    1    2    0  503 -0.16130847615E+03 -0.15250978629E+03 -0.77897703140E+02  0.29202176553E+03  0.17300000000E+03 0. -1.
</event>
<event>
 4    1  0.5712137E+000  0.1000000E+03  0.7546771E-02  0.1280296E+00
         21   -1    0    0  501  502  0.00000000000E+00  0.00000000000E+00  0.11148499997E+03  0.11148499997E+03  0.00000000000E+00 0. -1.
         21   -1    0    0  502  503 -0.00000000000E+00 -0.00000000000E+00 -0.12379924764E+04  0.12379924764E+04  0.00000000000E+00 0. -1.
          6    1    1    2  501    0 -0.11204345024E+03  0.29428469196E+03 -0.39161013519E+03  0.53145527813E+03  0.17300000000E+03 0. -1.
         -6    1    1    2    0  503  0.11204345024E+03 -0.29428469196E+03 -0.73489734128E+03  0.81802219829E+03  0.17300000000E+03 0. -1.
</event>
<event>
 4    1  0.5712137E+000  0.1000000E+03  0.7546771E-02  0.1280296E+00
         21   -1    0    0  503  502  0.00000000000E+00  0.00000000000E+00  0.19205255198E+03  0.19205255198E+03  0.00000000000E+00 0.  1.
         21   -1    0    0  501  503 -0.00000000000E+00 -0.00000000000E+00 -0.28207607601E+03  0.28207607601E+03  0.00000000000E+00 0.  1.
          6    1    1    2  501    0 -0.21089822085E+02 -0.12080615898E+03 -0.14273485771E+03  0.25561914687E+03  0.17300000000E+03 0.  1.
         -6    1    1    2    0  502  0.21089822085E+02  0.12080615898E+03  0.52711333682E+02  0.21850948112E+03  0.17300000000E+03 0.  1.
</event>
<event>
 4    1  0.5712137E+000  0.1000000E+03  0.7546771E-02  0.1280296E+00
         21   -1    0    0  503  502  0.00000000000E+00  0.00000000000E+00  0.13788538157E+03  0.13788538157E+03  0.00000000000E+00 0. -1.
         21   -1    0    0  501  503 -0.00000000000E+00 -0.00000000000E+00 -0.26246897954E+03  0.26246897954E+03  0.00000000000E+00 0.  1.
          6    1    1    2  501    0 -0.88583973763E+00 -0.20183690074E+02  0.18213253565E+02  0.17512535128E+03  0.17300000000E+03 0.  1.
         -6    1    1    2    0  502  0.88583973763E+00  0.20183690074E+02 -0.14279685154E+03  0.22522900982E+03  0.17300000000E+03 0. -1.
</event>
<event>
 4    1  0.5712137E+000  0.1000000E+03  0.7546771E-02  0.1280296E+00
         21   -1    0    0  503  502  0.00000000000E+00  0.00000000000E+00  0.44152131162E+02  0.44152131162E+02  0.00000000000E+00 0. -1.
         21   -1    0    0  501  503 -0.00000000000E+00 -0.00000000000E+00 -0.12465882441E+04  0.12465882441E+04  0.00000000000E+00 0.  1.
          6    1    1    2  501    0 -0.14144615904E+03 -0.54803350420E+02 -0.72728232462E+03  0.76280993886E+03  0.17300000000E+03 0.  1.
         -6    1    1    2    0  502  0.14144615904E+03  0.54803350420E+02 -0.47515378833E+03  0.52793043641E+03  0.17300000000E+03 0. -1.
</event>
<event>
 4    1  0.5712137E+000  0.1000000E+03  0.7546771E-02  0.1280296E+00
         21   -1    0    0  503  502  0.00000000000E+00  0.00000000000E+00  0.21831959931E+03  0.21831959931E+03  0.00000000000E+00 0. -1.
         21   -1    0    0  501  503 -0.00000000000E+00 -0.00000000000E+00 -0.75900498539E+03  0.75900498539E+03  0.00000000000E+00 0.  1.
          6    1    1    2  501    0 -0.30916752424E+02  0.78012939389E+02 -0.70105584396E+03  0.72694577558E+03  0.17300000000E+03 0.  1.
         -6    1    1    2    0  502  0.30916752424E+02 -0.78012939389E+02  0.16037045788E+03  0.25037880911E+03  0.17300000000E+03 0.  1.
</event>
<event>
 4    1  0.5712137E+000  0.1000000E+03  0.7546771E-02  0.1280296E+00
         21   -1    0    0  503  502  0.00000000000E+00  0.00000000000E+00  0.12302765905E+03  0.12302765905E+03  0.00000000000E+00 0. -1.
         21   -1    0    0  501  503 -0.00000000000E+00 -0.00000000000E+00 -0.73973748910E+03  0.73973748910E+03  0.00000000000E+00 0.  1.
          6    1    1    2  501    0  0.41597866172E+02 -0.58861298378E+01 -0.65661325970E+03  0.68031977908E+03  0.17300000000E+03 0.  1.
         -6    1    1    2    0  502 -0.41597866172E+02  0.58861298378E+01  0.39903429659E+02  0.18244536906E+03  0.17300000000E+03 0.  1.
</event>
<event>
 4    1  0.5712137E+000  0.1000000E+03  0.7546771E-02  0.1280296E+00
         21   -1    0    0  503  502  0.00000000000E+00  0.00000000000E+00  0.12241735163E+03  0.12241735163E+03  0.00000000000E+00 0.  1.
         21   -1    0    0  501  503 -0.00000000000E+00 -0.00000000000E+00 -0.66253918156E+03  0.66253918156E+03  0.00000000000E+00 0.  1.
          6    1    1    2  501    0  0.28992760202E+02  0.42319248986E+02 -0.57370452017E+03  0.60141281616E+03  0.17300000000E+03 0.  1.
         -6    1    1    2    0  502 -0.28992760202E+02 -0.42319248986E+02  0.33582690241E+02  0.18354371703E+03  0.17300000000E+03 0.  1.
</event>
<event>
 4    1  0.5712137E+000  0.1000000E+03  0.7546771E-02  0.1280296E+00
         21   -1    0    0  503  502  0.00000000000E+00  0.00000000000E+00  0.53573838748E+03  0.53573838748E+03  0.00000000000E+00 0.  1.
         21   -1    0    0  501  503 -0.00000000000E+00 -0.00000000000E+00 -0.27250251032E+03  0.27250251032E+03  0.00000000000E+00 0.  1.
          6    1    1    2  501    0  0.10188159967E+03  0.29554827008E+02 -0.21079155739E+03  0.29260114288E+03  0.17300000000E+03 0.  1.
         -6    1    1    2    0  502 -0.10188159967E+03 -0.29554827008E+02  0.47402743455E+03  0.51563975492E+03  0.17300000000E+03 0.  1.
</event>
<event>
 4    1  0.5712137E+000  0.1000000E+03  0.7546771E-02  0.1280296E+00
         21   -1    0    0  503  502  0.00000000000E+00  0.00000000000E+00  0.60972553882E+02  0.60972553882E+02  0.00000000000E+00 0. -1.
         21   -1    0    0  501  503 -0.00000000000E+00 -0.00000000000E+00 -0.75026513085E+03  0.75026513085E+03  0.00000000000E+00 0.  1.
          6    1    1    2  501    0  0.48267488691E+02  0.11479969451E+03 -0.37792149343E+03  0.43389212428E+03  0.17300000000E+03 0.  1.
         -6    1    1    2    0  502 -0.48267488691E+02 -0.11479969451E+03 -0.31137108354E+03  0.37734556044E+03  0.17300000000E+03 0. -1.
</event>
<event>
 4    1  0.5712137E+000  0.1000000E+03  0.7546771E-02  0.1280296E+00
         21   -1    0    0  501  502  0.00000000000E+00  0.00000000000E+00  0.10406212411E+04  0.10406212411E+04  0.00000000000E+00 0.  1.
         21   -1    0    0  502  503 -0.00000000000E+00 -0.00000000000E+00 -0.79811156074E+02  0.79811156074E+02  0.00000000000E+00 0. -1.
          6    1    1    2  501    0  0.33817652066E+02  0.14838850789E+03  0.81688451921E+03  0.84875915346E+03  0.17300000000E+03 0.  1.
         -6    1    1    2    0  503 -0.33817652066E+02 -0.14838850789E+03  0.14392556586E+03  0.27167324375E+03  0.17300000000E+03 0.  1.
</event>
<event>
 4    1  0.5712137E+000  0.1000000E+03  0.7546771E-02  0.1280296E+00
         21   -1    0    0  501  502  0.00000000000E+00  0.00000000000E+00  0.95446608600E+02  0.95446608600E+02  0.00000000000E+00 0.  1.
         21   -1    0    0  502  503 -0.00000000000E+00 -0.00000000000E+00 -0.42424405974E+03  0.42424405974E+03  0.00000000000E+00 0. -1.
          6    1    1    2  501    0  0.30269302176E+02  0.36570122500E+02 -0.46684577682E+02  0.18537004695E+03  0.17300000000E+03 0.  1.
         -6    1    1    2    0  503 -0.30269302176E+02 -0.36570122500E+02 -0.28211287346E+03  0.33432062139E+03  0.17300000000E+03 0.  1.
</event>
<event>
 4    1  0.5712137E+000  0.1000000E+03  0.7546771E-02  0.1280296E+00
         21   -1    0    0  503  502  0.00000000000E+00  0.00000000000E+00  0.75102556332E+02  0.75102556332E+02  0.00000000000E+00 0. -1.
         21   -1    0    0  501  503 -0.00000000000E+00 -0.00000000000E+00 -0.86353318650E+03  0.86353318650E+03  0.00000000000E+00 0.  1.
          6    1    1    2  501    0 -0.95084983631E+02  0.45246321579E+02 -0.67873899512E+03  0.70831067140E+03  0.17300000000E+03 0.  1.
         -6    1    1    2    0  502  0.95084983631E+02 -0.45246321579E+02 -0.10969163505E+03  0.23032507143E+03  0.17300000000E+03 0. -1.
</event>
<event>
 4    1  0.5712137E+000  0.1000000E+03  0.7546771E-02  0.1280296E+00
         21   -1    0    0  503  502  0.00000000000E+00  0.00000000000E+00  0.85404363386E+03  0.85404363386E+03  0.00000000000E+00 0. -1.
         21   -1    0    0  501  503 -0.00000000000E+00 -0.00000000000E+00 -0.36047446584E+02  0.36047446584E+02  0.00000000000E+00 0. -1.
          6    1    1    2  501    0  0.23704412913E+02  0.16447600802E+02  0.42159626225E+03  0.45662329234E+03  0.17300000000E+03 0. -1.
         -6    1    1    2    0  502 -0.23704412913E+02 -0.16447600802E+02  0.39639992502E+03  0.43346778810E+03  0.17300000000E+03 0. -1.
</event>
<event>
 4    1  0.5712137E+000  0.1000000E+03  0.7546771E-02  0.1280296E+00
         21   -1    0    0  503  502  0.00000000000E+00  0.00000000000E+00  0.26274412331E+02  0.26274412331E+02  0.00000000000E+00 0. -1.
         21   -1    0    0  501  503 -0.00000000000E+00 -0.00000000000E+00 -0.19949414752E+04  0.19949414752E+04  0.00000000000E+00 0. -1.
          6    1    1    2  501    0  0.78674316349E+02  0.42947504049E+02 -0.15150062962E+04  0.15274839488E+04  0.17300000000E+03 0. -1.
         -6    1    1    2    0  502 -0.78674316349E+02 -0.42947504049E+02 -0.45366076663E+03  0.49373193874E+03  0.17300000000E+03 0. -1.
</event>
<event>
 4    1  0.5712137E+000  0.1000000E+03  0.7546771E-02  0.1280296E+00
         21   -1    0    0  501  502  0.00000000000E+00  0.00000000000E+00  0.27379938696E+02  0.27379938696E+02  0.00000000000E+00 0. -1.
         21   -1    0    0  502  503 -0.00000000000E+00 -0.00000000000E+00 -0.18292878275E+04  0.18292878275E+04  0.00000000000E+00 0. -1.
          6    1    1    2  501    0 -0.11210578014E+03  0.74443531265E+02 -0.71326803383E+03  0.74618351186E+03  0.17300000000E+03 0. -1.
         -6    1    1    2    0  503  0.11210578014E+03 -0.74443531265E+02 -0.10886398549E+04  0.11104842543E+04  0.17300000000E+03 0. -1.
</event>
<event>
 4    1  0.5712137E+000  0.1000000E+03  0.7546771E-02  0.1280296E+00
         21   -1    0    0  501  502  0.00000000000E+00  0.00000000000E+00  0.36385931492E+03  0.36385931492E+03  0.00000000000E+00 0. -1.
         21   -1    0    0  502  503 -0.00000000000E+00 -0.00000000000E+00 -0.34850132375E+03  0.34850132375E+03  0.00000000000E+00 0. -1.
          6    1    1    2  501    0 -0.90073291598E+02 -0.64754939095E+02  0.29855591047E+03  0.36245141974E+03  0.17300000000E+03 0. -1.
         -6    1    1    2    0  503  0.90073291598E+02  0.64754939095E+02 -0.28319791930E+03  0.34990921893E+03  0.17300000000E+03 0. -1.
</event>
<event>
 4    1  0.5712137E+000  0.1000000E+03  0.7546771E-02  0.1280296E+00
         21   -1    0    0  503  502  0.00000000000E+00  0.00000000000E+00  0.76969869800E+03  0.76969869800E+03  0.00000000000E+00 0. -1.
         21   -1    0    0  501  503 -0.00000000000E+00 -0.00000000000E+00 -0.27474853368E+03  0.27474853368E+03  0.00000000000E+00 0.  1.
          6    1    1    2  501    0  0.71180886906E+01  0.10144249123E+03 -0.22240232054E+03  0.29955473356E+03  0.17300000000E+03 0.  1.
         -6    1    1    2    0  502 -0.71180886906E+01 -0.10144249123E+03  0.71735248487E+03  0.74489249812E+03  0.17300000000E+03 0. -1.
</event>
<event>
 4    1  0.5712137E+000  0.1000000E+03  0.7546771E-02  0.1280296E+00
         21   -1    0    0  503  502  0.00000000000E+00  0.00000000000E+00  0.10446736367E+03  0.10446736367E+03  0.00000000000E+00 0.  1.
         21   -1    0    0  501  503 -0.00000000000E+00 -0.00000000000E+00 -0.62179750260E+03  0.62179750260E+03  0.00000000000E+00 0. -1.
          6    1    1    2  501    0  0.12308597832E+03  0.12783342651E+03 -0.17392907328E+03  0.30277362092E+03  0.17300000000E+03 0.  1.
         -6    1    1    2    0  502 -0.12308597832E+03 -0.12783342651E+03 -0.34340106565E+03  0.42349124535E+03  0.17300000000E+03 0. -1.
</event>
<event>
 4    1  0.5712137E+000  0.1000000E+03  0.7546771E-02  0.1280296E+00
         21   -1    0    0  503  502  0.00000000000E+00  0.00000000000E+00  0.13346365452E+03  0.13346365452E+03  0.00000000000E+00 0.  1.
         21   -1    0    0  501  503 -0.00000000000E+00 -0.00000000000E+00 -0.45241450634E+03  0.45241450634E+03  0.00000000000E+00 0. -1.
          6    1    1    2  501    0 -0.10249846467E+03  0.46958115359E+02 -0.31826255305E+03  0.37938246208E+03  0.17300000000E+03 0.  1.
         -6    1    1    2    0  502  0.10249846467E+03 -0.46958115359E+02 -0.68829876289E+00  0.20649569878E+03  0.17300000000E+03 0. -1.
</event>
<event>
 4    1  0.5712137E+000  0.1000000E+03  0.7546771E-02  0.1280296E+00
         21   -1    0    0  503  502  0.00000000000E+00  0.00000000000E+00  0.74475936228E+03  0.74475936228E+03  0.00000000000E+00 0.  1.
         21   -1    0    0  501  503 -0.00000000000E+00 -0.00000000000E+00 -0.26113426883E+03  0.26113426883E+03  0.00000000000E+00 0. -1.
          6    1    1    2  501    0  0.34210426621E+03  0.14264689411E+03  0.53826864189E+02  0.41256489994E+03  0.17300000000E+03 0. -1.
         -6    1    1    2    0  502 -0.34210426621E+03 -0.14264689411E+03  0.42979822926E+03  0.59332873117E+03  0.17300000000E+03 0.  1.
</event>
<event>
 4    1  0.5712137E+000  0.1000000E+03  0.7546771E-02  0.1280296E+00
         21   -1    0    0  503  502  0.00000000000E+00  0.00000000000E+00  0.14015604640E+02  0.14015604640E+02  0.00000000000E+00 0.  1.
         21   -1    0    0  501  503 -0.00000000000E+00 -0.00000000000E+00 -0.32117030817E+04  0.32117030817E+04  0.00000000000E+00 0. -1.
          6    1    1    2  501    0  0.40882406897E+02 -0.63433616853E+02 -0.23354751909E+04  0.23430895335E+04  0.17300000000E+03 0. -1.
         -6    1    1    2    0  502 -0.40882406897E+02  0.63433616853E+02 -0.86221228615E+03  0.88262915278E+03  0.17300000000E+03 0.  1.
</event>
<event>
 4    1  0.5712137E+000  0.1000000E+03  0.7546771E-02  0.1280296E+00
         21   -1    0    0  503  502  0.00000000000E+00  0.00000000000E+00  0.15268887052E+03  0.15268887052E+03  0.00000000000E+00 0.  1.
         21   -1    0    0  501  503 -0.00000000000E+00 -0.00000000000E+00 -0.73238475488E+03  0.73238475488E+03  0.00000000000E+00 0. -1.
          6    1    1    2  501    0 -0.65432296577E+01 -0.96951417295E+02 -0.64606283491E+03  0.67584656382E+03  0.17300000000E+03 0. -1.
         -6    1    1    2    0  502  0.65432296577E+01  0.96951417295E+02  0.66366950553E+02  0.20922706158E+03  0.17300000000E+03 0.  1.
</event>
<event>
 4    1  0.5712137E+000  0.1000000E+03  0.7546771E-02  0.1280296E+00
         21   -1    0    0  503  502  0.00000000000E+00  0.00000000000E+00  0.84890351448E+02  0.84890351448E+02  0.00000000000E+00 0.  1.
         21   -1    0    0  501  503 -0.00000000000E+00 -0.00000000000E+00 -0.84789115057E+03  0.84789115057E+03  0.00000000000E+00 0. -1.
          6    1    1    2  501    0 -0.13265214889E+03 -0.15637060560E+03 -0.38037531209E+03  0.46547044691E+03  0.17300000000E+03 0. -1.
         -6    1    1    2    0  502  0.13265214889E+03  0.15637060560E+03 -0.38262548703E+03  0.46731105511E+03  0.17300000000E+03 0.  1.
</event>
<event>
 4    1  0.5712137E+000  0.1000000E+03  0.7546771E-02  0.1280296E+00
         21   -1    0    0  501  502  0.00000000000E+00  0.00000000000E+00  0.63514337486E+03  0.63514337486E+03  0.00000000000E+00 0.  1.
         21   -1    0    0  502  503 -0.00000000000E+00 -0.00000000000E+00 -0.74023687025E+02  0.74023687025E+02  0.00000000000E+00 0.  1.
          6    1    1    2  501    0 -0.87527676886E+02 -0.92650915825E+02  0.23312578312E+03  0.31705191559E+03  0.17300000000E+03 0.  1.
         -6    1    1    2    0  503  0.87527676886E+02  0.92650915825E+02  0.32799390471E+03  0.39211514629E+03  0.17300000000E+03 0.  1.
</event>
<event>
 4    1  0.5712137E+000  0.1000000E+03  0.7546771E-02  0.1280296E+00
         21   -1    0    0  501  502  0.00000000000E+00  0.00000000000E+00  0.10140737162E+03  0.10140737162E+03  0.00000000000E+00 0.  1.
         21   -1    0    0  502  503 -0.00000000000E+00 -0.00000000000E+00 -0.69861266418E+03  0.69861266418E+03  0.00000000000E+00 0. -1.
          6    1    1    2  501    0 -0.20192827460E+03  0.10985506996E+01 -0.28086897830E+03  0.38677204897E+03  0.17300000000E+03 0.  1.
         -6    1    1    2    0  503  0.20192827460E+03 -0.10985506996E+01 -0.31633631425E+03  0.41324798682E+03  0.17300000000E+03 0. -1.
</event>
<event>
 4    1  0.5712137E+000  0.1000000E+03  0.7546771E-02  0.1280296E+00
         21   -1    0    0  501  502  0.00000000000E+00  0.00000000000E+00  0.18278571822E+03  0.18278571822E+03  0.00000000000E+00 0.  1.
         21   -1    0    0  502  503 -0.00000000000E+00 -0.00000000000E+00 -0.18571326183E+03  0.18571326183E+03  0.00000000000E+00 0. -1.
          6    1    1    2  501    0 -0.38554080923E+02 -0.35378880952E+02  0.34295566553E+02  0.18396539962E+03  0.17300000000E+03 0.  1.
         -6    1    1    2    0  503  0.38554080923E+02  0.35378880952E+02 -0.37223110165E+02  0.18453358042E+03  0.17300000000E+03 0. -1.
</event>
<event>
 4    1  0.5712137E+000  0.1000000E+03  0.7546771E-02  0.1280296E+00
         21   -1    0    0  501  502  0.00000000000E+00  0.00000000000E+00  0.91840851455E+02  0.91840851455E+02  0.00000000000E+00 0.  1.
         21   -1    0    0  502  503 -0.00000000000E+00 -0.00000000000E+00 -0.16000498195E+04  0.16000498195E+04  0.00000000000E+00 0. -1.
          6    1    1    2  501    0 -0.26148889752E+03  0.14332248543E+02 -0.26841852997E+03  0.41298833410E+03  0.17300000000E+03 0.  1.
         -6    1    1    2    0  503  0.26148889752E+03 -0.14332248543E+02 -0.12397904381E+04  0.12789023369E+04  0.17300000000E+03 0. -1.
</event>
<event>
 4    1  0.5712137E+000  0.1000000E+03  0.7546771E-02  0.1280296E+00
         21   -1    0    0  503  502  0.00000000000E+00  0.00000000000E+00  0.15838914059E+03  0.15838914059E+03  0.00000000000E+00 0. -1.
         21   -1    0    0  501  503 -0.00000000000E+00 -0.00000000000E+00 -0.27539465519E+03  0.27539465519E+03  0.00000000000E+00 0. -1.
          6    1    1    2  501    0  0.43707841606E+01 -0.41181164059E+02 -0.17214773793E+03  0.24754562348E+03  0.17300000000E+03 0. -1.
         -6    1    1    2    0  502 -0.43707841606E+01  0.41181164059E+02  0.55142223335E+02  0.18623817230E+03  0.17300000000E+03 0. -1.
</event>
<event>
 4    1  0.5712137E+000  0.1000000E+03  0.7546771E-02  0.1280296E+00
         21   -1    0    0  501  502  0.00000000000E+00  0.00000000000E+00  0.51218603019E+03  0.51218603019E+03  0.00000000000E+00 0.  1.
         21   -1    0    0  502  503 -0.00000000000E+00 -0.00000000000E+00 -0.68166558913E+02  0.68166558913E+02  0.00000000000E+00 0. -1.
          6    1    1    2  501    0  0.40989523595E+02  0.89176867704E+01  0.31020534574E+03  0.35765349531E+03  0.17300000000E+03 0.  1.
         -6    1    1    2    0  503 -0.40989523595E+02 -0.89176867704E+01  0.13381412553E+03  0.22269909379E+03  0.17300000000E+03 0.  1.
</event>
<event>
 4    1  0.5712137E+000  0.1000000E+03  0.7546771E-02  0.1280296E+00
         21   -1    0    0  501  502  0.00000000000E+00  0.00000000000E+00  0.58786014447E+03  0.58786014447E+03  0.00000000000E+00 0.  1.
         21   -1    0    0  502  503 -0.00000000000E+00 -0.00000000000E+00 -0.96146803836E+02  0.96146803836E+02  0.00000000000E+00 0. -1.
          6    1    1    2  501    0  0.42291110164E+02 -0.74858683040E+02  0.44518599537E+03  0.48529571490E+03  0.17300000000E+03 0.  1.
         -6    1    1    2    0  503 -0.42291110164E+02  0.74858683040E+02  0.46527345266E+02  0.19871123341E+03  0.17300000000E+03 0.  1.
</event>
<event>
 4    1  0.5712137E+000  0.1000000E+03  0.7546771E-02  0.1280296E+00
         21   -1    0    0  501  502  0.00000000000E+00  0.00000000000E+00  0.47048122658E+03  0.47048122658E+03  0.00000000000E+00 0.  1.
         21   -1    0    0  502  503 -0.00000000000E+00 -0.00000000000E+00 -0.14411981843E+03  0.14411981843E+03  0.00000000000E+00 0.  1.
          6    1    1    2  501    0  0.15523541457E+03 -0.50600316385E+02  0.28817572617E+03  0.37367455775E+03  0.17300000000E+03 0.  1.
         -6    1    1    2    0  503 -0.15523541457E+03  0.50600316385E+02  0.38185681979E+02  0.24092648726E+03  0.17300000000E+03 0.  1.
</event>
<event>
 4    1  0.5712137E+000  0.1000000E+03  0.7546771E-02  0.1280296E+00
         21   -1    0    0  501  502  0.00000000000E+00  0.00000000000E+00  0.29067465635E+03  0.29067465635E+03  0.00000000000E+00 0.  1.
         21   -1    0    0  502  503 -0.00000000000E+00 -0.00000000000E+00 -0.13370926834E+04  0.13370926834E+04  0.00000000000E+00 0. -1.
          6    1    1    2  501    0 -0.29799271594E+02  0.44551997573E+03 -0.20630745006E+01  0.47886250807E+03  0.17300000000E+03 0.  1.
         -6    1    1    2    0  503  0.29799271594E+02 -0.44551997573E+03 -0.10443549526E+04  0.11489048317E+04  0.17300000000E+03 0. -1.
</event>
<event>
 4    1  0.5712137E+000  0.1000000E+03  0.7546771E-02  0.1280296E+00
         21   -1    0    0  501  502  0.00000000000E+00  0.00000000000E+00  0.25031678401E+03  0.25031678401E+03  0.00000000000E+00 0.  1.
         21   -1    0    0  502  503 -0.00000000000E+00 -0.00000000000E+00 -0.22314201352E+03  0.22314201352E+03  0.00000000000E+00 0. -1.
          6    1    1    2  501    0 -0.15704828369E+03  0.25218234332E+01  0.49095437328E+02  0.23876742862E+03  0.17300000000E+03 0.  1.
         -6    1    1    2    0  503  0.15704828369E+03 -0.25218234332E+01 -0.21920666835E+02  0.23469136891E+03  0.17300000000E+03 0. -1.
</event>
<event>
 4    1  0.5712137E+000  0.1000000E+03  0.7546771E-02  0.1280296E+00
         21   -1    0    0  501  502  0.00000000000E+00  0.00000000000E+00  0.66346924503E+02  0.66346924503E+02  0.00000000000E+00 0.  1.
         21   -1    0    0  502  503 -0.00000000000E+00 -0.00000000000E+00 -0.90259565868E+03  0.90259565868E+03  0.00000000000E+00 0. -1.
          6    1    1    2  501    0  0.23602803794E+02 -0.15775195164E+03 -0.55111715130E+03  0.59925110350E+03  0.17300000000E+03 0.  1.
         -6    1    1    2    0  503 -0.23602803794E+02  0.15775195164E+03 -0.28513158288E+03  0.36969147968E+03  0.17300000000E+03 0. -1.
</event>
<event>
 4    1  0.5712137E+000  0.1000000E+03  0.7546771E-02  0.1280296E+00
         21   -1    0    0  501  502  0.00000000000E+00  0.00000000000E+00  0.20251631676E+02  0.20251631676E+02  0.00000000000E+00 0.  1.
         21   -1    0    0  502  503 -0.00000000000E+00 -0.00000000000E+00 -0.15200523411E+04  0.15200523411E+04  0.00000000000E+00 0. -1.
          6    1    1    2  501    0 -0.27270695309E+02  0.10388352486E+02 -0.75741586383E+03  0.77746987046E+03  0.17300000000E+03 0.  1.
         -6    1    1    2    0  503  0.27270695309E+02 -0.10388352486E+02 -0.74238484560E+03  0.76283410233E+03  0.17300000000E+03 0. -1.
</event>
<event>
 4    1  0.5712137E+000  0.1000000E+03  0.7546771E-02  0.1280296E+00
         21   -1    0    0  501  502  0.00000000000E+00  0.00000000000E+00  0.55485668711E+02  0.55485668711E+02  0.00000000000E+00 0. -1.
         21   -1    0    0  502  503 -0.00000000000E+00 -0.00000000000E+00 -0.15521142886E+04  0.15521142886E+04  0.00000000000E+00 0. -1.
          6    1    1    2  501    0 -0.10538921904E+03  0.78210873914E+02 -0.20762756222E+03  0.30043640405E+03  0.17300000000E+03 0. -1.
         -6    1    1    2    0  503  0.10538921904E+03 -0.78210873914E+02 -0.12890010577E+04  0.13071635533E+04  0.17300000000E+03 0. -1.
</event>
<event>
 4    1  0.5712137E+000  0.1000000E+03  0.7546771E-02  0.1280296E+00
         21   -1    0    0  501  502  0.00000000000E+00  0.00000000000E+00  0.16485206989E+03  0.16485206989E+03  0.00000000000E+00 0. -1.
         21   -1    0    0  502  503 -0.00000000000E+00 -0.00000000000E+00 -0.38662115460E+03  0.38662115460E+03  0.00000000000E+00 0.  1.
          6    1    1    2  501    0 -0.11918794171E+03 -0.24966322142E+02  0.39575321462E+02  0.21523078023E+03  0.17300000000E+03 0. -1.
         -6    1    1    2    0  503  0.11918794171E+03  0.24966322142E+02 -0.26134440617E+03  0.33624244427E+03  0.17300000000E+03 0.  1.
</event>
<event>
 4    1  0.5712137E+000  0.1000000E+03  0.7546771E-02  0.1280296E+00
         21   -1    0    0  503  502  0.00000000000E+00  0.00000000000E+00  0.17783867834E+04  0.17783867834E+04  0.00000000000E+00 0.  1.
         21   -1    0    0  501  503 -0.00000000000E+00 -0.00000000000E+00 -0.33591244040E+02  0.33591244040E+02  0.00000000000E+00 0. -1.
          6    1    1    2  501    0  0.81318520582E+02  0.67314217019E+02  0.36597353244E+03  0.41834140609E+03  0.17300000000E+03 0. -1.
         -6    1    1    2    0  502 -0.81318520582E+02 -0.67314217019E+02  0.13788220069E+04  0.13936366214E+04  0.17300000000E+03 0.  1.
</event>
<event>
 4    1  0.5712137E+000  0.1000000E+03  0.7546771E-02  0.1280296E+00
         21   -1    0    0  503  502  0.00000000000E+00  0.00000000000E+00  0.71588251879E+02  0.71588251879E+02  0.00000000000E+00 0.  1.
         21   -1    0    0  501  503 -0.00000000000E+00 -0.00000000000E+00 -0.12699049364E+04  0.12699049364E+04  0.00000000000E+00 0. -1.
          6    1    1    2  501    0 -0.49616557424E+02  0.64213564441E+02 -0.11180011882E+04  0.11342137547E+04  0.17300000000E+03 0. -1.
         -6    1    1    2    0  502  0.49616557424E+02 -0.64213564441E+02 -0.80315496363E+02  0.20727943358E+03  0.17300000000E+03 0.  1.
</event>
<event>
 4    1  0.5712137E+000  0.1000000E+03  0.7546771E-02  0.1280296E+00
         21   -1    0    0  503  502  0.00000000000E+00  0.00000000000E+00  0.10115062347E+04  0.10115062347E+04  0.00000000000E+00 0.  1.
         21   -1    0    0  501  503 -0.00000000000E+00 -0.00000000000E+00 -0.54031270153E+02  0.54031270153E+02  0.00000000000E+00 0.  1.
          6    1    1    2  501    0 -0.90626877429E+02  0.10793098313E+03  0.31983773369E+03  0.38998397906E+03  0.17300000000E+03 0.  1.
         -6    1    1    2    0  502  0.90626877429E+02 -0.10793098313E+03  0.63763723084E+03  0.67555352577E+03  0.17300000000E+03 0.  1.
</event>
<event>
 4    1  0.5712137E+000  0.1000000E+03  0.7546771E-02  0.1280296E+00
         21   -1    0    0  503  502  0.00000000000E+00  0.00000000000E+00  0.14021424669E+03  0.14021424669E+03  0.00000000000E+00 0.  1.
         21   -1    0    0  501  503 -0.00000000000E+00 -0.00000000000E+00 -0.33760965713E+03  0.33760965713E+03  0.00000000000E+00 0.  1.
          6    1    1    2  501    0 -0.12736177690E+03  0.11705067623E+02 -0.63104752964E+02  0.22420802990E+03  0.17300000000E+03 0.  1.
         -6    1    1    2    0  502  0.12736177690E+03 -0.11705067623E+02 -0.13429065748E+03  0.25361587393E+03  0.17300000000E+03 0.  1.
</event>
<event>
 4    1  0.5712137E+000  0.1000000E+03  0.7546771E-02  0.1280296E+00
         21   -1    0    0  501  502  0.00000000000E+00  0.00000000000E+00  0.99466419514E+03  0.99466419514E+03  0.00000000000E+00 0. -1.
         21   -1    0    0  502  503 -0.00000000000E+00 -0.00000000000E+00 -0.60500072073E+02  0.60500072073E+02  0.00000000000E+00 0. -1.
          6    1    1    2  501    0 -0.49548888257E+02 -0.68499672779E+01  0.82532362315E+03  0.84474262193E+03  0.17300000000E+03 0. -1.
         -6    1    1    2    0  503  0.49548888257E+02  0.68499672779E+01  0.10884049991E+03  0.21042164528E+03  0.17300000000E+03 0. -1.
</event>
<event>
 4    1  0.5712137E+000  0.1000000E+03  0.7546771E-02  0.1280296E+00
         21   -1    0    0  503  502  0.00000000000E+00  0.00000000000E+00  0.71397278470E+02  0.71397278470E+02  0.00000000000E+00 0. -1.
         21   -1    0    0  501  503 -0.00000000000E+00 -0.00000000000E+00 -0.24569048719E+04  0.24569048719E+04  0.00000000000E+00 0.  1.
          6    1    1    2  501    0 -0.16719487118E+03  0.58191294405E+02 -0.22125095683E+04  0.22263126334E+04  0.17300000000E+03 0.  1.
         -6    1    1    2    0  502  0.16719487118E+03 -0.58191294405E+02 -0.17299802519E+03  0.30198951706E+03  0.17300000000E+03 0. -1.
</event>
<event>
 4    1  0.5712137E+000  0.1000000E+03  0.7546771E-02  0.1280296E+00
         21   -1    0    0  501  502  0.00000000000E+00  0.00000000000E+00  0.14091450403E+03  0.14091450403E+03  0.00000000000E+00 0. -1.
         21   -1    0    0  502  503 -0.00000000000E+00 -0.00000000000E+00 -0.42852657395E+03  0.42852657395E+03  0.00000000000E+00 0. -1.
          6    1    1    2  501    0 -0.46141499998E+02  0.80559684574E+02  0.27414403609E+02  0.19824088964E+03  0.17300000000E+03 0. -1.
         -6    1    1    2    0  503  0.46141499998E+02 -0.80559684574E+02 -0.31502647353E+03  0.37120018834E+03  0.17300000000E+03 0. -1.
</event>
<event>
 4    1  0.5712137E+000  0.1000000E+03  0.7546771E-02  0.1280296E+00
         21   -1    0    0  501  502  0.00000000000E+00  0.00000000000E+00  0.63789695172E+03  0.63789695172E+03  0.00000000000E+00 0.  1.
         21   -1    0    0  502  503 -0.00000000000E+00 -0.00000000000E+00 -0.16452478422E+03  0.16452478422E+03  0.00000000000E+00 0.  1.
          6    1    1    2  501    0 -0.52236013723E+01  0.46199889266E+02  0.57097639397E+03  0.59841854772E+03  0.17300000000E+03 0.  1.
         -6    1    1    2    0  503  0.52236013723E+01 -0.46199889266E+02 -0.97604226477E+02  0.20400318822E+03  0.17300000000E+03 0.  1.
</event>
<event>
 4    1  0.5712137E+000  0.1000000E+03  0.7546771E-02  0.1280296E+00
         21   -1    0    0  501  502  0.00000000000E+00  0.00000000000E+00  0.60327980969E+02  0.60327980969E+02  0.00000000000E+00 0.  1.
         21   -1    0    0  502  503 -0.00000000000E+00 -0.00000000000E+00 -0.97510821472E+03  0.97510821472E+03  0.00000000000E+00 0.  1.
          6    1    1    2  501    0 -0.14243666135E+03  0.60992789000E+02 -0.30813920755E+03  0.38585890431E+03  0.17300000000E+03 0.  1.
         -6    1    1    2    0  503  0.14243666135E+03 -0.60992789000E+02 -0.60664102620E+03  0.64957729138E+03  0.17300000000E+03 0.  1.
</event>
<event>
 4    1  0.5712137E+000  0.1000000E+03  0.7546771E-02  0.1280296E+00
         21   -1    0    0  501  502  0.00000000000E+00  0.00000000000E+00  0.56023115168E+02  0.56023115168E+02  0.00000000000E+00 0.  1.
         21   -1    0    0  502  503 -0.00000000000E+00 -0.00000000000E+00 -0.63584914825E+03  0.63584914825E+03  0.00000000000E+00 0. -1.
          6    1    1    2  501    0 -0.48410918225E+02  0.85760162371E+01 -0.18500399616E+03  0.25801675072E+03  0.17300000000E+03 0. -1.
         -6    1    1    2    0  503  0.48410918225E+02 -0.85760162371E+01 -0.39482203692E+03  0.43385551270E+03  0.17300000000E+03 0. -1.
</event>
<event>
 4    1  0.5712137E+000  0.1000000E+03  0.7546771E-02  0.1280296E+00
         21   -1    0    0  503  502  0.00000000000E+00  0.00000000000E+00  0.24441210450E+03  0.24441210450E+03  0.00000000000E+00 0.  1.
         21   -1    0    0  501  503 -0.00000000000E+00 -0.00000000000E+00 -0.24149839319E+03  0.24149839319E+03  0.00000000000E+00 0.  1.
          6    1    1    2  501    0  0.12710478339E+03  0.10536038196E+03 -0.41435575114E+02  0.24269804888E+03  0.17300000000E+03 0.  1.
         -6    1    1    2    0  502 -0.12710478339E+03 -0.10536038196E+03  0.44349286428E+02  0.24321244881E+03  0.17300000000E+03 0.  1.
</event>
<event>
 4    1  0.5712137E+000  0.1000000E+03  0.7546771E-02  0.1280296E+00
         21   -1    0    0  503  502  0.00000000000E+00  0.00000000000E+00  0.21491406966E+03  0.21491406966E+03  0.00000000000E+00 0.  1.
         21   -1    0    0  501  503 -0.00000000000E+00 -0.00000000000E+00 -0.37409118926E+03  0.37409118926E+03  0.00000000000E+00 0.  1.
          6    1    1    2  501    0 -0.16771755782E+03 -0.91023848257E+02 -0.20271946058E+03  0.32777843103E+03  0.17300000000E+03 0.  1.
         -6    1    1    2    0  502  0.16771755782E+03  0.91023848257E+02  0.43542340983E+02  0.26122682789E+03  0.17300000000E+03 0.  1.
</event>
<event>
 4    1  0.5712137E+000  0.1000000E+03  0.7546771E-02  0.1280296E+00
         21   -1    0    0  503  502  0.00000000000E+00  0.00000000000E+00  0.10851818337E+04  0.10851818337E+04  0.00000000000E+00 0. -1.
         21   -1    0    0  501  503 -0.00000000000E+00 -0.00000000000E+00 -0.41141182265E+02  0.41141182265E+02  0.00000000000E+00 0. -1.
          6    1    1    2  501    0  0.30061457290E+02  0.10752934852E+03  0.39558329128E+03  0.44596120050E+03  0.17300000000E+03 0.  1.
         -6    1    1    2    0  502 -0.30061457290E+02 -0.10752934852E+03  0.64845736011E+03  0.68036181542E+03  0.17300000000E+03 0.  1.
</event>
<event>
 4    1  0.5712137E+000  0.1000000E+03  0.7546771E-02  0.1280296E+00
         21   -1    0    0  503  502  0.00000000000E+00  0.00000000000E+00  0.12693081495E+04  0.12693081495E+04  0.00000000000E+00 0. -1.
         21   -1    0    0  501  503 -0.00000000000E+00 -0.00000000000E+00 -0.75869727381E+02  0.75869727381E+02  0.00000000000E+00 0. -1.
          6    1    1    2  501    0 -0.12785261966E+03  0.36822792883E+01  0.11201778559E+03  0.24256305536E+03  0.17300000000E+03 0.  1.
         -6    1    1    2    0  502  0.12785261966E+03 -0.36822792883E+01  0.10814206365E+04  0.11026148215E+04  0.17300000000E+03 0.  1.
</event>
<event>
 4    1  0.5712137E+000  0.1000000E+03  0.7546771E-02  0.1280296E+00
         21   -1    0    0  501  502  0.00000000000E+00  0.00000000000E+00  0.24375873049E+03  0.24375873049E+03  0.00000000000E+00 0. -1.
         21   -1    0    0  502  503 -0.00000000000E+00 -0.00000000000E+00 -0.38524857097E+03  0.38524857097E+03  0.00000000000E+00 0.  1.
          6    1    1    2  501    0 -0.72130998842E+01  0.95991872778E+01  0.18855531669E+03  0.25617626872E+03  0.17300000000E+03 0. -1.
         -6    1    1    2    0  503  0.72130998842E+01 -0.95991872778E+01 -0.33004515716E+03  0.37283103274E+03  0.17300000000E+03 0.  1.
</event>
<event>
 4    1  0.5712137E+000  0.1000000E+03  0.7546771E-02  0.1280296E+00
         21   -1    0    0  501  502  0.00000000000E+00  0.00000000000E+00  0.67009191550E+03  0.67009191550E+03  0.00000000000E+00 0. -1.
         21   -1    0    0  502  503 -0.00000000000E+00 -0.00000000000E+00 -0.37540638641E+03  0.37540638641E+03  0.00000000000E+00 0.  1.
          6    1    1    2  501    0 -0.24315762043E+03 -0.21489719463E+03  0.50281447113E+03  0.62294287460E+03  0.17300000000E+03 0. -1.
         -6    1    1    2    0  503  0.24315762043E+03  0.21489719463E+03 -0.20812894204E+03  0.42255542731E+03  0.17300000000E+03 0.  1.
</event>
<event>
 4    1  0.5712137E+000  0.1000000E+03  0.7546771E-02  0.1280296E+00
         21   -1    0    0  501  502  0.00000000000E+00  0.00000000000E+00  0.21576206050E+03  0.21576206050E+03  0.00000000000E+00 0.  1.
         21   -1    0    0  502  503 -0.00000000000E+00 -0.00000000000E+00 -0.21437158089E+03  0.21437158089E+03  0.00000000000E+00 0.  1.
          6    1    1    2  501    0 -0.42225246933E+02  0.18406130573E+02 -0.11847961200E+03  0.21468156786E+03  0.17300000000E+03 0.  1.
         -6    1    1    2    0  503  0.42225246933E+02 -0.18406130573E+02  0.11987009162E+03  0.21545207352E+03  0.17300000000E+03 0.  1.
</event>
<event>
 4    1  0.5712137E+000  0.1000000E+03  0.7546771E-02  0.1280296E+00
         21   -1    0    0  501  502  0.00000000000E+00  0.00000000000E+00  0.12018727316E+03  0.12018727316E+03  0.00000000000E+00 0.  1.
         21   -1    0    0  502  503 -0.00000000000E+00 -0.00000000000E+00 -0.46009595725E+03  0.46009595725E+03  0.00000000000E+00 0.  1.
          6    1    1    2  501    0 -0.14965489620E+03 -0.43763416845E+02 -0.21006539371E+03  0.31363720163E+03  0.17300000000E+03 0.  1.
         -6    1    1    2    0  503  0.14965489620E+03  0.43763416845E+02 -0.12984329038E+03  0.26664602879E+03  0.17300000000E+03 0.  1.
</event>
<event>
 4    1  0.5712137E+000  0.1000000E+03  0.7546771E-02  0.1280296E+00
         21   -1    0    0  501  502  0.00000000000E+00  0.00000000000E+00  0.29074149871E+03  0.29074149871E+03  0.00000000000E+00 0.  1.
         21   -1    0    0  502  503 -0.00000000000E+00 -0.00000000000E+00 -0.13601685575E+03  0.13601685575E+03  0.00000000000E+00 0.  1.
          6    1    1    2  501    0 -0.91468493508E+02 -0.25943828802E+02  0.10314076201E+03  0.22272535631E+03  0.17300000000E+03 0.  1.
         -6    1    1    2    0  503  0.91468493508E+02  0.25943828802E+02  0.51583880960E+02  0.20403299815E+03  0.17300000000E+03 0.  1.
</event>
<event>
 4    1  0.5712137E+000  0.1000000E+03  0.7546771E-02  0.1280296E+00
         21   -1    0    0  501  502  0.00000000000E+00  0.00000000000E+00  0.61218074129E+03  0.61218074129E+03  0.00000000000E+00 0.  1.
         21   -1    0    0  502  503 -0.00000000000E+00 -0.00000000000E+00 -0.22201935769E+03  0.22201935769E+03  0.00000000000E+00 0.  1.
          6    1    1    2  501    0 -0.28245098889E+03  0.12052116638E+03  0.31736854904E+03  0.47429495949E+03  0.17300000000E+03 0.  1.
         -6    1    1    2    0  503  0.28245098889E+03 -0.12052116638E+03  0.72792834560E+02  0.35990513950E+03  0.17300000000E+03 0.  1.
</event>
<event>
 4    1  0.5712137E+000  0.1000000E+03  0.7546771E-02  0.1280296E+00
         21   -1    0    0  501  502  0.00000000000E+00  0.00000000000E+00  0.29000458237E+02  0.29000458237E+02  0.00000000000E+00 0. -1.
         21   -1    0    0  502  503 -0.00000000000E+00 -0.00000000000E+00 -0.20335063394E+04  0.20335063394E+04  0.00000000000E+00 0. -1.
          6    1    1    2  501    0 -0.25741310398E+02  0.53050426446E+02 -0.32324143258E+03  0.37133675625E+03  0.17300000000E+03 0. -1.
         -6    1    1    2    0  503  0.25741310398E+02 -0.53050426446E+02 -0.16812644486E+04  0.16911700414E+04  0.17300000000E+03 0. -1.
</event>
<event>
 4    1  0.5712137E+000  0.1000000E+03  0.7546771E-02  0.1280296E+00
         21   -1    0    0  501  502  0.00000000000E+00  0.00000000000E+00  0.14843725790E+03  0.14843725790E+03  0.00000000000E+00 0. -1.
         21   -1    0    0  502  503 -0.00000000000E+00 -0.00000000000E+00 -0.31224734479E+03  0.31224734479E+03  0.00000000000E+00 0. -1.
          6    1    1    2  501    0  0.30358472078E+02  0.12021497182E+03 -0.47287370932E+02  0.21803296018E+03  0.17300000000E+03 0. -1.
         -6    1    1    2    0  503 -0.30358472078E+02 -0.12021497182E+03 -0.11652271596E+03  0.24265164251E+03  0.17300000000E+03 0. -1.
</event>
<event>
 4    1  0.5712137E+000  0.1000000E+03  0.7546771E-02  0.1280296E+00
         21   -1    0    0  503  502  0.00000000000E+00  0.00000000000E+00  0.27752595871E+03  0.27752595871E+03  0.00000000000E+00 0. -1.
         21   -1    0    0  501  503 -0.00000000000E+00 -0.00000000000E+00 -0.18342838112E+03  0.18342838112E+03  0.00000000000E+00 0.  1.
          6    1    1    2  501    0 -0.75832247406E+02 -0.14139450725E+02 -0.78171416038E+02  0.20491516317E+03  0.17300000000E+03 0.  1.
         -6    1    1    2    0  502  0.75832247406E+02  0.14139450725E+02  0.17226899363E+03  0.25603917665E+03  0.17300000000E+03 0. -1.
</event>
<event>
 4    1  0.5712137E+000  0.1000000E+03  0.7546771E-02  0.1280296E+00
         21   -1    0    0  503  502  0.00000000000E+00  0.00000000000E+00  0.97156048361E+02  0.97156048361E+02  0.00000000000E+00 0. -1.
         21   -1    0    0  501  503 -0.00000000000E+00 -0.00000000000E+00 -0.59621042926E+03  0.59621042926E+03  0.00000000000E+00 0.  1.
          6    1    1    2  501    0  0.13464702391E+03  0.36586551105E+02 -0.38254906789E+03  0.44242647538E+03  0.17300000000E+03 0.  1.
         -6    1    1    2    0  502 -0.13464702391E+03 -0.36586551105E+02 -0.11650531301E+03  0.25094000225E+03  0.17300000000E+03 0. -1.
</event>
<event>
 4    1  0.5712137E+000  0.1000000E+03  0.7546771E-02  0.1280296E+00
         21   -1    0    0  503  502  0.00000000000E+00  0.00000000000E+00  0.48558164555E+03  0.48558164555E+03  0.00000000000E+00 0. -1.
         21   -1    0    0  501  503 -0.00000000000E+00 -0.00000000000E+00 -0.28139120760E+03  0.28139120760E+03  0.00000000000E+00 0.  1.
          6    1    1    2  501    0  0.76534159403E+02  0.13282203077E+03 -0.19716706167E+03  0.30381412018E+03  0.17300000000E+03 0.  1.
         -6    1    1    2    0  502 -0.76534159403E+02 -0.13282203077E+03  0.40135749963E+03  0.46315873297E+03  0.17300000000E+03 0.  1.
</event>
<event>
 4    1  0.5712137E+000  0.1000000E+03  0.7546771E-02  0.1280296E+00
         21   -1    0    0  503  502  0.00000000000E+00  0.00000000000E+00  0.23537842627E+03  0.23537842627E+03  0.00000000000E+00 0. -1.
         21   -1    0    0  501  503 -0.00000000000E+00 -0.00000000000E+00 -0.53961618610E+03  0.53961618610E+03  0.00000000000E+00 0.  1.
          6    1    1    2  501    0 -0.13380963699E+03  0.13521576326E+03 -0.42043064086E+03  0.49282780498E+03  0.17300000000E+03 0.  1.
         -6    1    1    2    0  502  0.13380963699E+03 -0.13521576326E+03  0.11619288103E+03  0.28216680738E+03  0.17300000000E+03 0.  1.
</event>
<event>
 4    1  0.5712137E+000  0.1000000E+03  0.7546771E-02  0.1280296E+00
         21   -1    0    0  503  502  0.00000000000E+00  0.00000000000E+00  0.71355804798E+02  0.71355804798E+02  0.00000000000E+00 0. -1.
         21   -1    0    0  501  503 -0.00000000000E+00 -0.00000000000E+00 -0.50936355253E+03  0.50936355253E+03  0.00000000000E+00 0.  1.
          6    1    1    2  501    0  0.29616837904E+02  0.39255548571E+02 -0.31531523164E+03  0.36300254887E+03  0.17300000000E+03 0.  1.
         -6    1    1    2    0  502 -0.29616837904E+02 -0.39255548571E+02 -0.12269251609E+03  0.21771680846E+03  0.17300000000E+03 0.  1.
</event>
<event>
 4    1  0.5712137E+000  0.1000000E+03  0.7546771E-02  0.1280296E+00
         21   -1    0    0  501  502  0.00000000000E+00  0.00000000000E+00  0.88672677600E+03  0.88672677600E+03  0.00000000000E+00 0.  1.
         21   -1    0    0  502  503 -0.00000000000E+00 -0.00000000000E+00 -0.29437570243E+03  0.29437570243E+03  0.00000000000E+00 0.  1.
          6    1    1    2  501    0  0.21307700775E+02 -0.16533233715E+03  0.81736339137E+03  0.85193938363E+03  0.17300000000E+03 0.  1.
         -6    1    1    2    0  503 -0.21307700775E+02  0.16533233715E+03 -0.22501231781E+03  0.32916309481E+03  0.17300000000E+03 0.  1.
</event>
<event>
 4    1  0.5712137E+000  0.1000000E+03  0.7546771E-02  0.1280296E+00
         21   -1    0    0  501  502  0.00000000000E+00  0.00000000000E+00  0.31360095378E+03  0.31360095378E+03  0.00000000000E+00 0. -1.
         21   -1    0    0  502  503 -0.00000000000E+00 -0.00000000000E+00 -0.13527763339E+03  0.13527763339E+03  0.00000000000E+00 0. -1.
          6    1    1    2  501    0 -0.24139135217E+02  0.57880181496E+02  0.18998687006E+03  0.26449352365E+03  0.17300000000E+03 0. -1.
         -6    1    1    2    0  503  0.24139135217E+02 -0.57880181496E+02 -0.11663549661E+02  0.18438506352E+03  0.17300000000E+03 0. -1.
</event>
<event>
 4    1  0.5712137E+000  0.1000000E+03  0.7546771E-02  0.1280296E+00
         21   -1    0    0  503  502  0.00000000000E+00  0.00000000000E+00  0.59436967166E+03  0.59436967166E+03  0.00000000000E+00 0. -1.
         21   -1    0    0  501  503 -0.00000000000E+00 -0.00000000000E+00 -0.12378850271E+03  0.12378850271E+03  0.00000000000E+00 0. -1.
          6    1    1    2  501    0  0.56521093045E+02 -0.70112846637E+02 -0.14260868293E+02  0.19555770910E+03  0.17300000000E+03 0. -1.
         -6    1    1    2    0  502 -0.56521093045E+02  0.70112846637E+02  0.48484203724E+03  0.52260046527E+03  0.17300000000E+03 0. -1.
</event>
<event>
 4    1  0.5712137E+000  0.1000000E+03  0.7546771E-02  0.1280296E+00
         21   -1    0    0  503  502  0.00000000000E+00  0.00000000000E+00  0.10811016810E+03  0.10811016810E+03  0.00000000000E+00 0. -1.
         21   -1    0    0  501  503 -0.00000000000E+00 -0.00000000000E+00 -0.43357634343E+03  0.43357634343E+03  0.00000000000E+00 0. -1.
          6    1    1    2  501    0 -0.48503354342E+02  0.98907034899E+02 -0.24949258535E+03  0.32297171251E+03  0.17300000000E+03 0. -1.
         -6    1    1    2    0  502  0.48503354342E+02 -0.98907034899E+02 -0.75973589976E+02  0.21871479902E+03  0.17300000000E+03 0. -1.
</event>
<event>
 4    1  0.5712137E+000  0.1000000E+03  0.7546771E-02  0.1280296E+00
         21   -1    0    0  503  502  0.00000000000E+00  0.00000000000E+00  0.54420180713E+03  0.54420180713E+03  0.00000000000E+00 0. -1.
         21   -1    0    0  501  503 -0.00000000000E+00 -0.00000000000E+00 -0.12688916653E+03  0.12688916653E+03  0.00000000000E+00 0. -1.
          6    1    1    2  501    0  0.91871929651E+01  0.19613480075E+03  0.23917009148E+03  0.35452023530E+03  0.17300000000E+03 0. -1.
         -6    1    1    2    0  502 -0.91871929651E+01 -0.19613480075E+03  0.17814254912E+03  0.31657073836E+03  0.17300000000E+03 0. -1.
</event>
<event>
 4    1  0.5712137E+000  0.1000000E+03  0.7546771E-02  0.1280296E+00
         21   -1    0    0  503  502  0.00000000000E+00  0.00000000000E+00  0.23939867529E+04  0.23939867529E+04  0.00000000000E+00 0. -1.
         21   -1    0    0  501  503 -0.00000000000E+00 -0.00000000000E+00 -0.31816146454E+02  0.31816146454E+02  0.00000000000E+00 0. -1.
          6    1    1    2  501    0  0.14894314953E+03  0.14166909754E+03  0.90368080438E+03  0.94277366912E+03  0.17300000000E+03 0. -1.
         -6    1    1    2    0  502 -0.14894314953E+03 -0.14166909754E+03  0.14584898021E+04  0.14830292302E+04  0.17300000000E+03 0. -1.
</event>
<event>
 4    1  0.5712137E+000  0.1000000E+03  0.7546771E-02  0.1280296E+00
         21   -1    0    0  503  502  0.00000000000E+00  0.00000000000E+00  0.28265850681E+02  0.28265850681E+02  0.00000000000E+00 0. -1.
         21   -1    0    0  501  503 -0.00000000000E+00 -0.00000000000E+00 -0.20175884892E+04  0.20175884892E+04  0.00000000000E+00 0. -1.
          6    1    1    2  501    0  0.75631800784E+01 -0.15509190507E+03 -0.76046959070E+03  0.79520670212E+03  0.17300000000E+03 0. -1.
         -6    1    1    2    0  502 -0.75631800784E+01  0.15509190507E+03 -0.12288530478E+04  0.12506476378E+04  0.17300000000E+03 0. -1.
</event>
<event>
 4    1  0.5712137E+000  0.1000000E+03  0.7546771E-02  0.1280296E+00
         21   -1    0    0  503  502  0.00000000000E+00  0.00000000000E+00  0.64563587500E+02  0.64563587500E+02  0.00000000000E+00 0. -1.
         21   -1    0    0  501  503 -0.00000000000E+00 -0.00000000000E+00 -0.11052855856E+04  0.11052855856E+04  0.00000000000E+00 0. -1.
          6    1    1    2  501    0  0.51079170986E+02 -0.15300930522E+03 -0.79218516207E+03  0.82674497894E+03  0.17300000000E+03 0. -1.
         -6    1    1    2    0  502 -0.51079170986E+02  0.15300930522E+03 -0.24853683605E+03  0.34310419418E+03  0.17300000000E+03 0. -1.
</event>
<event>
 4    1  0.5712137E+000  0.1000000E+03  0.7546771E-02  0.1280296E+00
         21   -1    0    0  503  502  0.00000000000E+00  0.00000000000E+00  0.20268291831E+03  0.20268291831E+03  0.00000000000E+00 0. -1.
         21   -1    0    0  501  503 -0.00000000000E+00 -0.00000000000E+00 -0.25819769332E+03  0.25819769332E+03  0.00000000000E+00 0. -1.
          6    1    1    2  501    0 -0.90132492558E+02 -0.90195048925E+02 -0.10671756034E+03  0.23995135080E+03  0.17300000000E+03 0. -1.
         -6    1    1    2    0  502  0.90132492558E+02  0.90195048925E+02  0.51202785323E+02  0.22092926083E+03  0.17300000000E+03 0. -1.
</event>
<event>
 4    1  0.5712137E+000  0.1000000E+03  0.7546771E-02  0.1280296E+00
         21   -1    0    0  503  502  0.00000000000E+00  0.00000000000E+00  0.22219700346E+03  0.22219700346E+03  0.00000000000E+00 0. -1.
         21   -1    0    0  501  503 -0.00000000000E+00 -0.00000000000E+00 -0.25690234668E+03  0.25690234668E+03  0.00000000000E+00 0. -1.
          6    1    1    2  501    0 -0.29380330179E+01 -0.10326926423E+03 -0.14606823180E+03  0.24887366537E+03  0.17300000000E+03 0. -1.
         -6    1    1    2    0  502  0.29380330179E+01  0.10326926423E+03  0.11136288859E+03  0.23022568477E+03  0.17300000000E+03 0. -1.
</event>
<event>
 4    1  0.5712137E+000  0.1000000E+03  0.7546771E-02  0.1280296E+00
         21   -1    0    0  503  502  0.00000000000E+00  0.00000000000E+00  0.44543410306E+03  0.44543410306E+03  0.00000000000E+00 0.  1.
         21   -1    0    0  501  503 -0.00000000000E+00 -0.00000000000E+00 -0.20049501794E+03  0.20049501794E+03  0.00000000000E+00 0. -1.
          6    1    1    2  501    0 -0.11974940630E+02  0.63156697728E+02 -0.13154720825E+03  0.22664032225E+03  0.17300000000E+03 0. -1.
         -6    1    1    2    0  502  0.11974940630E+02 -0.63156697728E+02  0.37648629336E+03  0.41928879875E+03  0.17300000000E+03 0.  1.
</event>
<event>
 4    1  0.5712137E+000  0.1000000E+03  0.7546771E-02  0.1280296E+00
         21   -1    0    0  503  502  0.00000000000E+00  0.00000000000E+00  0.72222623088E+02  0.72222623088E+02  0.00000000000E+00 0.  1.
         21   -1    0    0  501  503 -0.00000000000E+00 -0.00000000000E+00 -0.71489548067E+03  0.71489548067E+03  0.00000000000E+00 0. -1.
          6    1    1    2  501    0  0.74414287981E+02  0.73464401567E+01 -0.54118089920E+03  0.57305952754E+03  0.17300000000E+03 0. -1.
         -6    1    1    2    0  502 -0.74414287981E+02 -0.73464401567E+01 -0.10149195838E+03  0.21405857622E+03  0.17300000000E+03 0.  1.
</event>
<event>
 4    1  0.5712137E+000  0.1000000E+03  0.7546771E-02  0.1280296E+00
         21   -1    0    0  503  502  0.00000000000E+00  0.00000000000E+00  0.10603900685E+03  0.10603900685E+03  0.00000000000E+00 0.  1.
         21   -1    0    0  501  503 -0.00000000000E+00 -0.00000000000E+00 -0.29641405833E+03  0.29641405833E+03  0.00000000000E+00 0. -1.
          6    1    1    2  501    0 -0.30316280680E+02 -0.48868999336E+01 -0.12203482588E+03  0.21392628962E+03  0.17300000000E+03 0. -1.
         -6    1    1    2    0  502  0.30316280680E+02  0.48868999336E+01 -0.68340225608E+02  0.18852677556E+03  0.17300000000E+03 0.  1.
</event>
<event>
 4    1  0.5712137E+000  0.1000000E+03  0.7546771E-02  0.1280296E+00
         21   -1    0    0  503  502  0.00000000000E+00  0.00000000000E+00  0.22736561640E+03  0.22736561640E+03  0.00000000000E+00 0.  1.
         21   -1    0    0  501  503 -0.00000000000E+00 -0.00000000000E+00 -0.26505791616E+03  0.26505791616E+03  0.00000000000E+00 0.  1.
          6    1    1    2  501    0  0.21751390035E+02  0.12545983079E+03 -0.13803506766E+03  0.25533501917E+03  0.17300000000E+03 0.  1.
         -6    1    1    2    0  502 -0.21751390035E+02 -0.12545983079E+03  0.10034276791E+03  0.23708851339E+03  0.17300000000E+03 0.  1.
</event>
<event>
 4    1  0.5712137E+000  0.1000000E+03  0.7546771E-02  0.1280296E+00
         21   -1    0    0  503  502  0.00000000000E+00  0.00000000000E+00  0.70372224598E+03  0.70372224598E+03  0.00000000000E+00 0.  1.
         21   -1    0    0  501  503 -0.00000000000E+00 -0.00000000000E+00 -0.14912112778E+03  0.14912112778E+03  0.00000000000E+00 0.  1.
          6    1    1    2  501    0 -0.52616252982E+02 -0.20488032744E+03  0.48293063024E+02  0.27749889835E+03  0.17300000000E+03 0.  1.
         -6    1    1    2    0  502  0.52616252982E+02  0.20488032744E+03  0.50630805517E+03  0.57534447541E+03  0.17300000000E+03 0.  1.
</event>
<event>
 4    1  0.5712137E+000  0.1000000E+03  0.7546771E-02  0.1280296E+00
         21   -1    0    0  503  502  0.00000000000E+00  0.00000000000E+00  0.51360542540E+02  0.51360542540E+02  0.00000000000E+00 0.  1.
         21   -1    0    0  501  503 -0.00000000000E+00 -0.00000000000E+00 -0.62407756873E+03  0.62407756873E+03  0.00000000000E+00 0.  1.
          6    1    1    2  501    0 -0.25156776300E+02 -0.37822801666E+02 -0.27168196149E+03  0.32527452393E+03  0.17300000000E+03 0.  1.
         -6    1    1    2    0  502  0.25156776300E+02  0.37822801666E+02 -0.30103506470E+03  0.35016358734E+03  0.17300000000E+03 0.  1.
</event>
<event>
 4    1  0.5712137E+000  0.1000000E+03  0.7546771E-02  0.1280296E+00
         21   -1    0    0  503  502  0.00000000000E+00  0.00000000000E+00  0.50793149100E+02  0.50793149100E+02  0.00000000000E+00 0. -1.
         21   -1    0    0  501  503 -0.00000000000E+00 -0.00000000000E+00 -0.81262962052E+03  0.81262962052E+03  0.00000000000E+00 0. -1.
          6    1    1    2  501    0  0.13490806503E+02 -0.96918763080E+02 -0.47036160592E+03  0.51063126502E+03  0.17300000000E+03 0. -1.
         -6    1    1    2    0  502 -0.13490806503E+02  0.96918763080E+02 -0.29147486551E+03  0.35279150460E+03  0.17300000000E+03 0. -1.
</event>
<event>
 4    1  0.5712137E+000  0.1000000E+03  0.7546771E-02  0.1280296E+00
         21   -1    0    0  503  502  0.00000000000E+00  0.00000000000E+00  0.64245583949E+03  0.64245583949E+03  0.00000000000E+00 0. -1.
         21   -1    0    0  501  503 -0.00000000000E+00 -0.00000000000E+00 -0.66577567328E+02  0.66577567328E+02  0.00000000000E+00 0. -1.
          6    1    1    2  501    0  0.73497065213E+02 -0.58914211824E+02  0.17991387619E+03  0.26677838330E+03  0.17300000000E+03 0. -1.
         -6    1    1    2    0  502 -0.73497065213E+02  0.58914211824E+02  0.39596439597E+03  0.44225502352E+03  0.17300000000E+03 0. -1.
</event>
<event>
 4    1  0.5712137E+000  0.1000000E+03  0.7546771E-02  0.1280296E+00
         21   -1    0    0  503  502  0.00000000000E+00  0.00000000000E+00  0.46369441866E+03  0.46369441866E+03  0.00000000000E+00 0.  1.
         21   -1    0    0  501  503 -0.00000000000E+00 -0.00000000000E+00 -0.15310527212E+03  0.15310527212E+03  0.00000000000E+00 0. -1.
          6    1    1    2  501    0 -0.98547672491E+02  0.76235716837E+02 -0.29686210401E+02  0.21525287307E+03  0.17300000000E+03 0. -1.
         -6    1    1    2    0  502  0.98547672491E+02 -0.76235716837E+02  0.34027535694E+03  0.40154681771E+03  0.17300000000E+03 0.  1.
</event>
<event>
 4    1  0.5712137E+000  0.1000000E+03  0.7546771E-02  0.1280296E+00
         21   -1    0    0  503  502  0.00000000000E+00  0.00000000000E+00  0.24405436646E+03  0.24405436646E+03  0.00000000000E+00 0.  1.
         21   -1    0    0  501  503 -0.00000000000E+00 -0.00000000000E+00 -0.54626086773E+03  0.54626086773E+03  0.00000000000E+00 0. -1.
          6    1    1    2  501    0  0.41815864206E+02 -0.69096439404E+02 -0.48793382567E+03  0.52395734814E+03  0.17300000000E+03 0. -1.
         -6    1    1    2    0  502 -0.41815864206E+02  0.69096439404E+02  0.18572732439E+03  0.26635788605E+03  0.17300000000E+03 0.  1.
</event>
<event>
 4    1  0.5712137E+000  0.1000000E+03  0.7546771E-02  0.1280296E+00
         21   -1    0    0  503  502  0.00000000000E+00  0.00000000000E+00  0.25246316663E+03  0.25246316663E+03  0.00000000000E+00 0.  1.
         21   -1    0    0  501  503 -0.00000000000E+00 -0.00000000000E+00 -0.34048365896E+03  0.34048365896E+03  0.00000000000E+00 0.  1.
          6    1    1    2  501    0 -0.13913160873E+03  0.15103526505E+03 -0.16306342779E+03  0.31414636290E+03  0.17300000000E+03 0.  1.
         -6    1    1    2    0  502  0.13913160873E+03 -0.15103526505E+03  0.75042935457E+02  0.27880046270E+03  0.17300000000E+03 0.  1.
</event>
<event>
 4    1  0.5712137E+000  0.1000000E+03  0.7546771E-02  0.1280296E+00
         21   -1    0    0  503  502  0.00000000000E+00  0.00000000000E+00  0.91990718468E+02  0.91990718468E+02  0.00000000000E+00 0.  1.
         21   -1    0    0  501  503 -0.00000000000E+00 -0.00000000000E+00 -0.61503833417E+03  0.61503833417E+03  0.00000000000E+00 0.  1.
          6    1    1    2  501    0  0.14549224437E+03  0.32783966497E+02 -0.36017633550E+03  0.42649592528E+03  0.17300000000E+03 0.  1.
         -6    1    1    2    0  502 -0.14549224437E+03 -0.32783966497E+02 -0.16287128021E+03  0.28053312736E+03  0.17300000000E+03 0.  1.
</event>
<event>
 4    1  0.5712137E+000  0.1000000E+03  0.7546771E-02  0.1280296E+00
         21   -1    0    0  501  502  0.00000000000E+00  0.00000000000E+00  0.24948984993E+03  0.24948984993E+03  0.00000000000E+00 0.  1.
         21   -1    0    0  502  503 -0.00000000000E+00 -0.00000000000E+00 -0.16852158799E+03  0.16852158799E+03  0.00000000000E+00 0.  1.
          6    1    1    2  501    0  0.79959123336E+02  0.64464137521E+02  0.80825150990E+02  0.21681972111E+03  0.17300000000E+03 0.  1.
         -6    1    1    2    0  503 -0.79959123336E+02 -0.64464137521E+02  0.14311095820E+00  0.20119171681E+03  0.17300000000E+03 0.  1.
</event>
<event>
 4    1  0.5712137E+000  0.1000000E+03  0.7546771E-02  0.1280296E+00
         21   -1    0    0  501  502  0.00000000000E+00  0.00000000000E+00  0.20312756082E+04  0.20312756082E+04  0.00000000000E+00 0.  1.
         21   -1    0    0  502  503 -0.00000000000E+00 -0.00000000000E+00 -0.49645927372E+02  0.49645927372E+02  0.00000000000E+00 0.  1.
          6    1    1    2  501    0  0.77093978376E+02  0.11058754138E+03  0.17432684389E+04  0.17570107956E+04  0.17300000000E+03 0.  1.
         -6    1    1    2    0  503 -0.77093978376E+02 -0.11058754138E+03  0.23836124192E+03  0.32391073996E+03  0.17300000000E+03 0.  1.
</event>
<event>
 4    1  0.5712137E+000  0.1000000E+03  0.7546771E-02  0.1280296E+00
         21   -1    0    0  501  502  0.00000000000E+00  0.00000000000E+00  0.15658113114E+03  0.15658113114E+03  0.00000000000E+00 0.  1.
         21   -1    0    0  502  503 -0.00000000000E+00 -0.00000000000E+00 -0.40664585355E+03  0.40664585355E+03  0.00000000000E+00 0.  1.
          6    1    1    2  501    0 -0.10873004758E+03  0.22872354439E+02  0.38223681491E+02  0.20913014529E+03  0.17300000000E+03 0.  1.
         -6    1    1    2    0  503  0.10873004758E+03 -0.22872354439E+02 -0.28828840391E+03  0.35409683940E+03  0.17300000000E+03 0.  1.
</event>
<event>
 4    1  0.5712137E+000  0.1000000E+03  0.7546771E-02  0.1280296E+00
         21   -1    0    0  503  502  0.00000000000E+00  0.00000000000E+00  0.61640195655E+03  0.61640195655E+03  0.00000000000E+00 0.  1.
         21   -1    0    0  501  503 -0.00000000000E+00 -0.00000000000E+00 -0.19001291983E+03  0.19001291983E+03  0.00000000000E+00 0.  1.
          6    1    1    2  501    0  0.18075069984E+03  0.11549332418E+03 -0.25905044541E+02  0.27678438315E+03  0.17300000000E+03 0.  1.
         -6    1    1    2    0  502 -0.18075069984E+03 -0.11549332418E+03  0.45229408126E+03  0.52963049323E+03  0.17300000000E+03 0.  1.
</event>
<event>
 4    1  0.5712137E+000  0.1000000E+03  0.7546771E-02  0.1280296E+00
         21   -1    0    0  503  502  0.00000000000E+00  0.00000000000E+00  0.17048374495E+04  0.17048374495E+04  0.00000000000E+00 0.  1.
         21   -1    0    0  501  503 -0.00000000000E+00 -0.00000000000E+00 -0.17621825199E+03  0.17621825199E+03  0.00000000000E+00 0.  1.
          6    1    1    2  501    0  0.38698027753E+03  0.34518611428E+03  0.69594482183E+03  0.88497196776E+03  0.17300000000E+03 0.  1.
         -6    1    1    2    0  502 -0.38698027753E+03 -0.34518611428E+03  0.83267437563E+03  0.99608373369E+03  0.17300000000E+03 0.  1.
</event>
<event>
 4    1  0.5712137E+000  0.1000000E+03  0.7546771E-02  0.1280296E+00
         21   -1    0    0  503  502  0.00000000000E+00  0.00000000000E+00  0.26086932400E+03  0.26086932400E+03  0.00000000000E+00 0.  1.
         21   -1    0    0  501  503 -0.00000000000E+00 -0.00000000000E+00 -0.20788255907E+03  0.20788255907E+03  0.00000000000E+00 0.  1.
          6    1    1    2  501    0  0.10358896462E+03 -0.47499408718E+02 -0.80561538086E+02  0.22227466981E+03  0.17300000000E+03 0.  1.
         -6    1    1    2    0  502 -0.10358896462E+03  0.47499408718E+02  0.13354830302E+03  0.24647721327E+03  0.17300000000E+03 0.  1.
</event>
<event>
 4    1  0.5712137E+000  0.1000000E+03  0.7546771E-02  0.1280296E+00
         21   -1    0    0  503  502  0.00000000000E+00  0.00000000000E+00  0.46520599937E+02  0.46520599937E+02  0.00000000000E+00 0.  1.
         21   -1    0    0  501  503 -0.00000000000E+00 -0.00000000000E+00 -0.87826979520E+03  0.87826979520E+03  0.00000000000E+00 0.  1.
          6    1    1    2  501    0  0.13104376746E+02  0.10109253113E+03 -0.36285333800E+03  0.41470829439E+03  0.17300000000E+03 0.  1.
         -6    1    1    2    0  502 -0.13104376746E+02 -0.10109253113E+03 -0.46889585727E+03  0.51008210075E+03  0.17300000000E+03 0.  1.
</event>
<event>
 4    1  0.5712137E+000  0.1000000E+03  0.7546771E-02  0.1280296E+00
         21   -1    0    0  503  502  0.00000000000E+00  0.00000000000E+00  0.47367360426E+03  0.47367360426E+03  0.00000000000E+00 0.  1.
         21   -1    0    0  501  503 -0.00000000000E+00 -0.00000000000E+00 -0.10054409231E+03  0.10054409231E+03  0.00000000000E+00 0.  1.
          6    1    1    2  501    0 -0.93948092971E+02 -0.83410968053E+02  0.24409862998E+03  0.32449464544E+03  0.17300000000E+03 0.  1.
         -6    1    1    2    0  502  0.93948092971E+02  0.83410968053E+02  0.12903088197E+03  0.24972305113E+03  0.17300000000E+03 0.  1.
</event>
<event>
 4    1  0.5712137E+000  0.1000000E+03  0.7546771E-02  0.1280296E+00
         21   -1    0    0  501  502  0.00000000000E+00  0.00000000000E+00  0.64616397083E+02  0.64616397083E+02  0.00000000000E+00 0.  1.
         21   -1    0    0  502  503 -0.00000000000E+00 -0.00000000000E+00 -0.10737428796E+04  0.10737428796E+04  0.00000000000E+00 0. -1.
          6    1    1    2  501    0  0.17235207032E+03  0.66740952499E+02 -0.66176985044E+03  0.70853929025E+03  0.17300000000E+03 0. -1.
         -6    1    1    2    0  503 -0.17235207032E+03 -0.66740952499E+02 -0.34735663206E+03  0.42981998641E+03  0.17300000000E+03 0. -1.
</event>
<event>
 4    1  0.5712137E+000  0.1000000E+03  0.7546771E-02  0.1280296E+00
         21   -1    0    0  501  502  0.00000000000E+00  0.00000000000E+00  0.73095184754E+02  0.73095184754E+02  0.00000000000E+00 0.  1.
         21   -1    0    0  502  503 -0.00000000000E+00 -0.00000000000E+00 -0.10218532003E+04  0.10218532003E+04  0.00000000000E+00 0. -1.
          6    1    1    2  501    0 -0.18271450499E+03 -0.92338121243E+02 -0.58137011887E+03  0.64018054803E+03  0.17300000000E+03 0. -1.
         -6    1    1    2    0  503  0.18271450499E+03  0.92338121243E+02 -0.36738789670E+03  0.45476783704E+03  0.17300000000E+03 0. -1.
</event>
<event>
 4    1  0.5712137E+000  0.1000000E+03  0.7546771E-02  0.1280296E+00
         21   -1    0    0  503  502  0.00000000000E+00  0.00000000000E+00  0.24903291391E+03  0.24903291391E+03  0.00000000000E+00 0. -1.
         21   -1    0    0  501  503 -0.00000000000E+00 -0.00000000000E+00 -0.12259519274E+04  0.12259519274E+04  0.00000000000E+00 0.  1.
          6    1    1    2  501    0 -0.45775643914E+03 -0.25656521958E+03 -0.48500173174E+03  0.73520225058E+03  0.17300000000E+03 0.  1.
         -6    1    1    2    0  502  0.45775643914E+03  0.25656521958E+03 -0.49191728176E+03  0.73978259074E+03  0.17300000000E+03 0.  1.
</event>
<event>
 4    1  0.5712137E+000  0.1000000E+03  0.7546771E-02  0.1280296E+00
         21   -1    0    0  503  502  0.00000000000E+00  0.00000000000E+00  0.88338311183E+03  0.88338311183E+03  0.00000000000E+00 0. -1.
         21   -1    0    0  501  503 -0.00000000000E+00 -0.00000000000E+00 -0.51988695824E+02  0.51988695824E+02  0.00000000000E+00 0.  1.
          6    1    1    2  501    0 -0.49667728502E+02 -0.11129810450E+03  0.34192250701E+03  0.40211211387E+03  0.17300000000E+03 0.  1.
         -6    1    1    2    0  502  0.49667728502E+02  0.11129810450E+03  0.48947190900E+03  0.53325969379E+03  0.17300000000E+03 0.  1.
</event>
<event>
 4    1  0.5712137E+000  0.1000000E+03  0.7546771E-02  0.1280296E+00
         21   -1    0    0  501  502  0.00000000000E+00  0.00000000000E+00  0.12372107853E+03  0.12372107853E+03  0.00000000000E+00 0. -1.
         21   -1    0    0  502  503 -0.00000000000E+00 -0.00000000000E+00 -0.41378596437E+03  0.41378596437E+03  0.00000000000E+00 0.  1.
          6    1    1    2  501    0  0.12110089942E+03  0.76797317347E+02 -0.11356597294E+03  0.25177268716E+03  0.17300000000E+03 0. -1.
         -6    1    1    2    0  503 -0.12110089942E+03 -0.76797317347E+02 -0.17649891290E+03  0.28573435573E+03  0.17300000000E+03 0.  1.
</event>
<event>
 4    1  0.5712137E+000  0.1000000E+03  0.7546771E-02  0.1280296E+00
         21   -1    0    0  501  502  0.00000000000E+00  0.00000000000E+00  0.65178102097E+03  0.65178102097E+03  0.00000000000E+00 0. -1.
         21   -1    0    0  502  503 -0.00000000000E+00 -0.00000000000E+00 -0.13280620637E+03  0.13280620637E+03  0.00000000000E+00 0. -1.
          6    1    1    2  501    0  0.10410225885E+02  0.86921596334E+02 -0.35570065433E+02  0.19712424069E+03  0.17300000000E+03 0. -1.
         -6    1    1    2    0  503 -0.10410225885E+02 -0.86921596334E+02  0.55454488004E+03  0.58746298666E+03  0.17300000000E+03 0. -1.
</event>
<event>
 4    1  0.5712137E+000  0.1000000E+03  0.7546771E-02  0.1280296E+00
         21   -1    0    0  501  502  0.00000000000E+00  0.00000000000E+00  0.21490528605E+03  0.21490528605E+03  0.00000000000E+00 0. -1.
         21   -1    0    0  502  503 -0.00000000000E+00 -0.00000000000E+00 -0.17691576507E+03  0.17691576507E+03  0.00000000000E+00 0. -1.
          6    1    1    2  501    0  0.10779420138E+02 -0.75503512000E+02  0.66908620904E+02  0.20055607638E+03  0.17300000000E+03 0. -1.
         -6    1    1    2    0  503 -0.10779420138E+02  0.75503512000E+02 -0.28919099922E+02  0.19126497474E+03  0.17300000000E+03 0. -1.
</event>
<event>
 4    1  0.5712137E+000  0.1000000E+03  0.7546771E-02  0.1280296E+00
         21   -1    0    0  501  502  0.00000000000E+00  0.00000000000E+00  0.83218368915E+02  0.83218368915E+02  0.00000000000E+00 0.  1.
         21   -1    0    0  502  503 -0.00000000000E+00 -0.00000000000E+00 -0.53384594315E+03  0.53384594315E+03  0.00000000000E+00 0. -1.
          6    1    1    2  501    0  0.10345081648E+03 -0.55632936412E+02 -0.26403391748E+03  0.33680855782E+03  0.17300000000E+03 0. -1.
         -6    1    1    2    0  503 -0.10345081648E+03  0.55632936412E+02 -0.18659365675E+03  0.28025575424E+03  0.17300000000E+03 0. -1.
</event>
<event>
 4    1  0.5712137E+000  0.1000000E+03  0.7546771E-02  0.1280296E+00
         21   -1    0    0  503  502  0.00000000000E+00  0.00000000000E+00  0.33176065254E+03  0.33176065254E+03  0.00000000000E+00 0. -1.
         21   -1    0    0  501  503 -0.00000000000E+00 -0.00000000000E+00 -0.33471098428E+03  0.33471098428E+03  0.00000000000E+00 0.  1.
          6    1    1    2  501    0 -0.23408982741E+03 -0.68492398888E+01 -0.16355690446E+03  0.33395332066E+03  0.17300000000E+03 0.  1.
         -6    1    1    2    0  502  0.23408982741E+03  0.68492398888E+01  0.16060657272E+03  0.33251831616E+03  0.17300000000E+03 0. -1.
</event>
<event>
 4    1  0.5712137E+000  0.1000000E+03  0.7546771E-02  0.1280296E+00
         21   -1    0    0  501  502  0.00000000000E+00  0.00000000000E+00  0.46093322571E+03  0.46093322571E+03  0.00000000000E+00 0.  1.
         21   -1    0    0  502  503 -0.00000000000E+00 -0.00000000000E+00 -0.17666325734E+03  0.17666325734E+03  0.00000000000E+00 0.  1.
          6    1    1    2  501    0 -0.99658886380E+02 -0.13223798761E+03  0.31550410498E+03  0.39609420503E+03  0.17300000000E+03 0.  1.
         -6    1    1    2    0  503  0.99658886380E+02  0.13223798761E+03 -0.31234136606E+02  0.24150227803E+03  0.17300000000E+03 0.  1.
</event>
<event>
 4    1  0.5712137E+000  0.1000000E+03  0.7546771E-02  0.1280296E+00
         21   -1    0    0  501  502  0.00000000000E+00  0.00000000000E+00  0.40823974633E+03  0.40823974633E+03  0.00000000000E+00 0.  1.
         21   -1    0    0  502  503 -0.00000000000E+00 -0.00000000000E+00 -0.15161174210E+03  0.15161174210E+03  0.00000000000E+00 0.  1.
          6    1    1    2  501    0  0.28608649686E+02  0.16923938666E+03  0.18462335519E+03  0.30573715528E+03  0.17300000000E+03 0.  1.
         -6    1    1    2    0  503 -0.28608649686E+02 -0.16923938666E+03  0.72004649038E+02  0.25411433316E+03  0.17300000000E+03 0.  1.
</event>
<event>
 4    1  0.5712137E+000  0.1000000E+03  0.7546771E-02  0.1280296E+00
         21   -1    0    0  501  502  0.00000000000E+00  0.00000000000E+00  0.40012898855E+03  0.40012898855E+03  0.00000000000E+00 0. -1.
         21   -1    0    0  502  503 -0.00000000000E+00 -0.00000000000E+00 -0.98845463209E+03  0.98845463209E+03  0.00000000000E+00 0.  1.
          6    1    1    2  501    0 -0.16376390542E+03  0.16557818608E+03  0.32184330257E+03  0.43329766193E+03  0.17300000000E+03 0. -1.
         -6    1    1    2    0  503  0.16376390542E+03 -0.16557818608E+03 -0.91016894611E+03  0.95528595870E+03  0.17300000000E+03 0.  1.
</event>
<event>
 4    1  0.5712137E+000  0.1000000E+03  0.7546771E-02  0.1280296E+00
         21   -1    0    0  503  502  0.00000000000E+00  0.00000000000E+00  0.26127677005E+02  0.26127677005E+02  0.00000000000E+00 0.  1.
         21   -1    0    0  501  503 -0.00000000000E+00 -0.00000000000E+00 -0.18248682943E+04  0.18248682943E+04  0.00000000000E+00 0.  1.
          6    1    1    2  501    0 -0.22651309296E+02 -0.29692426471E+02 -0.14414284108E+04  0.14522532787E+04  0.17300000000E+03 0.  1.
         -6    1    1    2    0  502  0.22651309296E+02  0.29692426471E+02 -0.35731220647E+03  0.39874269259E+03  0.17300000000E+03 0.  1.
</event>
<event>
 4    1  0.5712137E+000  0.1000000E+03  0.7546771E-02  0.1280296E+00
         21   -1    0    0  503  502  0.00000000000E+00  0.00000000000E+00  0.24115180836E+03  0.24115180836E+03  0.00000000000E+00 0.  1.
         21   -1    0    0  501  503 -0.00000000000E+00 -0.00000000000E+00 -0.30401956921E+03  0.30401956921E+03  0.00000000000E+00 0.  1.
          6    1    1    2  501    0 -0.89724808050E+02 -0.45900080568E+02 -0.21494502992E+03  0.29374772248E+03  0.17300000000E+03 0.  1.
         -6    1    1    2    0  502  0.89724808050E+02  0.45900080568E+02  0.15207726906E+03  0.25142365509E+03  0.17300000000E+03 0.  1.
</event>
<event>
 4    1  0.5712137E+000  0.1000000E+03  0.7546771E-02  0.1280296E+00
         21   -1    0    0  501  502  0.00000000000E+00  0.00000000000E+00  0.29134739249E+02  0.29134739249E+02  0.00000000000E+00 0.  1.
         21   -1    0    0  502  503 -0.00000000000E+00 -0.00000000000E+00 -0.20471728170E+04  0.20471728170E+04  0.00000000000E+00 0.  1.
          6    1    1    2  501    0 -0.56161454014E+02  0.76462211489E+02 -0.39721314247E+03  0.44351759746E+03  0.17300000000E+03 0.  1.
         -6    1    1    2    0  503  0.56161454014E+02 -0.76462211489E+02 -0.16208249352E+04  0.16327899588E+04  0.17300000000E+03 0.  1.
</event>
<event>
 4    1  0.5712137E+000  0.1000000E+03  0.7546771E-02  0.1280296E+00
         21   -1    0    0  501  502  0.00000000000E+00  0.00000000000E+00  0.39439314305E+03  0.39439314305E+03  0.00000000000E+00 0.  1.
         21   -1    0    0  502  503 -0.00000000000E+00 -0.00000000000E+00 -0.14710794941E+03  0.14710794941E+03  0.00000000000E+00 0.  1.
          6    1    1    2  501    0 -0.26945204219E+02 -0.78832598061E+01  0.30937055139E+03  0.35556620746E+03  0.17300000000E+03 0.  1.
         -6    1    1    2    0  503  0.26945204219E+02  0.78832598061E+01 -0.62085357751E+02  0.18593488501E+03  0.17300000000E+03 0.  1.
</event>
<event>
 4    1  0.5712137E+000  0.1000000E+03  0.7546771E-02  0.1280296E+00
         21   -1    0    0  501  502  0.00000000000E+00  0.00000000000E+00  0.46367770174E+02  0.46367770174E+02  0.00000000000E+00 0.  1.
         21   -1    0    0  502  503 -0.00000000000E+00 -0.00000000000E+00 -0.78673799499E+03  0.78673799499E+03  0.00000000000E+00 0.  1.
          6    1    1    2  501    0 -0.31003843167E+02  0.31199679216E+02 -0.22201439340E+03  0.28487549763E+03  0.17300000000E+03 0.  1.
         -6    1    1    2    0  503  0.31003843167E+02 -0.31199679216E+02 -0.51835583142E+03  0.54823026754E+03  0.17300000000E+03 0.  1.
</event>
<event>
 4    1  0.5712137E+000  0.1000000E+03  0.7546771E-02  0.1280296E+00
         21   -1    0    0  501  502  0.00000000000E+00  0.00000000000E+00  0.13613169876E+04  0.13613169876E+04  0.00000000000E+00 0.  1.
         21   -1    0    0  502  503 -0.00000000000E+00 -0.00000000000E+00 -0.39441842649E+02  0.39441842649E+02  0.00000000000E+00 0.  1.
          6    1    1    2  501    0 -0.35164466262E+02 -0.64005566974E+01  0.11141841824E+04  0.11281014578E+04  0.17300000000E+03 0.  1.
         -6    1    1    2    0  503  0.35164466262E+02  0.64005566974E+01  0.20769096252E+03  0.27265737241E+03  0.17300000000E+03 0.  1.
</event>
<event>
 4    1  0.5712137E+000  0.1000000E+03  0.7546771E-02  0.1280296E+00
         21   -1    0    0  503  502  0.00000000000E+00  0.00000000000E+00  0.25994725811E+02  0.25994725811E+02  0.00000000000E+00 0.  1.
         21   -1    0    0  501  503 -0.00000000000E+00 -0.00000000000E+00 -0.25884179843E+04  0.25884179843E+04  0.00000000000E+00 0. -1.
          6    1    1    2  501    0  0.72113706843E+01 -0.14250051529E+03 -0.19382350872E+04  0.19511644354E+04  0.17300000000E+03 0. -1.
         -6    1    1    2    0  502 -0.72113706843E+01  0.14250051529E+03 -0.62418817128E+03  0.66324827470E+03  0.17300000000E+03 0.  1.
</event>
<event>
 4    1  0.5712137E+000  0.1000000E+03  0.7546771E-02  0.1280296E+00
         21   -1    0    0  503  502  0.00000000000E+00  0.00000000000E+00  0.13890983767E+04  0.13890983767E+04  0.00000000000E+00 0.  1.
         21   -1    0    0  501  503 -0.00000000000E+00 -0.00000000000E+00 -0.31370487376E+02  0.31370487376E+02  0.00000000000E+00 0. -1.
          6    1    1    2  501    0 -0.50299423529E+02  0.92391971785E+02  0.50600138152E+03  0.54500707019E+03  0.17300000000E+03 0. -1.
         -6    1    1    2    0  502  0.50299423529E+02 -0.92391971785E+02  0.85172650780E+03  0.87546179389E+03  0.17300000000E+03 0.  1.
</event>
<event>
 4    1  0.5712137E+000  0.1000000E+03  0.7546771E-02  0.1280296E+00
         21   -1    0    0  501  502  0.00000000000E+00  0.00000000000E+00  0.31492700080E+03  0.31492700080E+03  0.00000000000E+00 0.  1.
         21   -1    0    0  502  503 -0.00000000000E+00 -0.00000000000E+00 -0.15938880094E+03  0.15938880094E+03  0.00000000000E+00 0.  1.
          6    1    1    2  501    0  0.13743685204E+03 -0.25871221636E+02  0.49590909745E+02  0.22791767535E+03  0.17300000000E+03 0.  1.
         -6    1    1    2    0  503 -0.13743685204E+03  0.25871221636E+02  0.10594729011E+03  0.24639812639E+03  0.17300000000E+03 0.  1.
</event>
<event>
 4    1  0.5712137E+000  0.1000000E+03  0.7546771E-02  0.1280296E+00
         21   -1    0    0  501  502  0.00000000000E+00  0.00000000000E+00  0.48675380093E+03  0.48675380093E+03  0.00000000000E+00 0. -1.
         21   -1    0    0  502  503 -0.00000000000E+00 -0.00000000000E+00 -0.24405922037E+03  0.24405922037E+03  0.00000000000E+00 0. -1.
          6    1    1    2  501    0 -0.11367951412E+03  0.41457935446E+01  0.41347559742E+03  0.46241895419E+03  0.17300000000E+03 0.  1.
         -6    1    1    2    0  503  0.11367951412E+03 -0.41457935446E+01 -0.17078101687E+03  0.26839406710E+03  0.17300000000E+03 0.  1.
</event>
<event>
 4    1  0.5712137E+000  0.1000000E+03  0.7546771E-02  0.1280296E+00
         21   -1    0    0  501  502  0.00000000000E+00  0.00000000000E+00  0.24295554368E+02  0.24295554368E+02  0.00000000000E+00 0. -1.
         21   -1    0    0  502  503 -0.00000000000E+00 -0.00000000000E+00 -0.18221168039E+04  0.18221168039E+04  0.00000000000E+00 0. -1.
          6    1    1    2  501    0  0.36209000134E+02 -0.33124414119E+02 -0.41961422776E+03  0.45652318522E+03  0.17300000000E+03 0.  1.
         -6    1    1    2    0  503 -0.36209000134E+02  0.33124414119E+02 -0.13782070217E+04  0.13898891730E+04  0.17300000000E+03 0.  1.
</event>
<event>
 4    1  0.5712137E+000  0.1000000E+03  0.7546771E-02  0.1280296E+00
         21   -1    0    0  501  502  0.00000000000E+00  0.00000000000E+00  0.15357801026E+04  0.15357801026E+04  0.00000000000E+00 0. -1.
         21   -1    0    0  502  503 -0.00000000000E+00 -0.00000000000E+00 -0.48827224351E+02  0.48827224351E+02  0.00000000000E+00 0. -1.
          6    1    1    2  501    0 -0.66511368011E+02 -0.90262536408E+02  0.12649787362E+04  0.12816673869E+04  0.17300000000E+03 0. -1.
         -6    1    1    2    0  503  0.66511368011E+02  0.90262536408E+02  0.22197414206E+03  0.30293994008E+03  0.17300000000E+03 0. -1.
</event>
<event>
 4    1  0.5712137E+000  0.1000000E+03  0.7546771E-02  0.1280296E+00
         21   -1    0    0  501  502  0.00000000000E+00  0.00000000000E+00  0.24683159341E+03  0.24683159341E+03  0.00000000000E+00 0. -1.
         21   -1    0    0  502  503 -0.00000000000E+00 -0.00000000000E+00 -0.31862944003E+03  0.31862944003E+03  0.00000000000E+00 0. -1.
          6    1    1    2  501    0  0.19469050812E+03  0.16661035378E+02  0.67587723648E+02  0.26959058671E+03  0.17300000000E+03 0. -1.
         -6    1    1    2    0  503 -0.19469050812E+03 -0.16661035378E+02 -0.13938557026E+03  0.29587044673E+03  0.17300000000E+03 0. -1.
</event>
<event>
 4    1  0.5712137E+000  0.1000000E+03  0.7546771E-02  0.1280296E+00
         21   -1    0    0  501  502  0.00000000000E+00  0.00000000000E+00  0.61670443544E+02  0.61670443544E+02  0.00000000000E+00 0.  1.
         21   -1    0    0  502  503 -0.00000000000E+00 -0.00000000000E+00 -0.10480840628E+04  0.10480840628E+04  0.00000000000E+00 0. -1.
          6    1    1    2  501    0  0.11398734456E+03  0.99162618775E+02 -0.25531629490E+03  0.34342648431E+03  0.17300000000E+03 0.  1.
         -6    1    1    2    0  503 -0.11398734456E+03 -0.99162618775E+02 -0.73109732439E+03  0.76632802207E+03  0.17300000000E+03 0. -1.
</event>
<event>
 4    1  0.5712137E+000  0.1000000E+03  0.7546771E-02  0.1280296E+00
         21   -1    0    0  501  502  0.00000000000E+00  0.00000000000E+00  0.31080159072E+03  0.31080159072E+03  0.00000000000E+00 0.  1.
         21   -1    0    0  502  503 -0.00000000000E+00 -0.00000000000E+00 -0.32413435954E+03  0.32413435954E+03  0.00000000000E+00 0. -1.
          6    1    1    2  501    0  0.23032731921E+03  0.12660043145E+03 -0.48318471075E+02  0.31834261082E+03  0.17300000000E+03 0.  1.
         -6    1    1    2    0  503 -0.23032731921E+03 -0.12660043145E+03  0.34985702254E+02  0.31659333944E+03  0.17300000000E+03 0. -1.
</event>
<event>
 4    1  0.5712137E+000  0.1000000E+03  0.7546771E-02  0.1280296E+00
         21   -1    0    0  503  502  0.00000000000E+00  0.00000000000E+00  0.25346971876E+04  0.25346971876E+04  0.00000000000E+00 0.  1.
         21   -1    0    0  501  503 -0.00000000000E+00 -0.00000000000E+00 -0.20819415619E+02  0.20819415619E+02  0.00000000000E+00 0.  1.
          6    1    1    2  501    0  0.59581700646E+02  0.78624412104E+02  0.62006268985E+03  0.65125917773E+03  0.17300000000E+03 0.  1.
         -6    1    1    2    0  502 -0.59581700646E+02 -0.78624412104E+02  0.18938150821E+04  0.19042574255E+04  0.17300000000E+03 0.  1.
</event>
<event>
 4    1  0.5712137E+000  0.1000000E+03  0.7546771E-02  0.1280296E+00
         21   -1    0    0  503  502  0.00000000000E+00  0.00000000000E+00  0.18376430251E+03  0.18376430251E+03  0.00000000000E+00 0.  1.
         21   -1    0    0  501  503 -0.00000000000E+00 -0.00000000000E+00 -0.31408070876E+03  0.31408070876E+03  0.00000000000E+00 0.  1.
          6    1    1    2  501    0 -0.10551430598E+03 -0.82205688029E+02  0.37918348719E+02  0.22194108471E+03  0.17300000000E+03 0.  1.
         -6    1    1    2    0  502  0.10551430598E+03  0.82205688029E+02 -0.16823475498E+03  0.27590392656E+03  0.17300000000E+03 0.  1.
</event>
<event>
 4    1  0.5712137E+000  0.1000000E+03  0.7546771E-02  0.1280296E+00
         21   -1    0    0  503  502  0.00000000000E+00  0.00000000000E+00  0.81946391353E+02  0.81946391353E+02  0.00000000000E+00 0.  1.
         21   -1    0    0  501  503 -0.00000000000E+00 -0.00000000000E+00 -0.73416912285E+03  0.73416912285E+03  0.00000000000E+00 0.  1.
          6    1    1    2  501    0 -0.25849258938E+02  0.52461795331E+02 -0.59852702292E+03  0.62576674674E+03  0.17300000000E+03 0.  1.
         -6    1    1    2    0  502  0.25849258938E+02 -0.52461795331E+02 -0.53695708580E+02  0.19034876747E+03  0.17300000000E+03 0.  1.
</event>
<event>
 4    1  0.5712137E+000  0.1000000E+03  0.7546771E-02  0.1280296E+00
         21   -1    0    0  503  502  0.00000000000E+00  0.00000000000E+00  0.53912505513E+03  0.53912505513E+03  0.00000000000E+00 0.  1.
         21   -1    0    0  501  503 -0.00000000000E+00 -0.00000000000E+00 -0.30896852345E+03  0.30896852345E+03  0.00000000000E+00 0.  1.
          6    1    1    2  501    0  0.73738846324E+02 -0.64608098837E+02 -0.25523438870E+03  0.32355094973E+03  0.17300000000E+03 0.  1.
         -6    1    1    2    0  502 -0.73738846324E+02  0.64608098837E+02  0.48539092038E+03  0.52454262885E+03  0.17300000000E+03 0.  1.
</event>
<event>
 4    1  0.5712137E+000  0.1000000E+03  0.7546771E-02  0.1280296E+00
         21   -1    0    0  501  502  0.00000000000E+00  0.00000000000E+00  0.81055762526E+03  0.81055762526E+03  0.00000000000E+00 0. -1.
         21   -1    0    0  502  503 -0.00000000000E+00 -0.00000000000E+00 -0.11023998965E+03  0.11023998965E+03  0.00000000000E+00 0.  1.
          6    1    1    2  501    0  0.51535553345E+02  0.13773288131E+03  0.64960724201E+03  0.68814593563E+03  0.17300000000E+03 0. -1.
         -6    1    1    2    0  503 -0.51535553345E+02 -0.13773288131E+03  0.50710393608E+02  0.23265167928E+03  0.17300000000E+03 0.  1.
</event>
<event>
 4    1  0.5712137E+000  0.1000000E+03  0.7546771E-02  0.1280296E+00
         21   -1    0    0  501  502  0.00000000000E+00  0.00000000000E+00  0.87145034227E+03  0.87145034227E+03  0.00000000000E+00 0.  1.
         21   -1    0    0  502  503 -0.00000000000E+00 -0.00000000000E+00 -0.55425404091E+02  0.55425404091E+02  0.00000000000E+00 0. -1.
          6    1    1    2  501    0  0.30552240662E+02  0.24211534419E+01  0.68642686737E+03  0.70855497009E+03  0.17300000000E+03 0.  1.
         -6    1    1    2    0  503 -0.30552240662E+02 -0.24211534419E+01  0.12959807081E+03  0.21832077627E+03  0.17300000000E+03 0.  1.
</event>
<event>
 4    1  0.5712137E+000  0.1000000E+03  0.7546771E-02  0.1280296E+00
         21   -1    0    0  501  502  0.00000000000E+00  0.00000000000E+00  0.57210215190E+03  0.57210215190E+03  0.00000000000E+00 0.  1.
         21   -1    0    0  502  503 -0.00000000000E+00 -0.00000000000E+00 -0.15516854205E+03  0.15516854205E+03  0.00000000000E+00 0.  1.
          6    1    1    2  501    0 -0.82417310376E+01  0.21697165924E+03  0.34047319660E+03  0.43931267299E+03  0.17300000000E+03 0.  1.
         -6    1    1    2    0  503  0.82417310376E+01 -0.21697165924E+03  0.76460413254E+02  0.28795802097E+03  0.17300000000E+03 0.  1.
</event>
<event>
 4    1  0.5712137E+000  0.1000000E+03  0.7546771E-02  0.1280296E+00
         21   -1    0    0  501  502  0.00000000000E+00  0.00000000000E+00  0.12905497327E+03  0.12905497327E+03  0.00000000000E+00 0.  1.
         21   -1    0    0  502  503 -0.00000000000E+00 -0.00000000000E+00 -0.91639386255E+03  0.91639386255E+03  0.00000000000E+00 0.  1.
          6    1    1    2  501    0  0.22482767299E+02 -0.12889257416E+03  0.11967433730E+02  0.21723487282E+03  0.17300000000E+03 0.  1.
         -6    1    1    2    0  503 -0.22482767299E+02  0.12889257416E+03 -0.79930632302E+03  0.82821396300E+03  0.17300000000E+03 0.  1.
</event>
<event>
 4    1  0.5712137E+000  0.1000000E+03  0.7546771E-02  0.1280296E+00
         21   -1    0    0  501  502  0.00000000000E+00  0.00000000000E+00  0.59611450204E+03  0.59611450204E+03  0.00000000000E+00 0. -1.
         21   -1    0    0  502  503 -0.00000000000E+00 -0.00000000000E+00 -0.72341627729E+02  0.72341627729E+02  0.00000000000E+00 0. -1.
          6    1    1    2  501    0 -0.56989372278E+01 -0.80095753779E+02  0.39408966134E+03  0.43781670689E+03  0.17300000000E+03 0. -1.
         -6    1    1    2    0  503  0.56989372278E+01  0.80095753779E+02  0.12968321297E+03  0.23063942288E+03  0.17300000000E+03 0. -1.
</event>
<event>
 4    1  0.5712137E+000  0.1000000E+03  0.7546771E-02  0.1280296E+00
         21   -1    0    0  501  502  0.00000000000E+00  0.00000000000E+00  0.70142622972E+02  0.70142622972E+02  0.00000000000E+00 0. -1.
         21   -1    0    0  502  503 -0.00000000000E+00 -0.00000000000E+00 -0.58473957475E+03  0.58473957475E+03  0.00000000000E+00 0. -1.
          6    1    1    2  501    0  0.12436468169E+02  0.36395342941E+01 -0.88356498811E+02  0.19468893865E+03  0.17300000000E+03 0. -1.
         -6    1    1    2    0  503 -0.12436468169E+02 -0.36395342941E+01 -0.42624045297E+03  0.46019325907E+03  0.17300000000E+03 0. -1.
</event>
<event>
 4    1  0.5712137E+000  0.1000000E+03  0.7546771E-02  0.1280296E+00
         21   -1    0    0  501  502  0.00000000000E+00  0.00000000000E+00  0.68082603686E+03  0.68082603686E+03  0.00000000000E+00 0. -1.
         21   -1    0    0  502  503 -0.00000000000E+00 -0.00000000000E+00 -0.58500276869E+02  0.58500276869E+02  0.00000000000E+00 0. -1.
          6    1    1    2  501    0  0.61507484832E+02  0.18324727740E+02  0.45199234659E+03  0.48820594805E+03  0.17300000000E+03 0. -1.
         -6    1    1    2    0  503 -0.61507484832E+02 -0.18324727740E+02  0.17033341340E+03  0.25112036568E+03  0.17300000000E+03 0. -1.
</event>
<event>
 4    1  0.5712137E+000  0.1000000E+03  0.7546771E-02  0.1280296E+00
         21   -1    0    0  501  502  0.00000000000E+00  0.00000000000E+00  0.20611925335E+03  0.20611925335E+03  0.00000000000E+00 0. -1.
         21   -1    0    0  502  503 -0.00000000000E+00 -0.00000000000E+00 -0.35159493363E+03  0.35159493363E+03  0.00000000000E+00 0. -1.
          6    1    1    2  501    0 -0.82407043283E+02  0.18903416809E+03 -0.76964316215E+02  0.27995953897E+03  0.17300000000E+03 0. -1.
         -6    1    1    2    0  503  0.82407043283E+02 -0.18903416809E+03 -0.68511364066E+02  0.27775464801E+03  0.17300000000E+03 0. -1.
</event>
<event>
 4    1  0.5712137E+000  0.1000000E+03  0.7546771E-02  0.1280296E+00
         21   -1    0    0  501  502  0.00000000000E+00  0.00000000000E+00  0.27120400722E+03  0.27120400722E+03  0.00000000000E+00 0. -1.
         21   -1    0    0  502  503 -0.00000000000E+00 -0.00000000000E+00 -0.81482503516E+03  0.81482503516E+03  0.00000000000E+00 0. -1.
          6    1    1    2  501    0  0.22354334103E+03 -0.33370803217E+03 -0.72664674132E+02  0.44333038574E+03  0.17300000000E+03 0. -1.
         -6    1    1    2    0  503 -0.22354334103E+03  0.33370803217E+03 -0.47095635381E+03  0.64269865664E+03  0.17300000000E+03 0. -1.
</event>
<event>
 4    1  0.5712137E+000  0.1000000E+03  0.7546771E-02  0.1280296E+00
         21   -1    0    0  501  502  0.00000000000E+00  0.00000000000E+00  0.23282832196E+03  0.23282832196E+03  0.00000000000E+00 0. -1.
         21   -1    0    0  502  503 -0.00000000000E+00 -0.00000000000E+00 -0.34722146010E+03  0.34722146010E+03  0.00000000000E+00 0. -1.
          6    1    1    2  501    0 -0.14683410408E+03 -0.42879626436E+01  0.11751019493E+03  0.25557051211E+03  0.17300000000E+03 0. -1.
         -6    1    1    2    0  503  0.14683410408E+03  0.42879626436E+01 -0.23190333307E+03  0.32447926996E+03  0.17300000000E+03 0. -1.
</event>
<event>
 4    1  0.5712137E+000  0.1000000E+03  0.7546771E-02  0.1280296E+00
         21   -1    0    0  501  502  0.00000000000E+00  0.00000000000E+00  0.85059062545E+02  0.85059062545E+02  0.00000000000E+00 0.  1.
         21   -1    0    0  502  503 -0.00000000000E+00 -0.00000000000E+00 -0.10268387113E+04  0.10268387113E+04  0.00000000000E+00 0. -1.
          6    1    1    2  501    0 -0.15806362314E+02 -0.33511798377E+01 -0.21173489626E+02  0.17503824770E+03  0.17300000000E+03 0. -1.
         -6    1    1    2    0  503  0.15806362314E+02  0.33511798377E+01 -0.92060615910E+03  0.93685952611E+03  0.17300000000E+03 0.  1.
</event>
<event>
 4    1  0.5712137E+000  0.1000000E+03  0.7546771E-02  0.1280296E+00
         21   -1    0    0  501  502  0.00000000000E+00  0.00000000000E+00  0.63925702702E+03  0.63925702702E+03  0.00000000000E+00 0.  1.
         21   -1    0    0  502  503 -0.00000000000E+00 -0.00000000000E+00 -0.10977989284E+03  0.10977989284E+03  0.00000000000E+00 0. -1.
          6    1    1    2  501    0  0.39949833323E+02 -0.78353741686E+02  0.51965885298E+03  0.55471580246E+03  0.17300000000E+03 0. -1.
         -6    1    1    2    0  503 -0.39949833323E+02  0.78353741686E+02  0.98182812015E+01  0.19432111739E+03  0.17300000000E+03 0.  1.
</event>
<event>
 4    1  0.5712137E+000  0.1000000E+03  0.7546771E-02  0.1280296E+00
         21   -1    0    0  503  502  0.00000000000E+00  0.00000000000E+00  0.28981550931E+03  0.28981550931E+03  0.00000000000E+00 0.  1.
         21   -1    0    0  501  503 -0.00000000000E+00 -0.00000000000E+00 -0.25269102091E+03  0.25269102091E+03  0.00000000000E+00 0.  1.
          6    1    1    2  501    0 -0.48131000275E+02  0.13054571628E+03 -0.13654630813E+03  0.26063896771E+03  0.17300000000E+03 0.  1.
         -6    1    1    2    0  502  0.48131000275E+02 -0.13054571628E+03  0.17367079652E+03  0.28186756250E+03  0.17300000000E+03 0.  1.
</event>
<event>
 4    1  0.5712137E+000  0.1000000E+03  0.7546771E-02  0.1280296E+00
         21   -1    0    0  503  502  0.00000000000E+00  0.00000000000E+00  0.12019020620E+03  0.12019020620E+03  0.00000000000E+00 0.  1.
         21   -1    0    0  501  503 -0.00000000000E+00 -0.00000000000E+00 -0.31297762008E+03  0.31297762008E+03  0.00000000000E+00 0.  1.
          6    1    1    2  501    0 -0.23806462682E+02 -0.62828135394E+01 -0.19036634613E+03  0.25840775366E+03  0.17300000000E+03 0.  1.
         -6    1    1    2    0  502  0.23806462682E+02  0.62828135394E+01 -0.24210677473E+01  0.17476007262E+03  0.17300000000E+03 0.  1.
</event>
<event>
 4    1  0.5712137E+000  0.1000000E+03  0.7546771E-02  0.1280296E+00
         21   -1    0    0  503  502  0.00000000000E+00  0.00000000000E+00  0.52923328097E+02  0.52923328097E+02  0.00000000000E+00 0.  1.
         21   -1    0    0  501  503 -0.00000000000E+00 -0.00000000000E+00 -0.73634246729E+03  0.73634246729E+03  0.00000000000E+00 0.  1.
          6    1    1    2  501    0  0.49619250890E+01  0.94952957667E+02 -0.34190045907E+03  0.39479818741E+03  0.17300000000E+03 0.  1.
         -6    1    1    2    0  502 -0.49619250890E+01 -0.94952957667E+02 -0.34151868012E+03  0.39446760797E+03  0.17300000000E+03 0.  1.
</event>
<event>
 4    1  0.5712137E+000  0.1000000E+03  0.7546771E-02  0.1280296E+00
         21   -1    0    0  501  502  0.00000000000E+00  0.00000000000E+00  0.34734134377E+03  0.34734134377E+03  0.00000000000E+00 0. -1.
         21   -1    0    0  502  503 -0.00000000000E+00 -0.00000000000E+00 -0.23302757069E+03  0.23302757069E+03  0.00000000000E+00 0. -1.
          6    1    1    2  501    0  0.34466920785E+02  0.11545863570E+03  0.25200388968E+03  0.32856297053E+03  0.17300000000E+03 0. -1.
         -6    1    1    2    0  503 -0.34466920785E+02 -0.11545863570E+03 -0.13769011661E+03  0.25180594393E+03  0.17300000000E+03 0. -1.
</event>
<event>
 4    1  0.5712137E+000  0.1000000E+03  0.7546771E-02  0.1280296E+00
         21   -1    0    0  501  502  0.00000000000E+00  0.00000000000E+00  0.75164267183E+02  0.75164267183E+02  0.00000000000E+00 0. -1.
         21   -1    0    0  502  503 -0.00000000000E+00 -0.00000000000E+00 -0.10921248946E+04  0.10921248946E+04  0.00000000000E+00 0. -1.
          6    1    1    2  501    0 -0.26031146062E+02  0.62052465149E+02 -0.63895779991E+02  0.19631556153E+03  0.17300000000E+03 0. -1.
         -6    1    1    2    0  503  0.26031146062E+02 -0.62052465149E+02 -0.95306484741E+03  0.97097360024E+03  0.17300000000E+03 0. -1.
</event>
<event>
 4    1  0.5712137E+000  0.1000000E+03  0.7546771E-02  0.1280296E+00
         21   -1    0    0  501  502  0.00000000000E+00  0.00000000000E+00  0.15948692667E+03  0.15948692667E+03  0.00000000000E+00 0. -1.
         21   -1    0    0  502  503 -0.00000000000E+00 -0.00000000000E+00 -0.53830050390E+03  0.53830050390E+03  0.00000000000E+00 0. -1.
          6    1    1    2  501    0 -0.57639843952E+02  0.17135733053E+03 -0.78927713092E+01  0.25035371413E+03  0.17300000000E+03 0. -1.
         -6    1    1    2    0  503  0.57639843952E+02 -0.17135733053E+03 -0.37092080592E+03  0.44743371643E+03  0.17300000000E+03 0. -1.
</event>
<event>
 4    1  0.5712137E+000  0.1000000E+03  0.7546771E-02  0.1280296E+00
         21   -1    0    0  501  502  0.00000000000E+00  0.00000000000E+00  0.10396255646E+03  0.10396255646E+03  0.00000000000E+00 0.  1.
         21   -1    0    0  502  503 -0.00000000000E+00 -0.00000000000E+00 -0.67699301173E+03  0.67699301173E+03  0.00000000000E+00 0. -1.
          6    1    1    2  501    0  0.20590769738E+02  0.19394246264E+03 -0.21418027368E+03  0.33740161269E+03  0.17300000000E+03 0. -1.
         -6    1    1    2    0  503 -0.20590769738E+02 -0.19394246264E+03 -0.35885018159E+03  0.44355395550E+03  0.17300000000E+03 0. -1.
</event>
<event>
 4    1  0.5712137E+000  0.1000000E+03  0.7546771E-02  0.1280296E+00
         21   -1    0    0  503  502  0.00000000000E+00  0.00000000000E+00  0.13639290479E+04  0.13639290479E+04  0.00000000000E+00 0.  1.
         21   -1    0    0  501  503 -0.00000000000E+00 -0.00000000000E+00 -0.13100737675E+03  0.13100737675E+03  0.00000000000E+00 0.  1.
          6    1    1    2  501    0 -0.11890973360E+03  0.29152218872E+02 -0.30268359911E+02  0.21409005167E+03  0.17300000000E+03 0.  1.
         -6    1    1    2    0  502  0.11890973360E+03 -0.29152218872E+02  0.12631900311E+04  0.12808463730E+04  0.17300000000E+03 0.  1.
</event>
<event>
 4    1  0.5712137E+000  0.1000000E+03  0.7546771E-02  0.1280296E+00
         21   -1    0    0  503  502  0.00000000000E+00  0.00000000000E+00  0.71457343711E+02  0.71457343711E+02  0.00000000000E+00 0.  1.
         21   -1    0    0  501  503 -0.00000000000E+00 -0.00000000000E+00 -0.56178706370E+03  0.56178706370E+03  0.00000000000E+00 0.  1.
          6    1    1    2  501    0 -0.29009077240E+02 -0.13996587849E+01 -0.39814412920E+03  0.43507612348E+03  0.17300000000E+03 0.  1.
         -6    1    1    2    0  502  0.29009077240E+02  0.13996587849E+01 -0.92185590792E+02  0.19816828393E+03  0.17300000000E+03 0.  1.
</event>
<event>
 4    1  0.5712137E+000  0.1000000E+03  0.7546771E-02  0.1280296E+00
         21   -1    0    0  503  502  0.00000000000E+00  0.00000000000E+00  0.11652626936E+04  0.11652626936E+04  0.00000000000E+00 0.  1.
         21   -1    0    0  501  503 -0.00000000000E+00 -0.00000000000E+00 -0.31050254907E+02  0.31050254907E+02  0.00000000000E+00 0.  1.
          6    1    1    2  501    0 -0.74612799437E+02 -0.39255715796E+01  0.64851667740E+03  0.67534092192E+03  0.17300000000E+03 0.  1.
         -6    1    1    2    0  502  0.74612799437E+02  0.39255715796E+01  0.48569576132E+03  0.52097202662E+03  0.17300000000E+03 0.  1.
</event>
<event>
 4    1  0.5712137E+000  0.1000000E+03  0.7546771E-02  0.1280296E+00
         21   -1    0    0  503  502  0.00000000000E+00  0.00000000000E+00  0.51855015337E+03  0.51855015337E+03  0.00000000000E+00 0. -1.
         21   -1    0    0  501  503 -0.00000000000E+00 -0.00000000000E+00 -0.85047912887E+02  0.85047912887E+02  0.00000000000E+00 0.  1.
          6    1    1    2  501    0 -0.23169676443E+02  0.46958565734E+02  0.63103292073E+02  0.19144964422E+03  0.17300000000E+03 0.  1.
         -6    1    1    2    0  502  0.23169676443E+02 -0.46958565734E+02  0.37039894841E+03  0.41214842204E+03  0.17300000000E+03 0. -1.
</event>
<event>
 4    1  0.5712137E+000  0.1000000E+03  0.7546771E-02  0.1280296E+00
         21   -1    0    0  503  502  0.00000000000E+00  0.00000000000E+00  0.18075026520E+04  0.18075026520E+04  0.00000000000E+00 0. -1.
         21   -1    0    0  501  503 -0.00000000000E+00 -0.00000000000E+00 -0.45495105682E+02  0.45495105682E+02  0.00000000000E+00 0.  1.
          6    1    1    2  501    0 -0.99290980879E+00  0.22816929841E+03  0.83081456357E+03  0.87877417671E+03  0.17300000000E+03 0.  1.
         -6    1    1    2    0  502  0.99290980879E+00 -0.22816929841E+03  0.93119298274E+03  0.97422358097E+03  0.17300000000E+03 0. -1.
</event>
<event>
 4    1  0.5712137E+000  0.1000000E+03  0.7546771E-02  0.1280296E+00
         21   -1    0    0  503  502  0.00000000000E+00  0.00000000000E+00  0.29101695416E+03  0.29101695416E+03  0.00000000000E+00 0. -1.
         21   -1    0    0  501  503 -0.00000000000E+00 -0.00000000000E+00 -0.92390712646E+03  0.92390712646E+03  0.00000000000E+00 0.  1.
          6    1    1    2  501    0  0.20503874577E+03 -0.37519723234E+03 -0.59399592184E+03  0.75204654483E+03  0.17300000000E+03 0.  1.
         -6    1    1    2    0  502 -0.20503874577E+03  0.37519723234E+03 -0.38894250458E+02  0.46287753579E+03  0.17300000000E+03 0. -1.
</event>
<event>
 4    1  0.5712137E+000  0.1000000E+03  0.7546771E-02  0.1280296E+00
         21   -1    0    0  503  502  0.00000000000E+00  0.00000000000E+00  0.79228919374E+02  0.79228919374E+02  0.00000000000E+00 0. -1.
         21   -1    0    0  501  503 -0.00000000000E+00 -0.00000000000E+00 -0.64377346921E+03  0.64377346921E+03  0.00000000000E+00 0.  1.
          6    1    1    2  501    0  0.97632662464E+02 -0.62308421536E+02 -0.42238333204E+03  0.47090461386E+03  0.17300000000E+03 0.  1.
         -6    1    1    2    0  502 -0.97632662464E+02  0.62308421536E+02 -0.14216121780E+03  0.25209777472E+03  0.17300000000E+03 0. -1.
</event>
<event>
 4    1  0.5712137E+000  0.1000000E+03  0.7546771E-02  0.1280296E+00
         21   -1    0    0  503  502  0.00000000000E+00  0.00000000000E+00  0.93971506150E+03  0.93971506150E+03  0.00000000000E+00 0. -1.
         21   -1    0    0  501  503 -0.00000000000E+00 -0.00000000000E+00 -0.10826899295E+03  0.10826899295E+03  0.00000000000E+00 0. -1.
          6    1    1    2  501    0  0.37419919004E+02 -0.15633566630E+01 -0.20182779702E+02  0.17815453690E+03  0.17300000000E+03 0. -1.
         -6    1    1    2    0  502 -0.37419919004E+02  0.15633566630E+01  0.85162884825E+03  0.86982951755E+03  0.17300000000E+03 0. -1.
</event>
<event>
 4    1  0.5712137E+000  0.1000000E+03  0.7546771E-02  0.1280296E+00
         21   -1    0    0  503  502  0.00000000000E+00  0.00000000000E+00  0.20550881557E+03  0.20550881557E+03  0.00000000000E+00 0.  1.
         21   -1    0    0  501  503 -0.00000000000E+00 -0.00000000000E+00 -0.22388194238E+03  0.22388194238E+03  0.00000000000E+00 0.  1.
          6    1    1    2  501    0  0.12235836716E+03  0.62342178419E+01  0.23558519695E+02  0.21329425528E+03  0.17300000000E+03 0.  1.
         -6    1    1    2    0  502 -0.12235836716E+03 -0.62342178419E+01 -0.41931646512E+02  0.21609650267E+03  0.17300000000E+03 0.  1.
</event>
<event>
 4    1  0.5712137E+000  0.1000000E+03  0.7546771E-02  0.1280296E+00
         21   -1    0    0  503  502  0.00000000000E+00  0.00000000000E+00  0.10221265246E+03  0.10221265246E+03  0.00000000000E+00 0. -1.
         21   -1    0    0  501  503 -0.00000000000E+00 -0.00000000000E+00 -0.57095182005E+03  0.57095182005E+03  0.00000000000E+00 0. -1.
          6    1    1    2  501    0  0.17266666003E+01  0.35916532253E+02 -0.46388730225E+03  0.49640045110E+03  0.17300000000E+03 0. -1.
         -6    1    1    2    0  502 -0.17266666003E+01 -0.35916532253E+02 -0.48518653364E+01  0.17676402141E+03  0.17300000000E+03 0. -1.
</event>
<event>
 4    1  0.5712137E+000  0.1000000E+03  0.7546771E-02  0.1280296E+00
         21   -1    0    0  503  502  0.00000000000E+00  0.00000000000E+00  0.30335815302E+03  0.30335815302E+03  0.00000000000E+00 0. -1.
         21   -1    0    0  501  503 -0.00000000000E+00 -0.00000000000E+00 -0.34698058745E+03  0.34698058745E+03  0.00000000000E+00 0. -1.
          6    1    1    2  501    0  0.11468427579E+03 -0.18057789379E+03 -0.19415730344E+03  0.33672973928E+03  0.17300000000E+03 0. -1.
         -6    1    1    2    0  502 -0.11468427579E+03  0.18057789379E+03  0.15053486901E+03  0.31360900119E+03  0.17300000000E+03 0. -1.
</event>
<event>
 4    1  0.5712137E+000  0.1000000E+03  0.7546771E-02  0.1280296E+00
         21   -1    0    0  503  502  0.00000000000E+00  0.00000000000E+00  0.55931586607E+03  0.55931586607E+03  0.00000000000E+00 0.  1.
         21   -1    0    0  501  503 -0.00000000000E+00 -0.00000000000E+00 -0.85435192618E+02  0.85435192618E+02  0.00000000000E+00 0.  1.
          6    1    1    2  501    0  0.96562860322E+02 -0.85459042093E+02  0.18524816831E+03  0.28438269590E+03  0.17300000000E+03 0.  1.
         -6    1    1    2    0  502 -0.96562860322E+02  0.85459042093E+02  0.28863250515E+03  0.36036836279E+03  0.17300000000E+03 0.  1.
</event>
<event>
 4    1  0.5712137E+000  0.1000000E+03  0.7546771E-02  0.1280296E+00
         21   -1    0    0  503  502  0.00000000000E+00  0.00000000000E+00  0.18108868662E+04  0.18108868662E+04  0.00000000000E+00 0.  1.
         21   -1    0    0  501  503 -0.00000000000E+00 -0.00000000000E+00 -0.27563892971E+02  0.27563892971E+02  0.00000000000E+00 0.  1.
          6    1    1    2  501    0  0.11854044709E+02 -0.73828669360E+02  0.39802141076E+03  0.44038759544E+03  0.17300000000E+03 0.  1.
         -6    1    1    2    0  502 -0.11854044709E+02  0.73828669360E+02  0.13853015624E+04  0.13980631637E+04  0.17300000000E+03 0.  1.
</event>
<event>
 4    1  0.5712137E+000  0.1000000E+03  0.7546771E-02  0.1280296E+00
         21   -1    0    0  503  502  0.00000000000E+00  0.00000000000E+00  0.60803994992E+02  0.60803994992E+02  0.00000000000E+00 0.  1.
         21   -1    0    0  501  503 -0.00000000000E+00 -0.00000000000E+00 -0.84934546651E+03  0.84934546651E+03  0.00000000000E+00 0.  1.
          6    1    1    2  501    0  0.10100316837E+03 -0.86105629037E+02 -0.52247476708E+03  0.56614901007E+03  0.17300000000E+03 0.  1.
         -6    1    1    2    0  502 -0.10100316837E+03  0.86105629037E+02 -0.26606670444E+03  0.34400045143E+03  0.17300000000E+03 0.  1.
</event>
<event>
 4    1  0.5712137E+000  0.1000000E+03  0.7546771E-02  0.1280296E+00
         21   -1    0    0  503  502  0.00000000000E+00  0.00000000000E+00  0.17504985973E+03  0.17504985973E+03  0.00000000000E+00 0.  1.
         21   -1    0    0  501  503 -0.00000000000E+00 -0.00000000000E+00 -0.30510030594E+03  0.30510030594E+03  0.00000000000E+00 0.  1.
          6    1    1    2  501    0  0.85071377225E+02 -0.56878179136E+02 -0.18349977991E+03  0.27216435423E+03  0.17300000000E+03 0.  1.
         -6    1    1    2    0  502 -0.85071377225E+02  0.56878179136E+02  0.53449333702E+02  0.20798581143E+03  0.17300000000E+03 0.  1.
</event>
<event>
 4    1  0.5712137E+000  0.1000000E+03  0.7546771E-02  0.1280296E+00
         21   -1    0    0  501  502  0.00000000000E+00  0.00000000000E+00  0.48456699538E+03  0.48456699538E+03  0.00000000000E+00 0. -1.
         21   -1    0    0  502  503 -0.00000000000E+00 -0.00000000000E+00 -0.16447621382E+03  0.16447621382E+03  0.00000000000E+00 0. -1.
          6    1    1    2  501    0 -0.20890329192E+03 -0.25523565040E+02  0.74960158881E+02  0.28255983998E+03  0.17300000000E+03 0. -1.
         -6    1    1    2    0  503  0.20890329192E+03  0.25523565040E+02  0.24513062268E+03  0.36648336923E+03  0.17300000000E+03 0. -1.
</event>
<event>
 4    1  0.5712137E+000  0.1000000E+03  0.7546771E-02  0.1280296E+00
         21   -1    0    0  501  502  0.00000000000E+00  0.00000000000E+00  0.41742493643E+03  0.41742493643E+03  0.00000000000E+00 0. -1.
         21   -1    0    0  502  503 -0.00000000000E+00 -0.00000000000E+00 -0.29298003242E+03  0.29298003242E+03  0.00000000000E+00 0. -1.
          6    1    1    2  501    0 -0.27506414229E+03  0.99514118754E+02  0.14600940618E+03  0.36987983034E+03  0.17300000000E+03 0. -1.
         -6    1    1    2    0  503  0.27506414229E+03 -0.99514118754E+02 -0.21564502168E+02  0.34052513851E+03  0.17300000000E+03 0. -1.
</event>
<event>
 4    1  0.5712137E+000  0.1000000E+03  0.7546771E-02  0.1280296E+00
         21   -1    0    0  503  502  0.00000000000E+00  0.00000000000E+00  0.92646284549E+03  0.92646284549E+03  0.00000000000E+00 0. -1.
         21   -1    0    0  501  503 -0.00000000000E+00 -0.00000000000E+00 -0.15299542219E+03  0.15299542219E+03  0.00000000000E+00 0. -1.
          6    1    1    2  501    0  0.16831963708E+03  0.59370556062E+02 -0.18641221111E+02  0.24926463503E+03  0.17300000000E+03 0. -1.
         -6    1    1    2    0  502 -0.16831963708E+03 -0.59370556062E+02  0.79210864440E+03  0.83019363265E+03  0.17300000000E+03 0. -1.
</event>
<event>
 4    1  0.5712137E+000  0.1000000E+03  0.7546771E-02  0.1280296E+00
         21   -1    0    0  501  502  0.00000000000E+00  0.00000000000E+00  0.27633656354E+03  0.27633656354E+03  0.00000000000E+00 0.  1.
         21   -1    0    0  502  503 -0.00000000000E+00 -0.00000000000E+00 -0.27553595883E+03  0.27553595883E+03  0.00000000000E+00 0.  1.
          6    1    1    2  501    0  0.20447368147E+02  0.11865193985E+03 -0.17768773499E+03  0.27567790782E+03  0.17300000000E+03 0.  1.
         -6    1    1    2    0  503 -0.20447368147E+02 -0.11865193985E+03  0.17848833970E+03  0.27619461454E+03  0.17300000000E+03 0.  1.
</event>
<event>
 4    1  0.5712137E+000  0.1000000E+03  0.7546771E-02  0.1280296E+00
         21   -1    0    0  501  502  0.00000000000E+00  0.00000000000E+00  0.16698483602E+02  0.16698483602E+02  0.00000000000E+00 0.  1.
         21   -1    0    0  502  503 -0.00000000000E+00 -0.00000000000E+00 -0.31032502775E+04  0.31032502775E+04  0.00000000000E+00 0.  1.
          6    1    1    2  501    0 -0.36492482473E+02 -0.46138081484E+02 -0.61295027350E+03  0.63960727140E+03  0.17300000000E+03 0.  1.
         -6    1    1    2    0  503  0.36492482473E+02  0.46138081484E+02 -0.24736015204E+04  0.24803414897E+04  0.17300000000E+03 0.  1.
</event>
<event>
 4    1  0.5712137E+000  0.1000000E+03  0.7546771E-02  0.1280296E+00
         21   -1    0    0  501  502  0.00000000000E+00  0.00000000000E+00  0.36699554213E+03  0.36699554213E+03  0.00000000000E+00 0.  1.
         21   -1    0    0  502  503 -0.00000000000E+00 -0.00000000000E+00 -0.28609877133E+03  0.28609877133E+03  0.00000000000E+00 0.  1.
          6    1    1    2  501    0  0.70620472913E+02 -0.13154577389E+03  0.27196252917E+03  0.35522409701E+03  0.17300000000E+03 0.  1.
         -6    1    1    2    0  503 -0.70620472913E+02  0.13154577389E+03 -0.19106575837E+03  0.29787021644E+03  0.17300000000E+03 0.  1.
</event>
<event>
 4    1  0.5712137E+000  0.1000000E+03  0.7546771E-02  0.1280296E+00
         21   -1    0    0  501  502  0.00000000000E+00  0.00000000000E+00  0.80860212686E+02  0.80860212686E+02  0.00000000000E+00 0. -1.
         21   -1    0    0  502  503 -0.00000000000E+00 -0.00000000000E+00 -0.14394606193E+04  0.14394606193E+04  0.00000000000E+00 0.  1.
          6    1    1    2  501    0 -0.17851092580E+03  0.13905793551E+03 -0.26089554634E+03  0.38626253528E+03  0.17300000000E+03 0. -1.
         -6    1    1    2    0  503  0.17851092580E+03 -0.13905793551E+03 -0.10977048603E+04  0.11340582967E+04  0.17300000000E+03 0.  1.
</event>
<event>
 4    1  0.5712137E+000  0.1000000E+03  0.7546771E-02  0.1280296E+00
         21   -1    0    0  501  502  0.00000000000E+00  0.00000000000E+00  0.42212193865E+02  0.42212193865E+02  0.00000000000E+00 0.  1.
         21   -1    0    0  502  503 -0.00000000000E+00 -0.00000000000E+00 -0.72987734338E+03  0.72987734338E+03  0.00000000000E+00 0.  1.
          6    1    1    2  501    0 -0.11024924558E+02 -0.23445904062E+02 -0.31200166715E+03  0.35769442222E+03  0.17300000000E+03 0.  1.
         -6    1    1    2    0  503  0.11024924558E+02  0.23445904062E+02 -0.37566348237E+03  0.41439511503E+03  0.17300000000E+03 0.  1.
</event>
<event>
 4    1  0.5712137E+000  0.1000000E+03  0.7546771E-02  0.1280296E+00
         21   -1    0    0  501  502  0.00000000000E+00  0.00000000000E+00  0.89680472681E+02  0.89680472681E+02  0.00000000000E+00 0.  1.
         21   -1    0    0  502  503 -0.00000000000E+00 -0.00000000000E+00 -0.56474928427E+03  0.56474928427E+03  0.00000000000E+00 0.  1.
          6    1    1    2  501    0 -0.19080107065E+02  0.41745080259E+02 -0.39178844265E+02  0.18322304454E+03  0.17300000000E+03 0.  1.
         -6    1    1    2    0  503  0.19080107065E+02 -0.41745080259E+02 -0.43588996732E+03  0.47120671242E+03  0.17300000000E+03 0.  1.
</event>
<event>
 4    1  0.5712137E+000  0.1000000E+03  0.7546771E-02  0.1280296E+00
         21   -1    0    0  501  502  0.00000000000E+00  0.00000000000E+00  0.10009439558E+04  0.10009439558E+04  0.00000000000E+00 0.  1.
         21   -1    0    0  502  503 -0.00000000000E+00 -0.00000000000E+00 -0.69272026346E+02  0.69272026346E+02  0.00000000000E+00 0.  1.
          6    1    1    2  501    0  0.40737802524E+02 -0.49310486330E+02  0.84773758548E+03  0.86757080774E+03  0.17300000000E+03 0. -1.
         -6    1    1    2    0  503 -0.40737802524E+02  0.49310486330E+02  0.83934344004E+02  0.20264517443E+03  0.17300000000E+03 0. -1.
</event>
<event>
 4    1  0.5712137E+000  0.1000000E+03  0.7546771E-02  0.1280296E+00
         21   -1    0    0  501  502  0.00000000000E+00  0.00000000000E+00  0.67426641292E+03  0.67426641292E+03  0.00000000000E+00 0.  1.
         21   -1    0    0  502  503 -0.00000000000E+00 -0.00000000000E+00 -0.77251722180E+02  0.77251722180E+02  0.00000000000E+00 0.  1.
          6    1    1    2  501    0 -0.70873082699E+02  0.44979727169E+02  0.50090990264E+03  0.53654999792E+03  0.17300000000E+03 0.  1.
         -6    1    1    2    0  503  0.70873082699E+02 -0.44979727169E+02  0.96104788108E+02  0.21496813718E+03  0.17300000000E+03 0.  1.
</event>
<event>
 4    1  0.5712137E+000  0.1000000E+03  0.7546771E-02  0.1280296E+00
         21   -1    0    0  501  502  0.00000000000E+00  0.00000000000E+00  0.54832398598E+03  0.54832398598E+03  0.00000000000E+00 0.  1.
         21   -1    0    0  502  503 -0.00000000000E+00 -0.00000000000E+00 -0.18731388688E+03  0.18731388688E+03  0.00000000000E+00 0.  1.
          6    1    1    2  501    0 -0.83358447321E+02 -0.19192160528E+03  0.37594270092E+03  0.46372885147E+03  0.17300000000E+03 0.  1.
         -6    1    1    2    0  503  0.83358447321E+02  0.19192160528E+03 -0.14932601819E+02  0.27190902138E+03  0.17300000000E+03 0.  1.
</event>
<event>
 4    1  0.5712137E+000  0.1000000E+03  0.7546771E-02  0.1280296E+00
         21   -1    0    0  501  502  0.00000000000E+00  0.00000000000E+00  0.47241283694E+03  0.47241283694E+03  0.00000000000E+00 0.  1.
         21   -1    0    0  502  503 -0.00000000000E+00 -0.00000000000E+00 -0.11115141618E+03  0.11115141618E+03  0.00000000000E+00 0.  1.
          6    1    1    2  501    0 -0.88593990235E+02 -0.10716208639E+03  0.25319642906E+03  0.33670467706E+03  0.17300000000E+03 0.  1.
         -6    1    1    2    0  503  0.88593990235E+02  0.10716208639E+03  0.10806499170E+03  0.24685957607E+03  0.17300000000E+03 0.  1.
</event>
<event>
 4    1  0.5712137E+000  0.1000000E+03  0.7546771E-02  0.1280296E+00
         21   -1    0    0  501  502  0.00000000000E+00  0.00000000000E+00  0.38681454152E+03  0.38681454152E+03  0.00000000000E+00 0.  1.
         21   -1    0    0  502  503 -0.00000000000E+00 -0.00000000000E+00 -0.14397437655E+03  0.14397437655E+03  0.00000000000E+00 0.  1.
          6    1    1    2  501    0  0.22426505680E+02  0.15387118296E+03  0.76674402264E+02  0.24492295333E+03  0.17300000000E+03 0.  1.
         -6    1    1    2    0  503 -0.22426505680E+02 -0.15387118296E+03  0.16616576271E+03  0.28586596475E+03  0.17300000000E+03 0.  1.
</event>
<event>
 4    1  0.5712137E+000  0.1000000E+03  0.7546771E-02  0.1280296E+00
         21   -1    0    0  501  502  0.00000000000E+00  0.00000000000E+00  0.60369979275E+03  0.60369979275E+03  0.00000000000E+00 0.  1.
         21   -1    0    0  502  503 -0.00000000000E+00 -0.00000000000E+00 -0.26465262152E+03  0.26465262152E+03  0.00000000000E+00 0.  1.
          6    1    1    2  501    0 -0.92889575068E+02 -0.30272300991E+03  0.35631548625E+03  0.50710888341E+03  0.17300000000E+03 0.  1.
         -6    1    1    2    0  503  0.92889575068E+02  0.30272300991E+03 -0.17268315022E+02  0.36124353086E+03  0.17300000000E+03 0.  1.
</event>
<event>
 4    1  0.5712137E+000  0.1000000E+03  0.7546771E-02  0.1280296E+00
         21   -1    0    0  501  502  0.00000000000E+00  0.00000000000E+00  0.21602187986E+03  0.21602187986E+03  0.00000000000E+00 0.  1.
         21   -1    0    0  502  503 -0.00000000000E+00 -0.00000000000E+00 -0.41897892227E+03  0.41897892227E+03  0.00000000000E+00 0.  1.
          6    1    1    2  501    0 -0.21923973026E+03 -0.91188585820E+02 -0.33098265293E+02  0.29564490977E+03  0.17300000000E+03 0.  1.
         -6    1    1    2    0  503  0.21923973026E+03  0.91188585820E+02 -0.16985877712E+03  0.33935589235E+03  0.17300000000E+03 0.  1.
</event>
<event>
 4    1  0.5712137E+000  0.1000000E+03  0.7546771E-02  0.1280296E+00
         21   -1    0    0  501  502  0.00000000000E+00  0.00000000000E+00  0.66245455844E+03  0.66245455844E+03  0.00000000000E+00 0. -1.
         21   -1    0    0  502  503 -0.00000000000E+00 -0.00000000000E+00 -0.18891633878E+03  0.18891633878E+03  0.00000000000E+00 0.  1.
          6    1    1    2  501    0  0.39776244559E+02  0.24724598239E+03  0.45372071596E+03  0.54635539124E+03  0.17300000000E+03 0. -1.
         -6    1    1    2    0  503 -0.39776244559E+02 -0.24724598239E+03  0.19817503693E+02  0.30501550599E+03  0.17300000000E+03 0.  1.
</event>
<event>
 4    1  0.5712137E+000  0.1000000E+03  0.7546771E-02  0.1280296E+00
         21   -1    0    0  501  502  0.00000000000E+00  0.00000000000E+00  0.16394863366E+03  0.16394863366E+03  0.00000000000E+00 0. -1.
         21   -1    0    0  502  503 -0.00000000000E+00 -0.00000000000E+00 -0.19698873598E+03  0.19698873598E+03  0.00000000000E+00 0.  1.
          6    1    1    2  501    0  0.28724977054E+02 -0.29501420843E+02  0.95039955794E+01  0.17808645111E+03  0.17300000000E+03 0. -1.
         -6    1    1    2    0  503 -0.28724977054E+02  0.29501420843E+02 -0.42544097904E+02  0.18285091852E+03  0.17300000000E+03 0.  1.
</event>
<event>
 4    1  0.5712137E+000  0.1000000E+03  0.7546771E-02  0.1280296E+00
         21   -1    0    0  501  502  0.00000000000E+00  0.00000000000E+00  0.21577869685E+02  0.21577869685E+02  0.00000000000E+00 0. -1.
         21   -1    0    0  502  503 -0.00000000000E+00 -0.00000000000E+00 -0.17177313417E+04  0.17177313417E+04  0.00000000000E+00 0.  1.
          6    1    1    2  501    0  0.13478963253E+02 -0.72945467818E+02 -0.66552226624E+03  0.69162967734E+03  0.17300000000E+03 0. -1.
         -6    1    1    2    0  503 -0.13478963253E+02  0.72945467818E+02 -0.10306312057E+04  0.10476795340E+04  0.17300000000E+03 0.  1.
</event>
<event>
 4    1  0.5712137E+000  0.1000000E+03  0.7546771E-02  0.1280296E+00
         21   -1    0    0  503  502  0.00000000000E+00  0.00000000000E+00  0.20715456265E+03  0.20715456265E+03  0.00000000000E+00 0.  1.
         21   -1    0    0  501  503 -0.00000000000E+00 -0.00000000000E+00 -0.22168868084E+03  0.22168868084E+03  0.00000000000E+00 0. -1.
          6    1    1    2  501    0  0.56808014607E+02 -0.55439864849E+02 -0.10578223720E+03  0.21776044371E+03  0.17300000000E+03 0.  1.
         -6    1    1    2    0  502 -0.56808014607E+02  0.55439864849E+02  0.91248119007E+02  0.21108279977E+03  0.17300000000E+03 0.  1.
</event>
<event>
 4    1  0.5712137E+000  0.1000000E+03  0.7546771E-02  0.1280296E+00
         21   -1    0    0  501  502  0.00000000000E+00  0.00000000000E+00  0.29621733245E+03  0.29621733245E+03  0.00000000000E+00 0. -1.
         21   -1    0    0  502  503 -0.00000000000E+00 -0.00000000000E+00 -0.20296183187E+03  0.20296183187E+03  0.00000000000E+00 0.  1.
          6    1    1    2  501    0  0.27593323040E+02  0.11207621559E+03  0.17883738828E+03  0.27428868191E+03  0.17300000000E+03 0. -1.
         -6    1    1    2    0  503 -0.27593323040E+02 -0.11207621559E+03 -0.85581887693E+02  0.22489048241E+03  0.17300000000E+03 0.  1.
</event>
<event>
 4    1  0.5712137E+000  0.1000000E+03  0.7546771E-02  0.1280296E+00
         21   -1    0    0  501  502  0.00000000000E+00  0.00000000000E+00  0.16696139158E+02  0.16696139158E+02  0.00000000000E+00 0. -1.
         21   -1    0    0  502  503 -0.00000000000E+00 -0.00000000000E+00 -0.31615998772E+04  0.31615998772E+04  0.00000000000E+00 0.  1.
          6    1    1    2  501    0 -0.41598315158E+02  0.99234810029E+02 -0.83785572981E+03  0.86226979033E+03  0.17300000000E+03 0. -1.
         -6    1    1    2    0  503  0.41598315158E+02 -0.99234810029E+02 -0.23070480082E+04  0.23160262260E+04  0.17300000000E+03 0.  1.
</event>
<event>
 4    1  0.5712137E+000  0.1000000E+03  0.7546771E-02  0.1280296E+00
         21   -1    0    0  501  502  0.00000000000E+00  0.00000000000E+00  0.82798942235E+02  0.82798942235E+02  0.00000000000E+00 0. -1.
         21   -1    0    0  502  503 -0.00000000000E+00 -0.00000000000E+00 -0.20452417298E+04  0.20452417298E+04  0.00000000000E+00 0.  1.
          6    1    1    2  501    0  0.68538758729E+02 -0.27003405837E+03 -0.33845142755E+03  0.47126884359E+03  0.17300000000E+03 0. -1.
         -6    1    1    2    0  503 -0.68538758729E+02  0.27003405837E+03 -0.16239913600E+04  0.16567718284E+04  0.17300000000E+03 0.  1.
</event>
<event>
 4    1  0.5712137E+000  0.1000000E+03  0.7546771E-02  0.1280296E+00
         21   -1    0    0  501  502  0.00000000000E+00  0.00000000000E+00  0.44512034868E+03  0.44512034868E+03  0.00000000000E+00 0. -1.
         21   -1    0    0  502  503 -0.00000000000E+00 -0.00000000000E+00 -0.91321451453E+02  0.91321451453E+02  0.00000000000E+00 0.  1.
          6    1    1    2  501    0  0.13248168548E+02 -0.60051480609E+02  0.28771362951E+03  0.34130606045E+03  0.17300000000E+03 0. -1.
         -6    1    1    2    0  503 -0.13248168548E+02  0.60051480609E+02  0.66085267718E+02  0.19513573969E+03  0.17300000000E+03 0.  1.
</event>
<event>
 4    1  0.5712137E+000  0.1000000E+03  0.7546771E-02  0.1280296E+00
         21   -1    0    0  503  502  0.00000000000E+00  0.00000000000E+00  0.26072804008E+02  0.26072804008E+02  0.00000000000E+00 0.  1.
         21   -1    0    0  501  503 -0.00000000000E+00 -0.00000000000E+00 -0.16269662348E+04  0.16269662348E+04  0.00000000000E+00 0. -1.
          6    1    1    2  501    0  0.50160843015E+02 -0.76397903885E+02 -0.10585870510E+04  0.10765167413E+04  0.17300000000E+03 0. -1.
         -6    1    1    2    0  502 -0.50160843015E+02  0.76397903885E+02 -0.54230637983E+03  0.57652229748E+03  0.17300000000E+03 0.  1.
</event>
<event>
 4    1  0.5712137E+000  0.1000000E+03  0.7546771E-02  0.1280296E+00
         21   -1    0    0  503  502  0.00000000000E+00  0.00000000000E+00  0.21176787366E+03  0.21176787366E+03  0.00000000000E+00 0.  1.
         21   -1    0    0  501  503 -0.00000000000E+00 -0.00000000000E+00 -0.16455977297E+03  0.16455977297E+03  0.00000000000E+00 0. -1.
          6    1    1    2  501    0  0.28004654290E+02  0.62892654981E+02  0.10091096001E+02  0.18646870228E+03  0.17300000000E+03 0. -1.
         -6    1    1    2    0  502 -0.28004654290E+02 -0.62892654981E+02  0.37117004691E+02  0.18985894435E+03  0.17300000000E+03 0.  1.
</event>
<event>
 4    1  0.5712137E+000  0.1000000E+03  0.7546771E-02  0.1280296E+00
         21   -1    0    0  503  502  0.00000000000E+00  0.00000000000E+00  0.81071184624E+02  0.81071184624E+02  0.00000000000E+00 0.  1.
         21   -1    0    0  501  503 -0.00000000000E+00 -0.00000000000E+00 -0.76328994432E+03  0.76328994432E+03  0.00000000000E+00 0. -1.
          6    1    1    2  501    0  0.49253250599E+02  0.87829041842E+02 -0.59175950050E+03  0.62469843102E+03  0.17300000000E+03 0. -1.
         -6    1    1    2    0  502 -0.49253250599E+02 -0.87829041842E+02 -0.90459259197E+02  0.21966269793E+03  0.17300000000E+03 0.  1.
</event>
<event>
 4    1  0.5712137E+000  0.1000000E+03  0.7546771E-02  0.1280296E+00
         21   -1    0    0  503  502  0.00000000000E+00  0.00000000000E+00  0.68415181204E+03  0.68415181204E+03  0.00000000000E+00 0.  1.
         21   -1    0    0  501  503 -0.00000000000E+00 -0.00000000000E+00 -0.64778382053E+02  0.64778382053E+02  0.00000000000E+00 0. -1.
          6    1    1    2  501    0 -0.63164095719E+02 -0.87267329577E+02  0.21583302146E+03  0.29684706998E+03  0.17300000000E+03 0. -1.
         -6    1    1    2    0  502  0.63164095719E+02  0.87267329577E+02  0.40354040852E+03  0.45208312411E+03  0.17300000000E+03 0.  1.
</event>
<event>
 4    1  0.5712137E+000  0.1000000E+03  0.7546771E-02  0.1280296E+00
         21   -1    0    0  501  502  0.00000000000E+00  0.00000000000E+00  0.56199190656E+03  0.56199190656E+03  0.00000000000E+00 0.  1.
         21   -1    0    0  502  503 -0.00000000000E+00 -0.00000000000E+00 -0.17031269727E+03  0.17031269727E+03  0.00000000000E+00 0.  1.
          6    1    1    2  501    0 -0.12140687441E+03  0.18293686726E+03  0.35276042551E+03  0.45008270836E+03  0.17300000000E+03 0.  1.
         -6    1    1    2    0  503  0.12140687441E+03 -0.18293686726E+03  0.38918783772E+02  0.28222189547E+03  0.17300000000E+03 0.  1.
</event>
<event>
 4    1  0.5712137E+000  0.1000000E+03  0.7546771E-02  0.1280296E+00
         21   -1    0    0  501  502  0.00000000000E+00  0.00000000000E+00  0.67150467266E+02  0.67150467266E+02  0.00000000000E+00 0.  1.
         21   -1    0    0  502  503 -0.00000000000E+00 -0.00000000000E+00 -0.72541645307E+03  0.72541645307E+03  0.00000000000E+00 0.  1.
          6    1    1    2  501    0 -0.12361028565E+03  0.56226278476E+02 -0.29592059471E+03  0.36869892254E+03  0.17300000000E+03 0.  1.
         -6    1    1    2    0  503  0.12361028565E+03 -0.56226278476E+02 -0.36234539109E+03  0.42386799780E+03  0.17300000000E+03 0.  1.
</event>
<event>
 4    1  0.5712137E+000  0.1000000E+03  0.7546771E-02  0.1280296E+00
         21   -1    0    0  501  502  0.00000000000E+00  0.00000000000E+00  0.47941089421E+03  0.47941089421E+03  0.00000000000E+00 0.  1.
         21   -1    0    0  502  503 -0.00000000000E+00 -0.00000000000E+00 -0.79513121318E+02  0.79513121318E+02  0.00000000000E+00 0.  1.
          6    1    1    2  501    0 -0.51993816235E+02  0.32206883292E+02  0.29543065779E+03  0.34777710365E+03  0.17300000000E+03 0.  1.
         -6    1    1    2    0  503  0.51993816235E+02 -0.32206883292E+02  0.10446711510E+03  0.21114691188E+03  0.17300000000E+03 0.  1.
</event>
<event>
 4    1  0.5712137E+000  0.1000000E+03  0.7546771E-02  0.1280296E+00
         21   -1    0    0  501  502  0.00000000000E+00  0.00000000000E+00  0.32589801990E+03  0.32589801990E+03  0.00000000000E+00 0.  1.
         21   -1    0    0  502  503 -0.00000000000E+00 -0.00000000000E+00 -0.40970680472E+03  0.40970680472E+03  0.00000000000E+00 0.  1.
          6    1    1    2  501    0 -0.29551274952E+03 -0.92079496040E+02  0.46919189241E+02  0.35768258140E+03  0.17300000000E+03 0.  1.
         -6    1    1    2    0  503  0.29551274952E+03  0.92079496040E+02 -0.13072797406E+03  0.37792224322E+03  0.17300000000E+03 0.  1.
</event>
<event>
 4    1  0.5712137E+000  0.1000000E+03  0.7546771E-02  0.1280296E+00
         21   -1    0    0  503  502  0.00000000000E+00  0.00000000000E+00  0.50166716893E+02  0.50166716893E+02  0.00000000000E+00 0.  1.
         21   -1    0    0  501  503 -0.00000000000E+00 -0.00000000000E+00 -0.13538294652E+04  0.13538294652E+04  0.00000000000E+00 0.  1.
          6    1    1    2  501    0 -0.16521684823E+03 -0.67102452865E+02 -0.86374091258E+03  0.89876399026E+03  0.17300000000E+03 0.  1.
         -6    1    1    2    0  502  0.16521684823E+03  0.67102452865E+02 -0.43992183575E+03  0.50523219186E+03  0.17300000000E+03 0.  1.
</event>
<event>
 4    1  0.5712137E+000  0.1000000E+03  0.7546771E-02  0.1280296E+00
         21   -1    0    0  503  502  0.00000000000E+00  0.00000000000E+00  0.11669766638E+03  0.11669766638E+03  0.00000000000E+00 0.  1.
         21   -1    0    0  501  503 -0.00000000000E+00 -0.00000000000E+00 -0.48888746222E+03  0.48888746222E+03  0.00000000000E+00 0.  1.
          6    1    1    2  501    0 -0.57704826767E+02 -0.11773113828E+03 -0.31243470969E+03  0.38044042342E+03  0.17300000000E+03 0.  1.
         -6    1    1    2    0  502  0.57704826767E+02  0.11773113828E+03 -0.59755086153E+02  0.22514470519E+03  0.17300000000E+03 0.  1.
</event>
<event>
 4    1  0.5712137E+000  0.1000000E+03  0.7546771E-02  0.1280296E+00
         21   -1    0    0  503  502  0.00000000000E+00  0.00000000000E+00  0.26693653924E+03  0.26693653924E+03  0.00000000000E+00 0.  1.
         21   -1    0    0  501  503 -0.00000000000E+00 -0.00000000000E+00 -0.17795604653E+03  0.17795604653E+03  0.00000000000E+00 0.  1.
          6    1    1    2  501    0  0.58891981748E+02  0.40487242913E+02 -0.69465665761E+02  0.19965460444E+03  0.17300000000E+03 0.  1.
         -6    1    1    2    0  502 -0.58891981748E+02 -0.40487242913E+02  0.15844615848E+03  0.24523798134E+03  0.17300000000E+03 0.  1.
</event>
<event>
 4    1  0.5712137E+000  0.1000000E+03  0.7546771E-02  0.1280296E+00
         21   -1    0    0  503  502  0.00000000000E+00  0.00000000000E+00  0.30098254584E+02  0.30098254584E+02  0.00000000000E+00 0. -1.
         21   -1    0    0  501  503 -0.00000000000E+00 -0.00000000000E+00 -0.17931009276E+04  0.17931009276E+04  0.00000000000E+00 0. -1.
          6    1    1    2  501    0  0.86452428985E+02 -0.62636416459E+02 -0.13227199747E+04  0.13382505276E+04  0.17300000000E+03 0. -1.
         -6    1    1    2    0  502 -0.86452428985E+02  0.62636416459E+02 -0.44028269827E+03  0.48494865454E+03  0.17300000000E+03 0. -1.
</event>
<event>
 4    1  0.5712137E+000  0.1000000E+03  0.7546771E-02  0.1280296E+00
         21   -1    0    0  503  502  0.00000000000E+00  0.00000000000E+00  0.37195434005E+02  0.37195434005E+02  0.00000000000E+00 0. -1.
         21   -1    0    0  501  503 -0.00000000000E+00 -0.00000000000E+00 -0.14663345850E+04  0.14663345850E+04  0.00000000000E+00 0.  1.
          6    1    1    2  501    0  0.89240361399E+02 -0.79681375034E+02 -0.10412461722E+04  0.10622784732E+04  0.17300000000E+03 0.  1.
         -6    1    1    2    0  502 -0.89240361399E+02  0.79681375034E+02 -0.38789297886E+03  0.44125154581E+03  0.17300000000E+03 0. -1.
</event>
<event>
 4    1  0.5712137E+000  0.1000000E+03  0.7546771E-02  0.1280296E+00
         21   -1    0    0  503  502  0.00000000000E+00  0.00000000000E+00  0.45163589150E+03  0.45163589150E+03  0.00000000000E+00 0. -1.
         21   -1    0    0  501  503 -0.00000000000E+00 -0.00000000000E+00 -0.20460349747E+03  0.20460349747E+03  0.00000000000E+00 0.  1.
          6    1    1    2  501    0  0.35824046314E+01 -0.65202593305E+02 -0.13691427857E+03  0.23008418345E+03  0.17300000000E+03 0.  1.
         -6    1    1    2    0  502 -0.35824046314E+01  0.65202593305E+02  0.38394667260E+03  0.42615520553E+03  0.17300000000E+03 0. -1.
</event>
<event>
 4    1  0.5712137E+000  0.1000000E+03  0.7546771E-02  0.1280296E+00
         21   -1    0    0  503  502  0.00000000000E+00  0.00000000000E+00  0.90134436273E+02  0.90134436273E+02  0.00000000000E+00 0. -1.
         21   -1    0    0  501  503 -0.00000000000E+00 -0.00000000000E+00 -0.60875345622E+03  0.60875345622E+03  0.00000000000E+00 0.  1.
          6    1    1    2  501    0  0.33731985349E+02 -0.14750085853E+03 -0.32679276572E+03  0.39952079024E+03  0.17300000000E+03 0.  1.
         -6    1    1    2    0  502 -0.33731985349E+02  0.14750085853E+03 -0.19182625423E+03  0.29936710226E+03  0.17300000000E+03 0. -1.
</event>
<event>
 4    1  0.5712137E+000  0.1000000E+03  0.7546771E-02  0.1280296E+00
         21   -1    0    0  501  502  0.00000000000E+00  0.00000000000E+00  0.13138878508E+03  0.13138878508E+03  0.00000000000E+00 0.  1.
         21   -1    0    0  502  503 -0.00000000000E+00 -0.00000000000E+00 -0.58393005405E+03  0.58393005405E+03  0.00000000000E+00 0.  1.
          6    1    1    2  501    0  0.64221712930E+01 -0.76997142293E+02  0.34622627034E+02  0.19260719225E+03  0.17300000000E+03 0.  1.
         -6    1    1    2    0  503 -0.64221712930E+01  0.76997142293E+02 -0.48716389600E+03  0.52271164687E+03  0.17300000000E+03 0.  1.
</event>
<event>
 4    1  0.5712137E+000  0.1000000E+03  0.7546771E-02  0.1280296E+00
         21   -1    0    0  501  502  0.00000000000E+00  0.00000000000E+00  0.48619343639E+03  0.48619343639E+03  0.00000000000E+00 0.  1.
         21   -1    0    0  502  503 -0.00000000000E+00 -0.00000000000E+00 -0.43260649040E+03  0.43260649040E+03  0.00000000000E+00 0.  1.
          6    1    1    2  501    0 -0.37536445704E+02  0.24546441727E+03  0.37196726700E+03  0.47953145113E+03  0.17300000000E+03 0.  1.
         -6    1    1    2    0  503  0.37536445704E+02 -0.24546441727E+03 -0.31838032101E+03  0.43926847566E+03  0.17300000000E+03 0.  1.
</event>
<event>
 4    1  0.5712137E+000  0.1000000E+03  0.7546771E-02  0.1280296E+00
         21   -1    0    0  501  502  0.00000000000E+00  0.00000000000E+00  0.76545344079E+02  0.76545344079E+02  0.00000000000E+00 0.  1.
         21   -1    0    0  502  503 -0.00000000000E+00 -0.00000000000E+00 -0.79557505016E+03  0.79557505016E+03  0.00000000000E+00 0.  1.
          6    1    1    2  501    0 -0.96908813315E+02  0.12452199518E+03 -0.49720257514E+03  0.54957842580E+03  0.17300000000E+03 0.  1.
         -6    1    1    2    0  503  0.96908813315E+02 -0.12452199518E+03 -0.22182713095E+03  0.32254196844E+03  0.17300000000E+03 0.  1.
</event>
<event>
 4    1  0.5712137E+000  0.1000000E+03  0.7546771E-02  0.1280296E+00
         21   -1    0    0  501  502  0.00000000000E+00  0.00000000000E+00  0.10328066963E+04  0.10328066963E+04  0.00000000000E+00 0. -1.
         21   -1    0    0  502  503 -0.00000000000E+00 -0.00000000000E+00 -0.62771994427E+02  0.62771994427E+02  0.00000000000E+00 0. -1.
          6    1    1    2  501    0 -0.16817956638E+03  0.75735552879E+02  0.42112057596E+03  0.49121459671E+03  0.17300000000E+03 0. -1.
         -6    1    1    2    0  503  0.16817956638E+03 -0.75735552879E+02  0.54891412592E+03  0.60436409403E+03  0.17300000000E+03 0. -1.
</event>
<event>
 4    1  0.5712137E+000  0.1000000E+03  0.7546771E-02  0.1280296E+00
         21   -1    0    0  501  502  0.00000000000E+00  0.00000000000E+00  0.70666607685E+03  0.70666607685E+03  0.00000000000E+00 0. -1.
         21   -1    0    0  502  503 -0.00000000000E+00 -0.00000000000E+00 -0.64214100928E+02  0.64214100928E+02  0.00000000000E+00 0. -1.
          6    1    1    2  501    0  0.18893258252E+02  0.46204388727E+02  0.52718884113E+03  0.55708964715E+03  0.17300000000E+03 0. -1.
         -6    1    1    2    0  503 -0.18893258252E+02 -0.46204388727E+02  0.11526313479E+03  0.21379053063E+03  0.17300000000E+03 0. -1.
</event>
<event>
 4    1  0.5712137E+000  0.1000000E+03  0.7546771E-02  0.1280296E+00
         21   -1    0    0  503  502  0.00000000000E+00  0.00000000000E+00  0.97551590171E+03  0.97551590171E+03  0.00000000000E+00 0. -1.
         21   -1    0    0  501  503 -0.00000000000E+00 -0.00000000000E+00 -0.61414014851E+02  0.61414014851E+02  0.00000000000E+00 0.  1.
          6    1    1    2  501    0 -0.30549789039E+02 -0.16011409547E+03  0.33332995060E+03  0.40939915626E+03  0.17300000000E+03 0.  1.
         -6    1    1    2    0  502  0.30549789039E+02  0.16011409547E+03  0.58077193627E+03  0.62753076031E+03  0.17300000000E+03 0. -1.
</event>
<event>
 4    1  0.5712137E+000  0.1000000E+03  0.7546771E-02  0.1280296E+00
         21   -1    0    0  501  502  0.00000000000E+00  0.00000000000E+00  0.34690134970E+03  0.34690134970E+03  0.00000000000E+00 0. -1.
         21   -1    0    0  502  503 -0.00000000000E+00 -0.00000000000E+00 -0.13268523623E+03  0.13268523623E+03  0.00000000000E+00 0. -1.
          6    1    1    2  501    0  0.64117535112E+02  0.10282443366E+03  0.65052989489E+02  0.22100862858E+03  0.17300000000E+03 0.  1.
         -6    1    1    2    0  503 -0.64117535112E+02 -0.10282443366E+03  0.14916312399E+03  0.25857795734E+03  0.17300000000E+03 0.  1.
</event>
<event>
 4    1  0.5712137E+000  0.1000000E+03  0.7546771E-02  0.1280296E+00
         21   -1    0    0  501  502  0.00000000000E+00  0.00000000000E+00  0.18863148936E+02  0.18863148936E+02  0.00000000000E+00 0. -1.
         21   -1    0    0  502  503 -0.00000000000E+00 -0.00000000000E+00 -0.24765523407E+04  0.24765523407E+04  0.00000000000E+00 0. -1.
          6    1    1    2  501    0 -0.86080754558E+01 -0.81298914230E+02 -0.64860627895E+03  0.67624161179E+03  0.17300000000E+03 0.  1.
         -6    1    1    2    0  503  0.86080754558E+01  0.81298914230E+02 -0.18090829128E+04  0.18191738778E+04  0.17300000000E+03 0.  1.
</event>
<event>
 4    1  0.5712137E+000  0.1000000E+03  0.7546771E-02  0.1280296E+00
         21   -1    0    0  501  502  0.00000000000E+00  0.00000000000E+00  0.18139214477E+04  0.18139214477E+04  0.00000000000E+00 0. -1.
         21   -1    0    0  502  503 -0.00000000000E+00 -0.00000000000E+00 -0.23523567356E+02  0.23523567356E+02  0.00000000000E+00 0. -1.
          6    1    1    2  501    0 -0.37648433384E+02  0.10634020808E+03  0.91257238788E+03  0.93565111420E+03  0.17300000000E+03 0.  1.
         -6    1    1    2    0  503  0.37648433384E+02 -0.10634020808E+03  0.87782549245E+03  0.90179390084E+03  0.17300000000E+03 0.  1.
</event>
<event>
 4    1  0.5712137E+000  0.1000000E+03  0.7546771E-02  0.1280296E+00
         21   -1    0    0  501  502  0.00000000000E+00  0.00000000000E+00  0.32656581566E+03  0.32656581566E+03  0.00000000000E+00 0. -1.
         21   -1    0    0  502  503 -0.00000000000E+00 -0.00000000000E+00 -0.10830857373E+03  0.10830857373E+03  0.00000000000E+00 0. -1.
          6    1    1    2  501    0 -0.11481348687E+02  0.58780213544E+02  0.59347436200E+02  0.19245272940E+03  0.17300000000E+03 0. -1.
         -6    1    1    2    0  503  0.11481348687E+02 -0.58780213544E+02  0.15890980573E+03  0.24242165999E+03  0.17300000000E+03 0. -1.
</event>
<event>
 4    1  0.5712137E+000  0.1000000E+03  0.7546771E-02  0.1280296E+00
         21   -1    0    0  501  502  0.00000000000E+00  0.00000000000E+00  0.23373431238E+02  0.23373431238E+02  0.00000000000E+00 0. -1.
         21   -1    0    0  502  503 -0.00000000000E+00 -0.00000000000E+00 -0.13488385935E+04  0.13488385935E+04  0.00000000000E+00 0. -1.
          6    1    1    2  501    0  0.27694445276E+02 -0.19411244780E+02 -0.58038002243E+03  0.60655894121E+03  0.17300000000E+03 0. -1.
         -6    1    1    2    0  503 -0.27694445276E+02  0.19411244780E+02 -0.74508513984E+03  0.76565308354E+03  0.17300000000E+03 0. -1.
</event>
<event>
 4    1  0.5712137E+000  0.1000000E+03  0.7546771E-02  0.1280296E+00
         21   -1    0    0  501  502  0.00000000000E+00  0.00000000000E+00  0.63690076102E+03  0.63690076102E+03  0.00000000000E+00 0.  1.
         21   -1    0    0  502  503 -0.00000000000E+00 -0.00000000000E+00 -0.10697133023E+03  0.10697133023E+03  0.00000000000E+00 0.  1.
          6    1    1    2  501    0  0.95064531948E+01 -0.36335513026E+02  0.53828156814E+03  0.56664511712E+03  0.17300000000E+03 0.  1.
         -6    1    1    2    0  503 -0.95064531948E+01  0.36335513026E+02 -0.83521373442E+01  0.17722697412E+03  0.17300000000E+03 0.  1.
</event>
<event>
 4    1  0.5712137E+000  0.1000000E+03  0.7546771E-02  0.1280296E+00
         21   -1    0    0  501  502  0.00000000000E+00  0.00000000000E+00  0.53483948934E+03  0.53483948934E+03  0.00000000000E+00 0.  1.
         21   -1    0    0  502  503 -0.00000000000E+00 -0.00000000000E+00 -0.37443497783E+03  0.37443497783E+03  0.00000000000E+00 0.  1.
          6    1    1    2  501    0  0.19756963963E+02 -0.94389785469E+02  0.48788623066E+03  0.52655649582E+03  0.17300000000E+03 0.  1.
         -6    1    1    2    0  503 -0.19756963963E+02  0.94389785469E+02 -0.32748171915E+03  0.38271797136E+03  0.17300000000E+03 0.  1.
</event>
<event>
 4    1  0.5712137E+000  0.1000000E+03  0.7546771E-02  0.1280296E+00
         21   -1    0    0  501  502  0.00000000000E+00  0.00000000000E+00  0.23776957508E+03  0.23776957508E+03  0.00000000000E+00 0.  1.
         21   -1    0    0  502  503 -0.00000000000E+00 -0.00000000000E+00 -0.15429126590E+04  0.15429126590E+04  0.00000000000E+00 0.  1.
          6    1    1    2  501    0  0.14783587939E+03  0.45441926451E+03 -0.16820372286E+03  0.53532588913E+03  0.17300000000E+03 0.  1.
         -6    1    1    2    0  503 -0.14783587939E+03 -0.45441926451E+03 -0.11369393611E+04  0.12453563450E+04  0.17300000000E+03 0.  1.
</event>
<event>
 4    1  0.5712137E+000  0.1000000E+03  0.7546771E-02  0.1280296E+00
         21   -1    0    0  501  502  0.00000000000E+00  0.00000000000E+00  0.40199059770E+02  0.40199059770E+02  0.00000000000E+00 0.  1.
         21   -1    0    0  502  503 -0.00000000000E+00 -0.00000000000E+00 -0.11600726718E+04  0.11600726718E+04  0.00000000000E+00 0.  1.
          6    1    1    2  501    0  0.80558032174E+02  0.81394102129E+02 -0.39341909590E+03  0.44477205559E+03  0.17300000000E+03 0.  1.
         -6    1    1    2    0  503 -0.80558032174E+02 -0.81394102129E+02 -0.72645451610E+03  0.75549967596E+03  0.17300000000E+03 0.  1.
</event>
<event>
 4    1  0.5712137E+000  0.1000000E+03  0.7546771E-02  0.1280296E+00
         21   -1    0    0  501  502  0.00000000000E+00  0.00000000000E+00  0.10038611411E+03  0.10038611411E+03  0.00000000000E+00 0. -1.
         21   -1    0    0  502  503 -0.00000000000E+00 -0.00000000000E+00 -0.45717667014E+03  0.45717667014E+03  0.00000000000E+00 0.  1.
          6    1    1    2  501    0 -0.12501328798E+01 -0.12196271384E+03 -0.13545709873E+03  0.25130477909E+03  0.17300000000E+03 0. -1.
         -6    1    1    2    0  503  0.12501328798E+01  0.12196271384E+03 -0.22133345730E+03  0.30625800515E+03  0.17300000000E+03 0.  1.
</event>
<event>
 4    1  0.5712137E+000  0.1000000E+03  0.7546771E-02  0.1280296E+00
         21   -1    0    0  501  502  0.00000000000E+00  0.00000000000E+00  0.19134906784E+03  0.19134906784E+03  0.00000000000E+00 0.  1.
         21   -1    0    0  502  503 -0.00000000000E+00 -0.00000000000E+00 -0.58899630627E+03  0.58899630627E+03  0.00000000000E+00 0.  1.
          6    1    1    2  501    0  0.16126589213E+03 -0.55120947382E+02  0.70575001927E+02  0.25289293723E+03  0.17300000000E+03 0.  1.
         -6    1    1    2    0  503 -0.16126589213E+03  0.55120947382E+02 -0.46822224036E+03  0.52745243688E+03  0.17300000000E+03 0.  1.
</event>
<event>
 4    1  0.5712137E+000  0.1000000E+03  0.7546771E-02  0.1280296E+00
         21   -1    0    0  501  502  0.00000000000E+00  0.00000000000E+00  0.62835330186E+02  0.62835330186E+02  0.00000000000E+00 0.  1.
         21   -1    0    0  502  503 -0.00000000000E+00 -0.00000000000E+00 -0.87090663991E+03  0.87090663991E+03  0.00000000000E+00 0.  1.
          6    1    1    2  501    0 -0.52584327848E+02  0.43135599695E+02 -0.68746864486E+03  0.71215723626E+03  0.17300000000E+03 0.  1.
         -6    1    1    2    0  503  0.52584327848E+02 -0.43135599695E+02 -0.12060266487E+03  0.22158473384E+03  0.17300000000E+03 0.  1.
</event>
<event>
 4    1  0.5712137E+000  0.1000000E+03  0.7546771E-02  0.1280296E+00
         21   -1    0    0  503  502  0.00000000000E+00  0.00000000000E+00  0.20140888680E+03  0.20140888680E+03  0.00000000000E+00 0. -1.
         21   -1    0    0  501  503 -0.00000000000E+00 -0.00000000000E+00 -0.23814995365E+03  0.23814995365E+03  0.00000000000E+00 0. -1.
          6    1    1    2  501    0  0.30294669734E+02 -0.24748286106E+01 -0.14964515599E+03  0.23075217118E+03  0.17300000000E+03 0. -1.
         -6    1    1    2    0  502 -0.30294669734E+02  0.24748286106E+01  0.11290408914E+03  0.20880666928E+03  0.17300000000E+03 0. -1.
</event>
<event>
 4    1  0.5712137E+000  0.1000000E+03  0.7546771E-02  0.1280296E+00
         21   -1    0    0  503  502  0.00000000000E+00  0.00000000000E+00  0.10515394674E+04  0.10515394674E+04  0.00000000000E+00 0. -1.
         21   -1    0    0  501  503 -0.00000000000E+00 -0.00000000000E+00 -0.85112355642E+02  0.85112355642E+02  0.00000000000E+00 0. -1.
          6    1    1    2  501    0  0.49163482149E+02 -0.88330797279E+02  0.61191951159E+02  0.20950616366E+03  0.17300000000E+03 0. -1.
         -6    1    1    2    0  502 -0.49163482149E+02  0.88330797279E+02  0.90523516055E+03  0.92714565933E+03  0.17300000000E+03 0. -1.
</event>
<event>
 4    1  0.5712137E+000  0.1000000E+03  0.7546771E-02  0.1280296E+00
         21   -1    0    0  503  502  0.00000000000E+00  0.00000000000E+00  0.25443961830E+03  0.25443961830E+03  0.00000000000E+00 0. -1.
         21   -1    0    0  501  503 -0.00000000000E+00 -0.00000000000E+00 -0.74135516006E+03  0.74135516006E+03  0.00000000000E+00 0. -1.
          6    1    1    2  501    0 -0.14401790195E+03  0.92119826882E+01 -0.66913189937E+03  0.70604002398E+03  0.17300000000E+03 0. -1.
         -6    1    1    2    0  502  0.14401790195E+03 -0.92119826882E+01  0.18221635760E+03  0.28975475438E+03  0.17300000000E+03 0. -1.
</event>
<event>
 4    1  0.5712137E+000  0.1000000E+03  0.7546771E-02  0.1280296E+00
         21   -1    0    0  503  502  0.00000000000E+00  0.00000000000E+00  0.10852857984E+03  0.10852857984E+03  0.00000000000E+00 0. -1.
         21   -1    0    0  501  503 -0.00000000000E+00 -0.00000000000E+00 -0.55478878578E+03  0.55478878578E+03  0.00000000000E+00 0. -1.
          6    1    1    2  501    0  0.84749962888E+02 -0.15082478245E+03 -0.24844436938E+03  0.34868936876E+03  0.17300000000E+03 0. -1.
         -6    1    1    2    0  502 -0.84749962888E+02  0.15082478245E+03 -0.19781583656E+03  0.31462799685E+03  0.17300000000E+03 0. -1.
</event>
<event>
 4    1  0.5712137E+000  0.1000000E+03  0.7546771E-02  0.1280296E+00
         21   -1    0    0  501  502  0.00000000000E+00  0.00000000000E+00  0.73690695745E+03  0.73690695745E+03  0.00000000000E+00 0.  1.
         21   -1    0    0  502  503 -0.00000000000E+00 -0.00000000000E+00 -0.50681341927E+02  0.50681341927E+02  0.00000000000E+00 0. -1.
          6    1    1    2  501    0  0.38855717894E+02 -0.42930093255E+02  0.47304152238E+03  0.50700102723E+03  0.17300000000E+03 0.  1.
         -6    1    1    2    0  503 -0.38855717894E+02  0.42930093255E+02  0.21318409314E+03  0.28058727214E+03  0.17300000000E+03 0. -1.
</event>
<event>
 4    1  0.5712137E+000  0.1000000E+03  0.7546771E-02  0.1280296E+00
         21   -1    0    0  501  502  0.00000000000E+00  0.00000000000E+00  0.76038067485E+02  0.76038067485E+02  0.00000000000E+00 0.  1.
         21   -1    0    0  502  503 -0.00000000000E+00 -0.00000000000E+00 -0.40337796320E+03  0.40337796320E+03  0.00000000000E+00 0. -1.
          6    1    1    2  501    0  0.19341053242E+02 -0.19197476996E+02 -0.16274030991E+03  0.23907326897E+03  0.17300000000E+03 0.  1.
         -6    1    1    2    0  503 -0.19341053242E+02  0.19197476996E+02 -0.16459958580E+03  0.24034276171E+03  0.17300000000E+03 0. -1.
</event>
<event>
 4    1  0.5712137E+000  0.1000000E+03  0.7546771E-02  0.1280296E+00
         21   -1    0    0  501  502  0.00000000000E+00  0.00000000000E+00  0.13411808813E+03  0.13411808813E+03  0.00000000000E+00 0.  1.
         21   -1    0    0  502  503 -0.00000000000E+00 -0.00000000000E+00 -0.31410624907E+03  0.31410624907E+03  0.00000000000E+00 0. -1.
          6    1    1    2  501    0 -0.93501595701E+02 -0.38116796643E+02 -0.41127479560E+02  0.20448938398E+03  0.17300000000E+03 0.  1.
         -6    1    1    2    0  503  0.93501595701E+02  0.38116796643E+02 -0.13886068138E+03  0.24373495321E+03  0.17300000000E+03 0. -1.
</event>
<event>
 4    1  0.5712137E+000  0.1000000E+03  0.7546771E-02  0.1280296E+00
         21   -1    0    0  501  502  0.00000000000E+00  0.00000000000E+00  0.11589559512E+03  0.11589559512E+03  0.00000000000E+00 0.  1.
         21   -1    0    0  502  503 -0.00000000000E+00 -0.00000000000E+00 -0.35205603920E+03  0.35205603920E+03  0.00000000000E+00 0. -1.
          6    1    1    2  501    0  0.46317881970E+02  0.91433053719E+02 -0.95877918382E+02  0.22277101413E+03  0.17300000000E+03 0.  1.
         -6    1    1    2    0  503 -0.46317881970E+02 -0.91433053719E+02 -0.14028252570E+03  0.24518062019E+03  0.17300000000E+03 0. -1.
</event>
<event>
 4    1  0.5712137E+000  0.1000000E+03  0.7546771E-02  0.1280296E+00
         21   -1    0    0  501  502  0.00000000000E+00  0.00000000000E+00  0.90973542235E+03  0.90973542235E+03  0.00000000000E+00 0.  1.
         21   -1    0    0  502  503 -0.00000000000E+00 -0.00000000000E+00 -0.52549734517E+02  0.52549734517E+02  0.00000000000E+00 0. -1.
          6    1    1    2  501    0  0.96508787893E+02  0.12990490111E+02  0.63021229421E+03  0.66074142805E+03  0.17300000000E+03 0.  1.
         -6    1    1    2    0  503 -0.96508787893E+02 -0.12990490111E+02  0.22697339363E+03  0.30154372881E+03  0.17300000000E+03 0. -1.
</event>
<event>
 4    1  0.5712137E+000  0.1000000E+03  0.7546771E-02  0.1280296E+00
         21   -1    0    0  503  502  0.00000000000E+00  0.00000000000E+00  0.25612084134E+03  0.25612084134E+03  0.00000000000E+00 0.  1.
         21   -1    0    0  501  503 -0.00000000000E+00 -0.00000000000E+00 -0.30200624155E+03  0.30200624155E+03  0.00000000000E+00 0. -1.
          6    1    1    2  501    0  0.42894852971E+02 -0.21343402475E+03 -0.17724907779E+02  0.27863457016E+03  0.17300000000E+03 0. -1.
         -6    1    1    2    0  502 -0.42894852971E+02  0.21343402475E+03 -0.28160492436E+02  0.27949251272E+03  0.17300000000E+03 0. -1.
</event>
<event>
 4    1  0.5712137E+000  0.1000000E+03  0.7546771E-02  0.1280296E+00
         21   -1    0    0  503  502  0.00000000000E+00  0.00000000000E+00  0.73555182417E+02  0.73555182417E+02  0.00000000000E+00 0.  1.
         21   -1    0    0  501  503 -0.00000000000E+00 -0.00000000000E+00 -0.13719985917E+04  0.13719985917E+04  0.00000000000E+00 0. -1.
          6    1    1    2  501    0 -0.96436348572E+02 -0.29531396610E+02 -0.12103105279E+04  0.12267651147E+04  0.17300000000E+03 0. -1.
         -6    1    1    2    0  502  0.96436348572E+02  0.29531396610E+02 -0.88132881403E+02  0.21878865943E+03  0.17300000000E+03 0. -1.
</event>
<event>
 4    1  0.5712137E+000  0.1000000E+03  0.7546771E-02  0.1280296E+00
         21   -1    0    0  503  502  0.00000000000E+00  0.00000000000E+00  0.22460898183E+03  0.22460898183E+03  0.00000000000E+00 0.  1.
         21   -1    0    0  501  503 -0.00000000000E+00 -0.00000000000E+00 -0.23765650962E+03  0.23765650962E+03  0.00000000000E+00 0. -1.
          6    1    1    2  501    0  0.12366556079E+03 -0.20515411237E+02 -0.94517525581E+02  0.23361638570E+03  0.17300000000E+03 0. -1.
         -6    1    1    2    0  502 -0.12366556079E+03  0.20515411237E+02  0.81469997790E+02  0.22864910576E+03  0.17300000000E+03 0. -1.
</event>
<event>
 4    1  0.5712137E+000  0.1000000E+03  0.7546771E-02  0.1280296E+00
         21   -1    0    0  503  502  0.00000000000E+00  0.00000000000E+00  0.49213181049E+03  0.49213181049E+03  0.00000000000E+00 0. -1.
         21   -1    0    0  501  503 -0.00000000000E+00 -0.00000000000E+00 -0.13260459378E+03  0.13260459378E+03  0.00000000000E+00 0. -1.
          6    1    1    2  501    0  0.11112428937E+03  0.50202637629E+02  0.48552671227E+01  0.21171085501E+03  0.17300000000E+03 0. -1.
         -6    1    1    2    0  502 -0.11112428937E+03 -0.50202637629E+02  0.35467194959E+03  0.41302554926E+03  0.17300000000E+03 0. -1.
</event>
<event>
 4    1  0.5712137E+000  0.1000000E+03  0.7546771E-02  0.1280296E+00
         21   -1    0    0  503  502  0.00000000000E+00  0.00000000000E+00  0.22965282112E+03  0.22965282112E+03  0.00000000000E+00 0. -1.
         21   -1    0    0  501  503 -0.00000000000E+00 -0.00000000000E+00 -0.28823198895E+03  0.28823198895E+03  0.00000000000E+00 0. -1.
          6    1    1    2  501    0 -0.88381238882E+02  0.41059143759E+02 -0.19395318489E+03  0.27756789188E+03  0.17300000000E+03 0. -1.
         -6    1    1    2    0  502  0.88381238882E+02 -0.41059143759E+02  0.13537401707E+03  0.24031691819E+03  0.17300000000E+03 0. -1.
</event>
<event>
 4    1  0.5712137E+000  0.1000000E+03  0.7546771E-02  0.1280296E+00
         21   -1    0    0  503  502  0.00000000000E+00  0.00000000000E+00  0.44330915826E+03  0.44330915826E+03  0.00000000000E+00 0. -1.
         21   -1    0    0  501  503 -0.00000000000E+00 -0.00000000000E+00 -0.15862442286E+03  0.15862442286E+03  0.00000000000E+00 0. -1.
          6    1    1    2  501    0 -0.10707005663E+03 -0.11008829105E+03 -0.47967936269E+01  0.23137726354E+03  0.17300000000E+03 0. -1.
         -6    1    1    2    0  502  0.10707005663E+03  0.11008829105E+03  0.28948152903E+03  0.37055631758E+03  0.17300000000E+03 0. -1.
</event>
<event>
 4    1  0.5712137E+000  0.1000000E+03  0.7546771E-02  0.1280296E+00
         21   -1    0    0  503  502  0.00000000000E+00  0.00000000000E+00  0.27943650947E+03  0.27943650947E+03  0.00000000000E+00 0. -1.
         21   -1    0    0  501  503 -0.00000000000E+00 -0.00000000000E+00 -0.32266523475E+03  0.32266523475E+03  0.00000000000E+00 0. -1.
          6    1    1    2  501    0  0.19120052744E+03  0.13595927075E+03 -0.93862466286E+02  0.30623802438E+03  0.17300000000E+03 0. -1.
         -6    1    1    2    0  502 -0.19120052744E+03 -0.13595927075E+03  0.50633741006E+02  0.29586371985E+03  0.17300000000E+03 0. -1.
</event>
<event>
 4    1  0.5712137E+000  0.1000000E+03  0.7546771E-02  0.1280296E+00
         21   -1    0    0  501  502  0.00000000000E+00  0.00000000000E+00  0.10450812144E+03  0.10450812144E+03  0.00000000000E+00 0. -1.
         21   -1    0    0  502  503 -0.00000000000E+00 -0.00000000000E+00 -0.72752002671E+03  0.72752002671E+03  0.00000000000E+00 0. -1.
          6    1    1    2  501    0 -0.46190251628E+02  0.32729192482E+02  0.97899993044E+00  0.18202938726E+03  0.17300000000E+03 0. -1.
         -6    1    1    2    0  503  0.46190251628E+02 -0.32729192482E+02 -0.62399090520E+03  0.64999876089E+03  0.17300000000E+03 0. -1.
</event>
<event>
 4    1  0.5712137E+000  0.1000000E+03  0.7546771E-02  0.1280296E+00
         21   -1    0    0  501  502  0.00000000000E+00  0.00000000000E+00  0.36418173598E+03  0.36418173598E+03  0.00000000000E+00 0.  1.
         21   -1    0    0  502  503 -0.00000000000E+00 -0.00000000000E+00 -0.14037166275E+03  0.14037166275E+03  0.00000000000E+00 0.  1.
          6    1    1    2  501    0 -0.12533158085E+03  0.17297988411E+02  0.19224557162E+03  0.28791419793E+03  0.17300000000E+03 0. -1.
         -6    1    1    2    0  503  0.12533158085E+03 -0.17297988411E+02  0.31564501610E+02  0.21663920080E+03  0.17300000000E+03 0. -1.
</event>
<event>
 4    1  0.5712137E+000  0.1000000E+03  0.7546771E-02  0.1280296E+00
         21   -1    0    0  503  502  0.00000000000E+00  0.00000000000E+00  0.63813815349E+03  0.63813815349E+03  0.00000000000E+00 0. -1.
         21   -1    0    0  501  503 -0.00000000000E+00 -0.00000000000E+00 -0.12611064818E+03  0.12611064818E+03  0.00000000000E+00 0. -1.
          6    1    1    2  501    0 -0.44403582583E+02 -0.22039739701E+03  0.25678215509E+03  0.38263921117E+03  0.17300000000E+03 0. -1.
         -6    1    1    2    0  502  0.44403582583E+02  0.22039739701E+03  0.25524535022E+03  0.38160959050E+03  0.17300000000E+03 0. -1.
</event>
<event>
 4    1  0.5712137E+000  0.1000000E+03  0.7546771E-02  0.1280296E+00
         21   -1    0    0  503  502  0.00000000000E+00  0.00000000000E+00  0.53914222141E+03  0.53914222141E+03  0.00000000000E+00 0. -1.
         21   -1    0    0  501  503 -0.00000000000E+00 -0.00000000000E+00 -0.10644236319E+04  0.10644236319E+04  0.00000000000E+00 0. -1.
          6    1    1    2  501    0  0.44156715273E+02 -0.27901620959E+03 -0.98370764975E+03  0.10379834300E+04  0.17300000000E+03 0. -1.
         -6    1    1    2    0  502 -0.44156715273E+02  0.27901620959E+03  0.45842623928E+03  0.56558242333E+03  0.17300000000E+03 0. -1.
</event>
<event>
 4    1  0.5712137E+000  0.1000000E+03  0.7546771E-02  0.1280296E+00
         21   -1    0    0  501  502  0.00000000000E+00  0.00000000000E+00  0.35882777332E+02  0.35882777332E+02  0.00000000000E+00 0. -1.
         21   -1    0    0  502  503 -0.00000000000E+00 -0.00000000000E+00 -0.10602504188E+04  0.10602504188E+04  0.00000000000E+00 0. -1.
          6    1    1    2  501    0 -0.38643001961E+02  0.14486950964E+02 -0.28717354196E+03  0.33778809415E+03  0.17300000000E+03 0. -1.
         -6    1    1    2    0  503  0.38643001961E+02 -0.14486950964E+02 -0.73719409954E+03  0.75834510202E+03  0.17300000000E+03 0. -1.
</event>
<event>
 4    1  0.5712137E+000  0.1000000E+03  0.7546771E-02  0.1280296E+00
         21   -1    0    0  501  502  0.00000000000E+00  0.00000000000E+00  0.93871616767E+02  0.93871616767E+02  0.00000000000E+00 0. -1.
         21   -1    0    0  502  503 -0.00000000000E+00 -0.00000000000E+00 -0.40818232913E+03  0.40818232913E+03  0.00000000000E+00 0. -1.
          6    1    1    2  501    0  0.57747482440E+02  0.68303844185E+02 -0.13190956035E+03  0.23522185054E+03  0.17300000000E+03 0. -1.
         -6    1    1    2    0  503 -0.57747482440E+02 -0.68303844185E+02 -0.18240115201E+03  0.26683209536E+03  0.17300000000E+03 0. -1.
</event>
<event>
 4    1  0.5712137E+000  0.1000000E+03  0.7546771E-02  0.1280296E+00
         21   -1    0    0  501  502  0.00000000000E+00  0.00000000000E+00  0.69878676756E+02  0.69878676756E+02  0.00000000000E+00 0. -1.
         21   -1    0    0  502  503 -0.00000000000E+00 -0.00000000000E+00 -0.61349803580E+03  0.61349803580E+03  0.00000000000E+00 0. -1.
          6    1    1    2  501    0 -0.14463387104E+02 -0.23645122865E+02 -0.89733667111E+02  0.19684870438E+03  0.17300000000E+03 0. -1.
         -6    1    1    2    0  503  0.14463387104E+02  0.23645122865E+02 -0.45388569193E+03  0.48652800818E+03  0.17300000000E+03 0. -1.
</event>
<event>
 4    1  0.5712137E+000  0.1000000E+03  0.7546771E-02  0.1280296E+00
         21   -1    0    0  501  502  0.00000000000E+00  0.00000000000E+00  0.14222575224E+03  0.14222575224E+03  0.00000000000E+00 0. -1.
         21   -1    0    0  502  503 -0.00000000000E+00 -0.00000000000E+00 -0.91101199702E+03  0.91101199702E+03  0.00000000000E+00 0. -1.
          6    1    1    2  501    0  0.88222557086E+02  0.11238460419E+03  0.27402230374E+02  0.22603849466E+03  0.17300000000E+03 0. -1.
         -6    1    1    2    0  503 -0.88222557086E+02 -0.11238460419E+03 -0.79618847516E+03  0.82719925460E+03  0.17300000000E+03 0. -1.
</event>
<event>
 4    1  0.5712137E+000  0.1000000E+03  0.7546771E-02  0.1280296E+00
         21   -1    0    0  501  502  0.00000000000E+00  0.00000000000E+00  0.38917134360E+03  0.38917134360E+03  0.00000000000E+00 0.  1.
         21   -1    0    0  502  503 -0.00000000000E+00 -0.00000000000E+00 -0.12380920005E+03  0.12380920005E+03  0.00000000000E+00 0. -1.
          6    1    1    2  501    0  0.13219876623E+03  0.27745578679E+02  0.13591544075E+03  0.25816339393E+03  0.17300000000E+03 0. -1.
         -6    1    1    2    0  503 -0.13219876623E+03 -0.27745578679E+02  0.12944670281E+03  0.25481714973E+03  0.17300000000E+03 0. -1.
</event>
<event>
 4    1  0.5712137E+000  0.1000000E+03  0.7546771E-02  0.1280296E+00
         21   -1    0    0  501  502  0.00000000000E+00  0.00000000000E+00  0.28505607523E+03  0.28505607523E+03  0.00000000000E+00 0.  1.
         21   -1    0    0  502  503 -0.00000000000E+00 -0.00000000000E+00 -0.14624235562E+03  0.14624235562E+03  0.00000000000E+00 0. -1.
          6    1    1    2  501    0 -0.64467489759E+02 -0.44914249817E+02  0.14833916961E+03  0.24105363783E+03  0.17300000000E+03 0. -1.
         -6    1    1    2    0  503  0.64467489759E+02  0.44914249817E+02 -0.95254499997E+01  0.19024479302E+03  0.17300000000E+03 0. -1.
</event>
<event>
 4    1  0.5712137E+000  0.1000000E+03  0.7546771E-02  0.1280296E+00
         21   -1    0    0  503  502  0.00000000000E+00  0.00000000000E+00  0.59833277095E+02  0.59833277095E+02  0.00000000000E+00 0.  1.
         21   -1    0    0  501  503 -0.00000000000E+00 -0.00000000000E+00 -0.67368726370E+03  0.67368726370E+03  0.00000000000E+00 0. -1.
          6    1    1    2  501    0 -0.89569634667E+02 -0.48108829133E+02 -0.29498469400E+03  0.35676623802E+03  0.17300000000E+03 0.  1.
         -6    1    1    2    0  502  0.89569634667E+02  0.48108829133E+02 -0.31886929261E+03  0.37675430278E+03  0.17300000000E+03 0.  1.
</event>
<event>
 4    1  0.5712137E+000  0.1000000E+03  0.7546771E-02  0.1280296E+00
         21   -1    0    0  501  502  0.00000000000E+00  0.00000000000E+00  0.40359455155E+03  0.40359455155E+03  0.00000000000E+00 0. -1.
         21   -1    0    0  502  503 -0.00000000000E+00 -0.00000000000E+00 -0.20466831030E+03  0.20466831030E+03  0.00000000000E+00 0.  1.
          6    1    1    2  501    0 -0.16552148915E+03 -0.77769098320E+02  0.24619936581E+03  0.35212004167E+03  0.17300000000E+03 0. -1.
         -6    1    1    2    0  503  0.16552148915E+03  0.77769098320E+02 -0.47273124551E+02  0.25614282018E+03  0.17300000000E+03 0.  1.
</event>
<event>
 4    1  0.5712137E+000  0.1000000E+03  0.7546771E-02  0.1280296E+00
         21   -1    0    0  501  502  0.00000000000E+00  0.00000000000E+00  0.11836020711E+04  0.11836020711E+04  0.00000000000E+00 0. -1.
         21   -1    0    0  502  503 -0.00000000000E+00 -0.00000000000E+00 -0.14058043464E+03  0.14058043464E+03  0.00000000000E+00 0.  1.
          6    1    1    2  501    0 -0.40693200994E+02  0.77310910022E+02  0.11040967725E+04  0.11209779643E+04  0.17300000000E+03 0. -1.
         -6    1    1    2    0  503  0.40693200994E+02 -0.77310910022E+02 -0.61075136043E+02  0.20320454143E+03  0.17300000000E+03 0.  1.
</event>
<event>
 4    1  0.5712137E+000  0.1000000E+03  0.7546771E-02  0.1280296E+00
         21   -1    0    0  503  502  0.00000000000E+00  0.00000000000E+00  0.21968319948E+03  0.21968319948E+03  0.00000000000E+00 0.  1.
         21   -1    0    0  501  503 -0.00000000000E+00 -0.00000000000E+00 -0.15544840162E+03  0.15544840162E+03  0.00000000000E+00 0.  1.
          6    1    1    2  501    0 -0.49033863040E+02  0.26459578843E+02 -0.17895710342E+01  0.18175981845E+03  0.17300000000E+03 0.  1.
         -6    1    1    2    0  502  0.49033863040E+02 -0.26459578843E+02  0.66024368897E+02  0.19337178265E+03  0.17300000000E+03 0.  1.
</event>
<event>
 4    1  0.5712137E+000  0.1000000E+03  0.7546771E-02  0.1280296E+00
         21   -1    0    0  501  502  0.00000000000E+00  0.00000000000E+00  0.38366261924E+03  0.38366261924E+03  0.00000000000E+00 0. -1.
         21   -1    0    0  502  503 -0.00000000000E+00 -0.00000000000E+00 -0.21232628321E+03  0.21232628321E+03  0.00000000000E+00 0. -1.
          6    1    1    2  501    0 -0.18130987669E+02 -0.74488799390E+02  0.30875676115E+03  0.36212850137E+03  0.17300000000E+03 0. -1.
         -6    1    1    2    0  503  0.18130987669E+02  0.74488799390E+02 -0.13742042512E+03  0.23386040107E+03  0.17300000000E+03 0. -1.
</event>
<event>
 4    1  0.5712137E+000  0.1000000E+03  0.7546771E-02  0.1280296E+00
         21   -1    0    0  501  502  0.00000000000E+00  0.00000000000E+00  0.73668605461E+03  0.73668605461E+03  0.00000000000E+00 0. -1.
         21   -1    0    0  502  503 -0.00000000000E+00 -0.00000000000E+00 -0.93345697277E+02  0.93345697277E+02  0.00000000000E+00 0. -1.
          6    1    1    2  501    0  0.33418446787E+02  0.14415925358E+03  0.52764661115E+03  0.57466392721E+03  0.17300000000E+03 0. -1.
         -6    1    1    2    0  503 -0.33418446787E+02 -0.14415925358E+03  0.11569374619E+03  0.25536782469E+03  0.17300000000E+03 0. -1.
</event>
<event>
 4    1  0.5712137E+000  0.1000000E+03  0.7546771E-02  0.1280296E+00
         21   -1    0    0  501  502  0.00000000000E+00  0.00000000000E+00  0.19009039825E+03  0.19009039825E+03  0.00000000000E+00 0. -1.
         21   -1    0    0  502  503 -0.00000000000E+00 -0.00000000000E+00 -0.40254434561E+03  0.40254434561E+03  0.00000000000E+00 0. -1.
          6    1    1    2  501    0  0.22572890849E+02 -0.15584656754E+03  0.51908728745E+02  0.23962721910E+03  0.17300000000E+03 0. -1.
         -6    1    1    2    0  503 -0.22572890849E+02  0.15584656754E+03 -0.26436267611E+03  0.35300752476E+03  0.17300000000E+03 0. -1.
</event>
<event>
 4    1  0.5712137E+000  0.1000000E+03  0.7546771E-02  0.1280296E+00
         21   -1    0    0  501  502  0.00000000000E+00  0.00000000000E+00  0.43433848031E+03  0.43433848031E+03  0.00000000000E+00 0. -1.
         21   -1    0    0  502  503 -0.00000000000E+00 -0.00000000000E+00 -0.15094823552E+03  0.15094823552E+03  0.00000000000E+00 0. -1.
          6    1    1    2  501    0 -0.17736018631E+03 -0.62747058324E+02  0.12399674466E+03  0.28407397224E+03  0.17300000000E+03 0. -1.
         -6    1    1    2    0  503  0.17736018631E+03  0.62747058324E+02  0.15939350013E+03  0.30121274359E+03  0.17300000000E+03 0. -1.
</event>
<event>
 4    1  0.5712137E+000  0.1000000E+03  0.7546771E-02  0.1280296E+00
         21   -1    0    0  503  502  0.00000000000E+00  0.00000000000E+00  0.14116944060E+04  0.14116944060E+04  0.00000000000E+00 0.  1.
         21   -1    0    0  501  503 -0.00000000000E+00 -0.00000000000E+00 -0.15440355981E+03  0.15440355981E+03  0.00000000000E+00 0.  1.
          6    1    1    2  501    0  0.20017830257E+03 -0.15048824543E+03  0.34891736455E+02  0.30637313542E+03  0.17300000000E+03 0.  1.
         -6    1    1    2    0  502 -0.20017830257E+03  0.15048824543E+03  0.12223991097E+04  0.12597248304E+04  0.17300000000E+03 0.  1.
</event>
<event>
 4    1  0.5712137E+000  0.1000000E+03  0.7546771E-02  0.1280296E+00
         21   -1    0    0  503  502  0.00000000000E+00  0.00000000000E+00  0.10671781182E+03  0.10671781182E+03  0.00000000000E+00 0. -1.
         21   -1    0    0  501  503 -0.00000000000E+00 -0.00000000000E+00 -0.41845219343E+03  0.41845219343E+03  0.00000000000E+00 0.  1.
          6    1    1    2  501    0 -0.24722904464E+02 -0.11714923618E+03 -0.18047355168E+03  0.27719103232E+03  0.17300000000E+03 0. -1.
         -6    1    1    2    0  502  0.24722904464E+02  0.11714923618E+03 -0.13126082993E+03  0.24797897293E+03  0.17300000000E+03 0. -1.
</event>
<event>
 4    1  0.5712137E+000  0.1000000E+03  0.7546771E-02  0.1280296E+00
         21   -1    0    0  501  502  0.00000000000E+00  0.00000000000E+00  0.37173781297E+03  0.37173781297E+03  0.00000000000E+00 0. -1.
         21   -1    0    0  502  503 -0.00000000000E+00 -0.00000000000E+00 -0.87819573619E+02  0.87819573619E+02  0.00000000000E+00 0. -1.
          6    1    1    2  501    0 -0.98822481497E+00 -0.50188279250E+02  0.15980947111E+03  0.24080678358E+03  0.17300000000E+03 0. -1.
         -6    1    1    2    0  503  0.98822481497E+00  0.50188279250E+02  0.12410876825E+03  0.21875060301E+03  0.17300000000E+03 0. -1.
</event>
<event>
 4    1  0.5712137E+000  0.1000000E+03  0.7546771E-02  0.1280296E+00
         21   -1    0    0  501  502  0.00000000000E+00  0.00000000000E+00  0.91252428716E+03  0.91252428716E+03  0.00000000000E+00 0. -1.
         21   -1    0    0  502  503 -0.00000000000E+00 -0.00000000000E+00 -0.90572342013E+02  0.90572342013E+02  0.00000000000E+00 0. -1.
          6    1    1    2  501    0  0.19196014553E+03  0.81436608920E+02  0.57867288182E+03  0.63896159735E+03  0.17300000000E+03 0. -1.
         -6    1    1    2    0  503 -0.19196014553E+03 -0.81436608920E+02  0.24327906333E+03  0.36413503182E+03  0.17300000000E+03 0. -1.
</event>
<event>
 4    1  0.5712137E+000  0.1000000E+03  0.7546771E-02  0.1280296E+00
         21   -1    0    0  501  502  0.00000000000E+00  0.00000000000E+00  0.19065807236E+03  0.19065807236E+03  0.00000000000E+00 0. -1.
         21   -1    0    0  502  503 -0.00000000000E+00 -0.00000000000E+00 -0.21770888945E+03  0.21770888945E+03  0.00000000000E+00 0. -1.
          6    1    1    2  501    0  0.97170212014E+01 -0.57665203088E+02  0.77002051905E+02  0.19818681123E+03  0.17300000000E+03 0. -1.
         -6    1    1    2    0  503 -0.97170212014E+01  0.57665203088E+02 -0.10405286900E+03  0.21018015057E+03  0.17300000000E+03 0. -1.
</event>
<event>
 4    1  0.5712137E+000  0.1000000E+03  0.7546771E-02  0.1280296E+00
         21   -1    0    0  501  502  0.00000000000E+00  0.00000000000E+00  0.89017519199E+02  0.89017519199E+02  0.00000000000E+00 0. -1.
         21   -1    0    0  502  503 -0.00000000000E+00 -0.00000000000E+00 -0.44391604989E+03  0.44391604989E+03  0.00000000000E+00 0. -1.
          6    1    1    2  501    0 -0.98429816413E+01 -0.59413383606E+02 -0.73960023378E+02  0.19754978992E+03  0.17300000000E+03 0. -1.
         -6    1    1    2    0  503  0.98429816413E+01  0.59413383606E+02 -0.28093850731E+03  0.33538377917E+03  0.17300000000E+03 0. -1.
</event>
<event>
 4    1  0.5712137E+000  0.1000000E+03  0.7546771E-02  0.1280296E+00
         21   -1    0    0  501  502  0.00000000000E+00  0.00000000000E+00  0.12178622743E+03  0.12178622743E+03  0.00000000000E+00 0. -1.
         21   -1    0    0  502  503 -0.00000000000E+00 -0.00000000000E+00 -0.71233771699E+03  0.71233771699E+03  0.00000000000E+00 0. -1.
          6    1    1    2  501    0  0.13028239441E+02 -0.19652847211E+02  0.40608083778E+02  0.17925954896E+03  0.17300000000E+03 0. -1.
         -6    1    1    2    0  503 -0.13028239441E+02  0.19652847211E+02 -0.63115957333E+03  0.65486439546E+03  0.17300000000E+03 0. -1.
</event>
<event>
 4    1  0.5712137E+000  0.1000000E+03  0.7546771E-02  0.1280296E+00
         21   -1    0    0  501  502  0.00000000000E+00  0.00000000000E+00  0.19821713488E+04  0.19821713488E+04  0.00000000000E+00 0. -1.
         21   -1    0    0  502  503 -0.00000000000E+00 -0.00000000000E+00 -0.21201469713E+02  0.21201469713E+02  0.00000000000E+00 0. -1.
          6    1    1    2  501    0 -0.84994848303E+02 -0.43265773589E+02  0.12481127155E+04  0.12636496358E+04  0.17300000000E+03 0. -1.
         -6    1    1    2    0  503  0.84994848303E+02  0.43265773589E+02  0.71285716361E+03  0.73972318276E+03  0.17300000000E+03 0. -1.
</event>
<event>
 4    1  0.5712137E+000  0.1000000E+03  0.7546771E-02  0.1280296E+00
         21   -1    0    0  503  502  0.00000000000E+00  0.00000000000E+00  0.16819439324E+04  0.16819439324E+04  0.00000000000E+00 0.  1.
         21   -1    0    0  501  503 -0.00000000000E+00 -0.00000000000E+00 -0.64125710523E+02  0.64125710523E+02  0.00000000000E+00 0.  1.
          6    1    1    2  501    0 -0.81870158695E+02 -0.55951913331E+02  0.11522367718E+03  0.23030161804E+03  0.17300000000E+03 0. -1.
         -6    1    1    2    0  502  0.81870158695E+02  0.55951913331E+02  0.15025945447E+04  0.15157680249E+04  0.17300000000E+03 0. -1.
</event>
<event>
 4    1  0.5712137E+000  0.1000000E+03  0.7546771E-02  0.1280296E+00
         21   -1    0    0  503  502  0.00000000000E+00  0.00000000000E+00  0.36483377297E+03  0.36483377297E+03  0.00000000000E+00 0.  1.
         21   -1    0    0  501  503 -0.00000000000E+00 -0.00000000000E+00 -0.30718094230E+03  0.30718094230E+03  0.00000000000E+00 0.  1.
          6    1    1    2  501    0 -0.71960416001E+02  0.30714323617E+02 -0.24790986583E+03  0.31226586865E+03  0.17300000000E+03 0. -1.
         -6    1    1    2    0  502  0.71960416001E+02 -0.30714323617E+02  0.30556269651E+03  0.35974884662E+03  0.17300000000E+03 0. -1.
</event>
<event>
 4    1  0.5712137E+000  0.1000000E+03  0.7546771E-02  0.1280296E+00
         21   -1    0    0  503  502  0.00000000000E+00  0.00000000000E+00  0.67640817302E+02  0.67640817302E+02  0.00000000000E+00 0.  1.
         21   -1    0    0  501  503 -0.00000000000E+00 -0.00000000000E+00 -0.77123980518E+03  0.77123980518E+03  0.00000000000E+00 0.  1.
          6    1    1    2  501    0 -0.79534477558E+02 -0.52252801972E+02 -0.56264532195E+03  0.59628419964E+03  0.17300000000E+03 0. -1.
         -6    1    1    2    0  502  0.79534477558E+02  0.52252801972E+02 -0.14095366593E+03  0.24259642283E+03  0.17300000000E+03 0. -1.
</event>
<event>
 4    1  0.5712137E+000  0.1000000E+03  0.7546771E-02  0.1280296E+00
         21   -1    0    0  503  502  0.00000000000E+00  0.00000000000E+00  0.32612670170E+03  0.32612670170E+03  0.00000000000E+00 0.  1.
         21   -1    0    0  501  503 -0.00000000000E+00 -0.00000000000E+00 -0.31310610309E+03  0.31310610309E+03  0.00000000000E+00 0.  1.
          6    1    1    2  501    0  0.12166823869E+02 -0.10303443143E+03 -0.24136997103E+03  0.31456730373E+03  0.17300000000E+03 0. -1.
         -6    1    1    2    0  502 -0.12166823869E+02  0.10303443143E+03  0.25439056964E+03  0.32466550107E+03  0.17300000000E+03 0. -1.
</event>
<event>
 4    1  0.5712137E+000  0.1000000E+03  0.7546771E-02  0.1280296E+00
         21   -1    0    0  503  502  0.00000000000E+00  0.00000000000E+00  0.13807086071E+03  0.13807086071E+03  0.00000000000E+00 0.  1.
         21   -1    0    0  501  503 -0.00000000000E+00 -0.00000000000E+00 -0.54866016260E+03  0.54866016260E+03  0.00000000000E+00 0.  1.
          6    1    1    2  501    0  0.49107162221E+02 -0.52006017790E+02 -0.45700340148E+03  0.49385954302E+03  0.17300000000E+03 0. -1.
         -6    1    1    2    0  502 -0.49107162221E+02  0.52006017790E+02  0.46414099590E+02  0.19287148029E+03  0.17300000000E+03 0. -1.
</event>
<event>
 4    1  0.5712137E+000  0.1000000E+03  0.7546771E-02  0.1280296E+00
         21   -1    0    0  503  502  0.00000000000E+00  0.00000000000E+00  0.15544499103E+03  0.15544499103E+03  0.00000000000E+00 0.  1.
         21   -1    0    0  501  503 -0.00000000000E+00 -0.00000000000E+00 -0.46143764509E+03  0.46143764509E+03  0.00000000000E+00 0.  1.
          6    1    1    2  501    0  0.48422608844E+02  0.73371258658E+02  0.59582801796E+02  0.20299556871E+03  0.17300000000E+03 0.  1.
         -6    1    1    2    0  502 -0.48422608844E+02 -0.73371258658E+02 -0.36557545586E+03  0.41388706741E+03  0.17300000000E+03 0.  1.
</event>
<event>
 4    1  0.5712137E+000  0.1000000E+03  0.7546771E-02  0.1280296E+00
         21   -1    0    0  503  502  0.00000000000E+00  0.00000000000E+00  0.13121162899E+04  0.13121162899E+04  0.00000000000E+00 0.  1.
         21   -1    0    0  501  503 -0.00000000000E+00 -0.00000000000E+00 -0.90209893963E+02  0.90209893963E+02  0.00000000000E+00 0.  1.
          6    1    1    2  501    0 -0.13375791564E+03 -0.13602304324E+03  0.14602196216E+03  0.29604874889E+03  0.17300000000E+03 0.  1.
         -6    1    1    2    0  502  0.13375791564E+03  0.13602304324E+03  0.10758844337E+04  0.11062774349E+04  0.17300000000E+03 0.  1.
</event>
<event>
 4    1  0.5712137E+000  0.1000000E+03  0.7546771E-02  0.1280296E+00
         21   -1    0    0  503  502  0.00000000000E+00  0.00000000000E+00  0.52715127378E+03  0.52715127378E+03  0.00000000000E+00 0. -1.
         21   -1    0    0  501  503 -0.00000000000E+00 -0.00000000000E+00 -0.23395064527E+03  0.23395064527E+03  0.00000000000E+00 0. -1.
          6    1    1    2  501    0  0.99647222874E+02  0.17786363350E+02 -0.16587852336E+03  0.26017418830E+03  0.17300000000E+03 0. -1.
         -6    1    1    2    0  502 -0.99647222874E+02 -0.17786363350E+02  0.45907915187E+03  0.50092773074E+03  0.17300000000E+03 0. -1.
</event>
<event>
 4    1  0.5712137E+000  0.1000000E+03  0.7546771E-02  0.1280296E+00
         21   -1    0    0  503  502  0.00000000000E+00  0.00000000000E+00  0.84568381492E+02  0.84568381492E+02  0.00000000000E+00 0. -1.
         21   -1    0    0  501  503 -0.00000000000E+00 -0.00000000000E+00 -0.49753796101E+03  0.49753796101E+03  0.00000000000E+00 0. -1.
          6    1    1    2  501    0 -0.80984231006E+02 -0.74637488479E+02 -0.21246777408E+03  0.29529774022E+03  0.17300000000E+03 0. -1.
         -6    1    1    2    0  502  0.80984231006E+02  0.74637488479E+02 -0.20050180544E+03  0.28680860228E+03  0.17300000000E+03 0. -1.
</event>
<event>
 4    1  0.5712137E+000  0.1000000E+03  0.7546771E-02  0.1280296E+00
         21   -1    0    0  503  502  0.00000000000E+00  0.00000000000E+00  0.80098765892E+02  0.80098765892E+02  0.00000000000E+00 0. -1.
         21   -1    0    0  501  503 -0.00000000000E+00 -0.00000000000E+00 -0.17447874018E+04  0.17447874018E+04  0.00000000000E+00 0.  1.
          6    1    1    2  501    0  0.11379523919E+03  0.23241565143E+03 -0.13376420186E+04  0.13733832536E+04  0.17300000000E+03 0. -1.
         -6    1    1    2    0  502 -0.11379523919E+03 -0.23241565143E+03 -0.32704661731E+03  0.45150291404E+03  0.17300000000E+03 0. -1.
</event>
<event>
 4    1  0.5712137E+000  0.1000000E+03  0.7546771E-02  0.1280296E+00
         21   -1    0    0  501  502  0.00000000000E+00  0.00000000000E+00  0.65384650275E+02  0.65384650275E+02  0.00000000000E+00 0. -1.
         21   -1    0    0  502  503 -0.00000000000E+00 -0.00000000000E+00 -0.55182168665E+03  0.55182168665E+03  0.00000000000E+00 0.  1.
          6    1    1    2  501    0 -0.24438499623E+02  0.17938118675E+02 -0.12569521027E+03  0.21597986538E+03  0.17300000000E+03 0. -1.
         -6    1    1    2    0  503  0.24438499623E+02 -0.17938118675E+02 -0.36074182611E+03  0.40122647154E+03  0.17300000000E+03 0.  1.
</event>
<event>
 4    1  0.5712137E+000  0.1000000E+03  0.7546771E-02  0.1280296E+00
         21   -1    0    0  501  502  0.00000000000E+00  0.00000000000E+00  0.34490682577E+03  0.34490682577E+03  0.00000000000E+00 0. -1.
         21   -1    0    0  502  503 -0.00000000000E+00 -0.00000000000E+00 -0.41363165639E+03  0.41363165639E+03  0.00000000000E+00 0.  1.
          6    1    1    2  501    0 -0.13624680761E+03 -0.30494804385E+03 -0.68839026601E+02  0.38239287861E+03  0.17300000000E+03 0. -1.
         -6    1    1    2    0  503  0.13624680761E+03  0.30494804385E+03  0.11419597611E+00  0.37614560355E+03  0.17300000000E+03 0.  1.
</event>
<event>
 4    1  0.5712137E+000  0.1000000E+03  0.7546771E-02  0.1280296E+00
         21   -1    0    0  501  502  0.00000000000E+00  0.00000000000E+00  0.55205295001E+03  0.55205295001E+03  0.00000000000E+00 0. -1.
         21   -1    0    0  502  503 -0.00000000000E+00 -0.00000000000E+00 -0.68394195226E+02  0.68394195226E+02  0.00000000000E+00 0. -1.
          6    1    1    2  501    0 -0.56496941881E+02  0.61669989241E+02  0.28791123176E+03  0.34614587877E+03  0.17300000000E+03 0. -1.
         -6    1    1    2    0  503  0.56496941881E+02 -0.61669989241E+02  0.19574752302E+03  0.27430126646E+03  0.17300000000E+03 0. -1.
</event>
<event>
 4    1  0.5712137E+000  0.1000000E+03  0.7546771E-02  0.1280296E+00
         21   -1    0    0  501  502  0.00000000000E+00  0.00000000000E+00  0.18048180582E+03  0.18048180582E+03  0.00000000000E+00 0. -1.
         21   -1    0    0  502  503 -0.00000000000E+00 -0.00000000000E+00 -0.24012009230E+03  0.24012009230E+03  0.00000000000E+00 0.  1.
          6    1    1    2  501    0 -0.35982174526E+02  0.20405042065E+02  0.79438466337E+02  0.19480901560E+03  0.17300000000E+03 0. -1.
         -6    1    1    2    0  503  0.35982174526E+02 -0.20405042065E+02 -0.13907675281E+03  0.22579288252E+03  0.17300000000E+03 0. -1.
</event>
<event>
 4    1  0.5712137E+000  0.1000000E+03  0.7546771E-02  0.1280296E+00
         21   -1    0    0  501  502  0.00000000000E+00  0.00000000000E+00  0.38398095415E+03  0.38398095415E+03  0.00000000000E+00 0. -1.
         21   -1    0    0  502  503 -0.00000000000E+00 -0.00000000000E+00 -0.24367887380E+03  0.24367887380E+03  0.00000000000E+00 0.  1.
          6    1    1    2  501    0  0.10213797044E+03  0.11179324372E+03  0.27715401427E+03  0.36010171060E+03  0.17300000000E+03 0. -1.
         -6    1    1    2    0  503 -0.10213797044E+03 -0.11179324372E+03 -0.13685193392E+03  0.26755811736E+03  0.17300000000E+03 0. -1.
</event>
<event>
 4    1  0.5712137E+000  0.1000000E+03  0.7546771E-02  0.1280296E+00
         21   -1    0    0  501  502  0.00000000000E+00  0.00000000000E+00  0.52333787139E+02  0.52333787139E+02  0.00000000000E+00 0. -1.
         21   -1    0    0  502  503 -0.00000000000E+00 -0.00000000000E+00 -0.10156707272E+04  0.10156707272E+04  0.00000000000E+00 0. -1.
          6    1    1    2  501    0  0.13157860778E+03  0.29282418732E+02 -0.31699831941E+03  0.38547026420E+03  0.17300000000E+03 0. -1.
         -6    1    1    2    0  503 -0.13157860778E+03 -0.29282418732E+02 -0.64633862066E+03  0.68253425015E+03  0.17300000000E+03 0. -1.
</event>
<event>
 4    1  0.5712137E+000  0.1000000E+03  0.7546771E-02  0.1280296E+00
         21   -1    0    0  501  502  0.00000000000E+00  0.00000000000E+00  0.25404520417E+03  0.25404520417E+03  0.00000000000E+00 0. -1.
         21   -1    0    0  502  503 -0.00000000000E+00 -0.00000000000E+00 -0.76276403454E+03  0.76276403454E+03  0.00000000000E+00 0. -1.
          6    1    1    2  501    0 -0.26223585346E+03  0.16644782213E+03  0.45424517216E+02  0.35842001492E+03  0.17300000000E+03 0. -1.
         -6    1    1    2    0  503  0.26223585346E+03 -0.16644782213E+03 -0.55414334758E+03  0.65838922379E+03  0.17300000000E+03 0. -1.
</event>
<event>
 4    1  0.5712137E+000  0.1000000E+03  0.7546771E-02  0.1280296E+00
         21   -1    0    0  503  502  0.00000000000E+00  0.00000000000E+00  0.87839128010E+02  0.87839128010E+02  0.00000000000E+00 0.  1.
         21   -1    0    0  501  503 -0.00000000000E+00 -0.00000000000E+00 -0.66099145741E+03  0.66099145741E+03  0.00000000000E+00 0.  1.
          6    1    1    2  501    0 -0.13813764987E+03 -0.70772306379E+02 -0.38535546313E+03  0.45002062467E+03  0.17300000000E+03 0.  1.
         -6    1    1    2    0  502  0.13813764987E+03  0.70772306379E+02 -0.18779686626E+03  0.29880996074E+03  0.17300000000E+03 0.  1.
</event>
<event>
 4    1  0.5712137E+000  0.1000000E+03  0.7546771E-02  0.1280296E+00
         21   -1    0    0  501  502  0.00000000000E+00  0.00000000000E+00  0.42454865129E+03  0.42454865129E+03  0.00000000000E+00 0. -1.
         21   -1    0    0  502  503 -0.00000000000E+00 -0.00000000000E+00 -0.14402127878E+03  0.14402127878E+03  0.00000000000E+00 0.  1.
          6    1    1    2  501    0 -0.12417842487E+03  0.12298325005E+03  0.17001971034E+03  0.29896632402E+03  0.17300000000E+03 0. -1.
         -6    1    1    2    0  503  0.12417842487E+03 -0.12298325005E+03  0.11050766217E+03  0.26960360604E+03  0.17300000000E+03 0.  1.
</event>
<event>
 4    1  0.5712137E+000  0.1000000E+03  0.7546771E-02  0.1280296E+00
         21   -1    0    0  501  502  0.00000000000E+00  0.00000000000E+00  0.34767247590E+03  0.34767247590E+03  0.00000000000E+00 0. -1.
         21   -1    0    0  502  503 -0.00000000000E+00 -0.00000000000E+00 -0.19118127074E+03  0.19118127074E+03  0.00000000000E+00 0.  1.
          6    1    1    2  501    0  0.58772563090E+02 -0.87947138429E+02  0.24463544014E+03  0.31774897624E+03  0.17300000000E+03 0. -1.
         -6    1    1    2    0  503 -0.58772563090E+02  0.87947138429E+02 -0.88144234984E+02  0.22110477039E+03  0.17300000000E+03 0.  1.
</event>
<event>
 4    1  0.5712137E+000  0.1000000E+03  0.7546771E-02  0.1280296E+00
         21   -1    0    0  501  502  0.00000000000E+00  0.00000000000E+00  0.19872620740E+03  0.19872620740E+03  0.00000000000E+00 0. -1.
         21   -1    0    0  502  503 -0.00000000000E+00 -0.00000000000E+00 -0.36120222456E+03  0.36120222456E+03  0.00000000000E+00 0.  1.
          6    1    1    2  501    0 -0.52634954010E+02 -0.11170200845E+02  0.12500901205E+03  0.22011693453E+03  0.17300000000E+03 0. -1.
         -6    1    1    2    0  503  0.52634954010E+02  0.11170200845E+02 -0.28748502921E+03  0.33981149744E+03  0.17300000000E+03 0.  1.
</event>
<event>
 4    1  0.5712137E+000  0.1000000E+03  0.7546771E-02  0.1280296E+00
         21   -1    0    0  503  502  0.00000000000E+00  0.00000000000E+00  0.10368802996E+03  0.10368802996E+03  0.00000000000E+00 0.  1.
         21   -1    0    0  501  503 -0.00000000000E+00 -0.00000000000E+00 -0.35550145375E+03  0.35550145375E+03  0.00000000000E+00 0. -1.
          6    1    1    2  501    0 -0.33571089222E+02 -0.70807795453E+02 -0.15954995526E+03  0.24804425039E+03  0.17300000000E+03 0. -1.
         -6    1    1    2    0  502  0.33571089222E+02  0.70807795453E+02 -0.92263468535E+02  0.21114523332E+03  0.17300000000E+03 0. -1.
</event>
<event>
 4    1  0.5712137E+000  0.1000000E+03  0.7546771E-02  0.1280296E+00
         21   -1    0    0  503  502  0.00000000000E+00  0.00000000000E+00  0.10315950871E+04  0.10315950871E+04  0.00000000000E+00 0.  1.
         21   -1    0    0  501  503 -0.00000000000E+00 -0.00000000000E+00 -0.33358774375E+02  0.33358774375E+02  0.00000000000E+00 0. -1.
          6    1    1    2  501    0 -0.41292100535E+02  0.49102894633E+02  0.44408324356E+03  0.48088986165E+03  0.17300000000E+03 0. -1.
         -6    1    1    2    0  502  0.41292100535E+02 -0.49102894633E+02  0.55415306920E+03  0.58406399986E+03  0.17300000000E+03 0. -1.
</event>
<event>
 4    1  0.5712137E+000  0.1000000E+03  0.7546771E-02  0.1280296E+00
         21   -1    0    0  503  502  0.00000000000E+00  0.00000000000E+00  0.63927939536E+02  0.63927939536E+02  0.00000000000E+00 0.  1.
         21   -1    0    0  501  503 -0.00000000000E+00 -0.00000000000E+00 -0.74882701222E+03  0.74882701222E+03  0.00000000000E+00 0. -1.
          6    1    1    2  501    0 -0.52428058985E+02 -0.20492655085E+02 -0.56820202278E+03  0.59661645047E+03  0.17300000000E+03 0. -1.
         -6    1    1    2    0  502  0.52428058985E+02  0.20492655085E+02 -0.11669704990E+03  0.21613850129E+03  0.17300000000E+03 0. -1.
</event>
<event>
 4    1  0.5712137E+000  0.1000000E+03  0.7546771E-02  0.1280296E+00
         21   -1    0    0  503  502  0.00000000000E+00  0.00000000000E+00  0.30209198880E+03  0.30209198880E+03  0.00000000000E+00 0.  1.
         21   -1    0    0  501  503 -0.00000000000E+00 -0.00000000000E+00 -0.50283971564E+03  0.50283971564E+03  0.00000000000E+00 0. -1.
          6    1    1    2  501    0  0.15833667883E+03  0.54811568435E+02 -0.41680377609E+03  0.48138259177E+03  0.17300000000E+03 0. -1.
         -6    1    1    2    0  502 -0.15833667883E+03 -0.54811568435E+02  0.21605604925E+03  0.32354911268E+03  0.17300000000E+03 0. -1.
</event>
<event>
 4    1  0.5712137E+000  0.1000000E+03  0.7546771E-02  0.1280296E+00
         21   -1    0    0  501  502  0.00000000000E+00  0.00000000000E+00  0.86470149343E+03  0.86470149343E+03  0.00000000000E+00 0.  1.
         21   -1    0    0  502  503 -0.00000000000E+00 -0.00000000000E+00 -0.56273034020E+02  0.56273034020E+02  0.00000000000E+00 0. -1.
          6    1    1    2  501    0 -0.59940220455E+02 -0.76240792758E+02  0.60579827956E+03  0.63743709025E+03  0.17300000000E+03 0.  1.
         -6    1    1    2    0  503  0.59940220455E+02  0.76240792758E+02  0.20263017985E+03  0.28353743720E+03  0.17300000000E+03 0. -1.
</event>
<event>
 4    1  0.5712137E+000  0.1000000E+03  0.7546771E-02  0.1280296E+00
         21   -1    0    0  503  502  0.00000000000E+00  0.00000000000E+00  0.90955593980E+03  0.90955593980E+03  0.00000000000E+00 0.  1.
         21   -1    0    0  501  503 -0.00000000000E+00 -0.00000000000E+00 -0.38767215410E+02  0.38767215410E+02  0.00000000000E+00 0.  1.
          6    1    1    2  501    0 -0.46611757775E+02  0.10229060122E+02  0.57495433871E+03  0.60231119966E+03  0.17300000000E+03 0.  1.
         -6    1    1    2    0  502  0.46611757775E+02 -0.10229060122E+02  0.29583438569E+03  0.34601195556E+03  0.17300000000E+03 0.  1.
</event>
<event>
 4    1  0.5712137E+000  0.1000000E+03  0.7546771E-02  0.1280296E+00
         21   -1    0    0  503  502  0.00000000000E+00  0.00000000000E+00  0.17373015624E+04  0.17373015624E+04  0.00000000000E+00 0.  1.
         21   -1    0    0  501  503 -0.00000000000E+00 -0.00000000000E+00 -0.85758236026E+02  0.85758236026E+02  0.00000000000E+00 0.  1.
          6    1    1    2  501    0  0.21337096825E+03  0.25968631267E+03  0.10101347302E+04  0.10785477848E+04  0.17300000000E+03 0.  1.
         -6    1    1    2    0  502 -0.21337096825E+03 -0.25968631267E+03  0.64140859615E+03  0.74451201354E+03  0.17300000000E+03 0.  1.
</event>
<event>
 4    1  0.5712137E+000  0.1000000E+03  0.7546771E-02  0.1280296E+00
         21   -1    0    0  503  502  0.00000000000E+00  0.00000000000E+00  0.22615151119E+03  0.22615151119E+03  0.00000000000E+00 0.  1.
         21   -1    0    0  501  503 -0.00000000000E+00 -0.00000000000E+00 -0.43947138851E+03  0.43947138851E+03  0.00000000000E+00 0.  1.
          6    1    1    2  501    0 -0.13603104872E+02 -0.41784614743E+02 -0.38098931956E+03  0.42072896276E+03  0.17300000000E+03 0.  1.
         -6    1    1    2    0  502  0.13603104872E+02  0.41784614743E+02  0.16766944223E+03  0.24489393694E+03  0.17300000000E+03 0.  1.
</event>
<event>
 4    1  0.5712137E+000  0.1000000E+03  0.7546771E-02  0.1280296E+00
         21   -1    0    0  503  502  0.00000000000E+00  0.00000000000E+00  0.10702736032E+04  0.10702736032E+04  0.00000000000E+00 0.  1.
         21   -1    0    0  501  503 -0.00000000000E+00 -0.00000000000E+00 -0.71308517707E+02  0.71308517707E+02  0.00000000000E+00 0. -1.
          6    1    1    2  501    0 -0.17594588305E+03  0.70022264156E+02  0.28745873042E+03  0.38525523090E+03  0.17300000000E+03 0. -1.
         -6    1    1    2    0  502  0.17594588305E+03 -0.70022264156E+02  0.71150635509E+03  0.75632689003E+03  0.17300000000E+03 0.  1.
</event>
<event>
 4    1  0.5712137E+000  0.1000000E+03  0.7546771E-02  0.1280296E+00
         21   -1    0    0  503  502  0.00000000000E+00  0.00000000000E+00  0.12831936584E+03  0.12831936584E+03  0.00000000000E+00 0.  1.
         21   -1    0    0  501  503 -0.00000000000E+00 -0.00000000000E+00 -0.25795303225E+03  0.25795303225E+03  0.00000000000E+00 0. -1.
          6    1    1    2  501    0 -0.23822683077E+02  0.15927466843E+02 -0.11627999253E+03  0.21040732186E+03  0.17300000000E+03 0. -1.
         -6    1    1    2    0  502  0.23822683077E+02 -0.15927466843E+02 -0.13353673878E+02  0.17586507622E+03  0.17300000000E+03 0.  1.
</event>
<event>
 4    1  0.5712137E+000  0.1000000E+03  0.7546771E-02  0.1280296E+00
         21   -1    0    0  503  502  0.00000000000E+00  0.00000000000E+00  0.16706971521E+03  0.16706971521E+03  0.00000000000E+00 0.  1.
         21   -1    0    0  501  503 -0.00000000000E+00 -0.00000000000E+00 -0.56856328011E+03  0.56856328011E+03  0.00000000000E+00 0. -1.
          6    1    1    2  501    0  0.18565499343E+03 -0.10694252734E+03 -0.36592314354E+03  0.45796640458E+03  0.17300000000E+03 0. -1.
         -6    1    1    2    0  502 -0.18565499343E+03  0.10694252734E+03 -0.35570421352E+02  0.27766659075E+03  0.17300000000E+03 0.  1.
</event>
<event>
 4    1  0.5712137E+000  0.1000000E+03  0.7546771E-02  0.1280296E+00
         21   -1    0    0  503  502  0.00000000000E+00  0.00000000000E+00  0.78835407299E+02  0.78835407299E+02  0.00000000000E+00 0.  1.
         21   -1    0    0  501  503 -0.00000000000E+00 -0.00000000000E+00 -0.59539089850E+03  0.59539089850E+03  0.00000000000E+00 0.  1.
          6    1    1    2  501    0 -0.81509922417E+02  0.84142385566E+02 -0.16909381267E+03  0.26878527859E+03  0.17300000000E+03 0.  1.
         -6    1    1    2    0  502  0.81509922417E+02 -0.84142385566E+02 -0.34746167853E+03  0.40544102722E+03  0.17300000000E+03 0.  1.
</event>
<event>
 4    1  0.5712137E+000  0.1000000E+03  0.7546771E-02  0.1280296E+00
         21   -1    0    0  503  502  0.00000000000E+00  0.00000000000E+00  0.20822874219E+03  0.20822874219E+03  0.00000000000E+00 0.  1.
         21   -1    0    0  501  503 -0.00000000000E+00 -0.00000000000E+00 -0.18473701356E+03  0.18473701356E+03  0.00000000000E+00 0.  1.
          6    1    1    2  501    0  0.38613757914E+02  0.32536262117E+02 -0.65780936351E+02  0.19184827922E+03  0.17300000000E+03 0.  1.
         -6    1    1    2    0  502 -0.38613757914E+02 -0.32536262117E+02  0.89272664982E+02  0.20111747653E+03  0.17300000000E+03 0.  1.
</event>
<event>
 4    1  0.5712137E+000  0.1000000E+03  0.7546771E-02  0.1280296E+00
         21   -1    0    0  501  502  0.00000000000E+00  0.00000000000E+00  0.13389919999E+03  0.13389919999E+03  0.00000000000E+00 0. -1.
         21   -1    0    0  502  503 -0.00000000000E+00 -0.00000000000E+00 -0.27450223205E+03  0.27450223205E+03  0.00000000000E+00 0.  1.
          6    1    1    2  501    0  0.75958882711E+02 -0.10161226214E+02 -0.37409948374E+02  0.19287692091E+03  0.17300000000E+03 0.  1.
         -6    1    1    2    0  503 -0.75958882711E+02  0.10161226214E+02 -0.10319308368E+03  0.21552451114E+03  0.17300000000E+03 0.  1.
</event>
<event>
 4    1  0.5712137E+000  0.1000000E+03  0.7546771E-02  0.1280296E+00
         21   -1    0    0  501  502  0.00000000000E+00  0.00000000000E+00  0.78946161644E+03  0.78946161644E+03  0.00000000000E+00 0. -1.
         21   -1    0    0  502  503 -0.00000000000E+00 -0.00000000000E+00 -0.81771650607E+02  0.81771650607E+02  0.00000000000E+00 0.  1.
          6    1    1    2  501    0  0.18299266269E+03  0.14517112268E+02  0.30157329314E+03  0.39315710890E+03  0.17300000000E+03 0.  1.
         -6    1    1    2    0  503 -0.18299266269E+03 -0.14517112268E+02  0.40611667269E+03  0.47807615814E+03  0.17300000000E+03 0.  1.
</event>
<event>
 4    1  0.5712137E+000  0.1000000E+03  0.7546771E-02  0.1280296E+00
         21   -1    0    0  501  502  0.00000000000E+00  0.00000000000E+00  0.14402686985E+03  0.14402686985E+03  0.00000000000E+00 0. -1.
         21   -1    0    0  502  503 -0.00000000000E+00 -0.00000000000E+00 -0.65381273696E+03  0.65381273696E+03  0.00000000000E+00 0.  1.
          6    1    1    2  501    0 -0.65525448670E+02 -0.25853624125E+02  0.61608115796E+02  0.19668897843E+03  0.17300000000E+03 0. -1.
         -6    1    1    2    0  503  0.65525448670E+02  0.25853624125E+02 -0.57139398290E+03  0.60115062838E+03  0.17300000000E+03 0.  1.
</event>
<event>
 4    1  0.5712137E+000  0.1000000E+03  0.7546771E-02  0.1280296E+00
         21   -1    0    0  501  502  0.00000000000E+00  0.00000000000E+00  0.12323239860E+04  0.12323239860E+04  0.00000000000E+00 0. -1.
         21   -1    0    0  502  503 -0.00000000000E+00 -0.00000000000E+00 -0.49854346727E+02  0.49854346727E+02  0.00000000000E+00 0.  1.
          6    1    1    2  501    0 -0.89213280374E+02 -0.15203196922E+03  0.53729143066E+03  0.59134068905E+03  0.17300000000E+03 0. -1.
         -6    1    1    2    0  503  0.89213280374E+02  0.15203196922E+03  0.64517820863E+03  0.69083764370E+03  0.17300000000E+03 0.  1.
</event>
<event>
 4    1  0.5712137E+000  0.1000000E+03  0.7546771E-02  0.1280296E+00
         21   -1    0    0  501  502  0.00000000000E+00  0.00000000000E+00  0.25073046784E+03  0.25073046784E+03  0.00000000000E+00 0. -1.
         21   -1    0    0  502  503 -0.00000000000E+00 -0.00000000000E+00 -0.70677024789E+03  0.70677024789E+03  0.00000000000E+00 0.  1.
          6    1    1    2  501    0  0.26941559547E+03 -0.11435012214E+03  0.54288754801E+02  0.34429200167E+03  0.17300000000E+03 0. -1.
         -6    1    1    2    0  503 -0.26941559547E+03  0.11435012214E+03 -0.51032853485E+03  0.61320871406E+03  0.17300000000E+03 0.  1.
</event>
<event>
 4    1  0.5712137E+000  0.1000000E+03  0.7546771E-02  0.1280296E+00
         21   -1    0    0  503  502  0.00000000000E+00  0.00000000000E+00  0.21112816077E+02  0.21112816077E+02  0.00000000000E+00 0.  1.
         21   -1    0    0  501  503 -0.00000000000E+00 -0.00000000000E+00 -0.14652238309E+04  0.14652238309E+04  0.00000000000E+00 0.  1.
          6    1    1    2  501    0  0.27742287387E+02  0.56854227863E+01 -0.66169919965E+03  0.68452669003E+03  0.17300000000E+03 0.  1.
         -6    1    1    2    0  502 -0.27742287387E+02 -0.56854227863E+01 -0.78241181515E+03  0.80180995692E+03  0.17300000000E+03 0.  1.
</event>
<event>
 4    1  0.5712137E+000  0.1000000E+03  0.7546771E-02  0.1280296E+00
         21   -1    0    0  503  502  0.00000000000E+00  0.00000000000E+00  0.42828244635E+03  0.42828244635E+03  0.00000000000E+00 0.  1.
         21   -1    0    0  501  503 -0.00000000000E+00 -0.00000000000E+00 -0.21700037216E+03  0.21700037216E+03  0.00000000000E+00 0. -1.
          6    1    1    2  501    0 -0.46383266147E+02  0.19891508090E+02 -0.15459277514E+03  0.23743421320E+03  0.17300000000E+03 0. -1.
         -6    1    1    2    0  502  0.46383266147E+02 -0.19891508090E+02  0.36587484934E+03  0.40784860530E+03  0.17300000000E+03 0.  1.
</event>
<event>
 4    1  0.5712137E+000  0.1000000E+03  0.7546771E-02  0.1280296E+00
         21   -1    0    0  501  502  0.00000000000E+00  0.00000000000E+00  0.26530127722E+03  0.26530127722E+03  0.00000000000E+00 0.  1.
         21   -1    0    0  502  503 -0.00000000000E+00 -0.00000000000E+00 -0.15696263579E+03  0.15696263579E+03  0.00000000000E+00 0.  1.
          6    1    1    2  501    0  0.78733943333E+01 -0.29188590275E+01  0.16580842096E+03  0.23977477461E+03  0.17300000000E+03 0.  1.
         -6    1    1    2    0  503 -0.78733943333E+01  0.29188590275E+01 -0.57469779523E+02  0.18248913840E+03  0.17300000000E+03 0.  1.
</event>
<event>
 4    1  0.5712137E+000  0.1000000E+03  0.7546771E-02  0.1280296E+00
         21   -1    0    0  501  502  0.00000000000E+00  0.00000000000E+00  0.18023405824E+03  0.18023405824E+03  0.00000000000E+00 0.  1.
         21   -1    0    0  502  503 -0.00000000000E+00 -0.00000000000E+00 -0.34052473413E+03  0.34052473413E+03  0.00000000000E+00 0.  1.
          6    1    1    2  501    0  0.50665550475E+02  0.12651912151E+03  0.39094439523E+02  0.22367713632E+03  0.17300000000E+03 0.  1.
         -6    1    1    2    0  503 -0.50665550475E+02 -0.12651912151E+03 -0.19938511541E+03  0.29708165604E+03  0.17300000000E+03 0.  1.
</event>
<event>
 4    1  0.5712137E+000  0.1000000E+03  0.7546771E-02  0.1280296E+00
         21   -1    0    0  501  502  0.00000000000E+00  0.00000000000E+00  0.20068906531E+03  0.20068906531E+03  0.00000000000E+00 0.  1.
         21   -1    0    0  502  503 -0.00000000000E+00 -0.00000000000E+00 -0.49061598928E+03  0.49061598928E+03  0.00000000000E+00 0.  1.
          6    1    1    2  501    0 -0.19456010015E+03  0.93218884959E+02  0.18382536742E+02  0.27714673143E+03  0.17300000000E+03 0.  1.
         -6    1    1    2    0  503  0.19456010015E+03 -0.93218884959E+02 -0.30830946071E+03  0.41415832317E+03  0.17300000000E+03 0.  1.
</event>
<event>
 4    1  0.5712137E+000  0.1000000E+03  0.7546771E-02  0.1280296E+00
         21   -1    0    0  501  502  0.00000000000E+00  0.00000000000E+00  0.15001326124E+04  0.15001326124E+04  0.00000000000E+00 0.  1.
         21   -1    0    0  502  503 -0.00000000000E+00 -0.00000000000E+00 -0.90486122766E+02  0.90486122766E+02  0.00000000000E+00 0.  1.
          6    1    1    2  501    0  0.25147182535E+03  0.15395293407E+03  0.40827446837E+03  0.53250035340E+03  0.17300000000E+03 0.  1.
         -6    1    1    2    0  503 -0.25147182535E+03 -0.15395293407E+03  0.10013720213E+04  0.10581183818E+04  0.17300000000E+03 0.  1.
</event>
<event>
 4    1  0.5712137E+000  0.1000000E+03  0.7546771E-02  0.1280296E+00
         21   -1    0    0  501  502  0.00000000000E+00  0.00000000000E+00  0.36214914357E+02  0.36214914357E+02  0.00000000000E+00 0. -1.
         21   -1    0    0  502  503 -0.00000000000E+00 -0.00000000000E+00 -0.15473475398E+04  0.15473475398E+04  0.00000000000E+00 0.  1.
          6    1    1    2  501    0  0.52344487290E+02 -0.57519249865E+02 -0.28183815250E+03  0.33972069949E+03  0.17300000000E+03 0. -1.
         -6    1    1    2    0  503 -0.52344487290E+02  0.57519249865E+02 -0.12292944729E+04  0.12438417547E+04  0.17300000000E+03 0.  1.
</event>
<event>
 4    1  0.5712137E+000  0.1000000E+03  0.7546771E-02  0.1280296E+00
         21   -1    0    0  503  502  0.00000000000E+00  0.00000000000E+00  0.46627331135E+03  0.46627331135E+03  0.00000000000E+00 0. -1.
         21   -1    0    0  501  503 -0.00000000000E+00 -0.00000000000E+00 -0.16231283662E+03  0.16231283662E+03  0.00000000000E+00 0. -1.
          6    1    1    2  501    0  0.13304053340E+03 -0.11433457645E+03  0.12147779559E+02  0.24667538882E+03  0.17300000000E+03 0.  1.
         -6    1    1    2    0  502 -0.13304053340E+03  0.11433457645E+03  0.29181269517E+03  0.38191075916E+03  0.17300000000E+03 0.  1.
</event>
<event>
 4    1  0.5712137E+000  0.1000000E+03  0.7546771E-02  0.1280296E+00
         21   -1    0    0  503  502  0.00000000000E+00  0.00000000000E+00  0.14558632600E+03  0.14558632600E+03  0.00000000000E+00 0. -1.
         21   -1    0    0  501  503 -0.00000000000E+00 -0.00000000000E+00 -0.89715926268E+03  0.89715926268E+03  0.00000000000E+00 0. -1.
          6    1    1    2  501    0  0.98587239636E+02 -0.27775860923E+03 -0.54535365808E+03  0.64359063169E+03  0.17300000000E+03 0.  1.
         -6    1    1    2    0  502 -0.98587239636E+02  0.27775860923E+03 -0.20621927860E+03  0.39915495699E+03  0.17300000000E+03 0.  1.
</event>
<event>
 4    1  0.5712137E+000  0.1000000E+03  0.7546771E-02  0.1280296E+00
         21   -1    0    0  503  502  0.00000000000E+00  0.00000000000E+00  0.70622164313E+02  0.70622164313E+02  0.00000000000E+00 0. -1.
         21   -1    0    0  501  503 -0.00000000000E+00 -0.00000000000E+00 -0.10253337875E+04  0.10253337875E+04  0.00000000000E+00 0. -1.
          6    1    1    2  501    0  0.15503670851E+03 -0.34257259464E+02 -0.20972526692E+03  0.31483905158E+03  0.17300000000E+03 0.  1.
         -6    1    1    2    0  502 -0.15503670851E+03  0.34257259464E+02 -0.74498635628E+03  0.78111690025E+03  0.17300000000E+03 0.  1.
</event>
<event>
 4    1  0.5712137E+000  0.1000000E+03  0.7546771E-02  0.1280296E+00
         21   -1    0    0  501  502  0.00000000000E+00  0.00000000000E+00  0.33349855667E+03  0.33349855667E+03  0.00000000000E+00 0. -1.
         21   -1    0    0  502  503 -0.00000000000E+00 -0.00000000000E+00 -0.19539667331E+03  0.19539667331E+03  0.00000000000E+00 0. -1.
          6    1    1    2  501    0  0.40444334868E+02 -0.38400033300E+02  0.25472747727E+03  0.31293033483E+03  0.17300000000E+03 0. -1.
         -6    1    1    2    0  503 -0.40444334868E+02  0.38400033300E+02 -0.11662559392E+03  0.21596489515E+03  0.17300000000E+03 0. -1.
</event>
<event>
 4    1  0.5712137E+000  0.1000000E+03  0.7546771E-02  0.1280296E+00
         21   -1    0    0  501  502  0.00000000000E+00  0.00000000000E+00  0.34860841925E+03  0.34860841925E+03  0.00000000000E+00 0. -1.
         21   -1    0    0  502  503 -0.00000000000E+00 -0.00000000000E+00 -0.28316617570E+03  0.28316617570E+03  0.00000000000E+00 0.  1.
          6    1    1    2  501    0  0.20410700212E+03  0.10373548261E+03  0.16133638340E+03  0.32920988332E+03  0.17300000000E+03 0. -1.
         -6    1    1    2    0  503 -0.20410700212E+03 -0.10373548261E+03 -0.95894139852E+02  0.30256471163E+03  0.17300000000E+03 0.  1.
</event>
<event>
 4    1  0.5712137E+000  0.1000000E+03  0.7546771E-02  0.1280296E+00
         21   -1    0    0  503  502  0.00000000000E+00  0.00000000000E+00  0.70636313581E+03  0.70636313581E+03  0.00000000000E+00 0. -1.
         21   -1    0    0  501  503 -0.00000000000E+00 -0.00000000000E+00 -0.98753014709E+02  0.98753014709E+02  0.00000000000E+00 0. -1.
          6    1    1    2  501    0  0.11155213566E+03 -0.39232157032E+02  0.58777702685E+02  0.21763928747E+03  0.17300000000E+03 0. -1.
         -6    1    1    2    0  502 -0.11155213566E+03  0.39232157032E+02  0.54883241842E+03  0.58747686305E+03  0.17300000000E+03 0. -1.
</event>
<event>
 4    1  0.5712137E+000  0.1000000E+03  0.7546771E-02  0.1280296E+00
         21   -1    0    0  503  502  0.00000000000E+00  0.00000000000E+00  0.48011941146E+03  0.48011941146E+03  0.00000000000E+00 0. -1.
         21   -1    0    0  501  503 -0.00000000000E+00 -0.00000000000E+00 -0.10914227636E+03  0.10914227636E+03  0.00000000000E+00 0. -1.
          6    1    1    2  501    0 -0.37632034107E+01  0.62867346517E+02  0.36057871797E+03  0.40486105865E+03  0.17300000000E+03 0. -1.
         -6    1    1    2    0  502  0.37632034107E+01 -0.62867346517E+02  0.10398417129E+02  0.18440062917E+03  0.17300000000E+03 0. -1.
</event>
<event>
 4    1  0.5712137E+000  0.1000000E+03  0.7546771E-02  0.1280296E+00
         21   -1    0    0  503  502  0.00000000000E+00  0.00000000000E+00  0.51795080200E+02  0.51795080200E+02  0.00000000000E+00 0. -1.
         21   -1    0    0  501  503 -0.00000000000E+00 -0.00000000000E+00 -0.72934894309E+03  0.72934894309E+03  0.00000000000E+00 0. -1.
          6    1    1    2  501    0 -0.67850823816E+02  0.56915984921E+02 -0.34305079024E+03  0.39427909952E+03  0.17300000000E+03 0. -1.
         -6    1    1    2    0  502  0.67850823816E+02 -0.56915984921E+02 -0.33450307265E+03  0.38686492377E+03  0.17300000000E+03 0. -1.
</event>
<event>
 4    1  0.5712137E+000  0.1000000E+03  0.7546771E-02  0.1280296E+00
         21   -1    0    0  501  502  0.00000000000E+00  0.00000000000E+00  0.17864237983E+03  0.17864237983E+03  0.00000000000E+00 0. -1.
         21   -1    0    0  502  503 -0.00000000000E+00 -0.00000000000E+00 -0.21609879388E+03  0.21609879388E+03  0.00000000000E+00 0. -1.
          6    1    1    2  501    0 -0.69024040840E+00  0.74070959342E+02  0.37993818687E+02  0.19198831659E+03  0.17300000000E+03 0. -1.
         -6    1    1    2    0  503  0.69024040840E+00 -0.74070959342E+02 -0.75450232736E+02  0.20275285712E+03  0.17300000000E+03 0. -1.
</event>
<event>
 4    1  0.5712137E+000  0.1000000E+03  0.7546771E-02  0.1280296E+00
         21   -1    0    0  503  502  0.00000000000E+00  0.00000000000E+00  0.31385268875E+02  0.31385268875E+02  0.00000000000E+00 0. -1.
         21   -1    0    0  501  503 -0.00000000000E+00 -0.00000000000E+00 -0.14364393806E+04  0.14364393806E+04  0.00000000000E+00 0. -1.
          6    1    1    2  501    0 -0.29370174124E+02  0.38555076898E+02 -0.10936617080E+04  0.11083203655E+04  0.17300000000E+03 0. -1.
         -6    1    1    2    0  502  0.29370174124E+02 -0.38555076898E+02 -0.31139240372E+03  0.35950428395E+03  0.17300000000E+03 0. -1.
</event>
<event>
 4    1  0.5712137E+000  0.1000000E+03  0.7546771E-02  0.1280296E+00
         21   -1    0    0  501  502  0.00000000000E+00  0.00000000000E+00  0.11399207646E+03  0.11399207646E+03  0.00000000000E+00 0. -1.
         21   -1    0    0  502  503 -0.00000000000E+00 -0.00000000000E+00 -0.38461570397E+03  0.38461570397E+03  0.00000000000E+00 0. -1.
          6    1    1    2  501    0 -0.84897111235E+02 -0.69329614873E+02 -0.18721071788E+03  0.27747246329E+03  0.17300000000E+03 0. -1.
         -6    1    1    2    0  503  0.84897111235E+02  0.69329614873E+02 -0.83412909625E+02  0.22113531714E+03  0.17300000000E+03 0. -1.
</event>
<event>
 4    1  0.5712137E+000  0.1000000E+03  0.7546771E-02  0.1280296E+00
         21   -1    0    0  501  502  0.00000000000E+00  0.00000000000E+00  0.21858180343E+04  0.21858180343E+04  0.00000000000E+00 0. -1.
         21   -1    0    0  502  503 -0.00000000000E+00 -0.00000000000E+00 -0.25517274243E+02  0.25517274243E+02  0.00000000000E+00 0. -1.
          6    1    1    2  501    0 -0.91501282966E+02  0.11927733806E+03  0.81335494803E+03  0.84502949040E+03  0.17300000000E+03 0. -1.
         -6    1    1    2    0  503  0.91501282966E+02 -0.11927733806E+03  0.13469458120E+04  0.13663058182E+04  0.17300000000E+03 0. -1.
</event>
<event>
 4    1  0.5712137E+000  0.1000000E+03  0.7546771E-02  0.1280296E+00
         21   -1    0    0  501  502  0.00000000000E+00  0.00000000000E+00  0.37181336113E+02  0.37181336113E+02  0.00000000000E+00 0. -1.
         21   -1    0    0  502  503 -0.00000000000E+00 -0.00000000000E+00 -0.21394324553E+04  0.21394324553E+04  0.00000000000E+00 0. -1.
          6    1    1    2  501    0  0.96502572856E+02 -0.22850414476E+02 -0.28148359835E+03  0.34495927898E+03  0.17300000000E+03 0. -1.
         -6    1    1    2    0  503 -0.96502572856E+02  0.22850414476E+02 -0.18207675208E+04  0.18316545124E+04  0.17300000000E+03 0. -1.
</event>
<event>
 4    1  0.5712137E+000  0.1000000E+03  0.7546771E-02  0.1280296E+00
         21   -1    0    0  501  502  0.00000000000E+00  0.00000000000E+00  0.77935284094E+03  0.77935284094E+03  0.00000000000E+00 0.  1.
         21   -1    0    0  502  503 -0.00000000000E+00 -0.00000000000E+00 -0.48597122711E+02  0.48597122711E+02  0.00000000000E+00 0. -1.
          6    1    1    2  501    0  0.40431236897E+02 -0.46250495948E+02  0.50276577104E+03  0.53523472778E+03  0.17300000000E+03 0.  1.
         -6    1    1    2    0  503 -0.40431236897E+02  0.46250495948E+02  0.22798994719E+03  0.29271523588E+03  0.17300000000E+03 0. -1.
</event>
<event>
 4    1  0.5712137E+000  0.1000000E+03  0.7546771E-02  0.1280296E+00
         21   -1    0    0  501  502  0.00000000000E+00  0.00000000000E+00  0.22549249836E+03  0.22549249836E+03  0.00000000000E+00 0.  1.
         21   -1    0    0  502  503 -0.00000000000E+00 -0.00000000000E+00 -0.19584025982E+03  0.19584025982E+03  0.00000000000E+00 0. -1.
          6    1    1    2  501    0 -0.39284900177E+01  0.90133945536E+02 -0.63418827144E+02  0.20515971536E+03  0.17300000000E+03 0.  1.
         -6    1    1    2    0  503  0.39284900177E+01 -0.90133945536E+02  0.93071065684E+02  0.21617304281E+03  0.17300000000E+03 0. -1.
</event>
<event>
 4    1  0.5712137E+000  0.1000000E+03  0.7546771E-02  0.1280296E+00
         21   -1    0    0  501  502  0.00000000000E+00  0.00000000000E+00  0.11636428372E+04  0.11636428372E+04  0.00000000000E+00 0.  1.
         21   -1    0    0  502  503 -0.00000000000E+00 -0.00000000000E+00 -0.22549579891E+03  0.22549579891E+03  0.00000000000E+00 0. -1.
          6    1    1    2  501    0  0.23065568051E+03  0.38644233372E+02  0.10407737679E+04  0.10806638958E+04  0.17300000000E+03 0.  1.
         -6    1    1    2    0  503 -0.23065568051E+03 -0.38644233372E+02 -0.10262672968E+03  0.30847474024E+03  0.17300000000E+03 0. -1.
</event>
<event>
 4    1  0.5712137E+000  0.1000000E+03  0.7546771E-02  0.1280296E+00
         21   -1    0    0  503  502  0.00000000000E+00  0.00000000000E+00  0.67396614141E+03  0.67396614141E+03  0.00000000000E+00 0.  1.
         21   -1    0    0  501  503 -0.00000000000E+00 -0.00000000000E+00 -0.69640077576E+02  0.69640077576E+02  0.00000000000E+00 0. -1.
          6    1    1    2  501    0  0.50985448484E+02  0.73351088430E+02  0.13911491841E+03  0.23929450193E+03  0.17300000000E+03 0. -1.
         -6    1    1    2    0  502 -0.50985448484E+02 -0.73351088430E+02  0.46521114542E+03  0.50431171705E+03  0.17300000000E+03 0.  1.
</event>
<event>
 4    1  0.5712137E+000  0.1000000E+03  0.7546771E-02  0.1280296E+00
         21   -1    0    0  503  502  0.00000000000E+00  0.00000000000E+00  0.27888468658E+02  0.27888468658E+02  0.00000000000E+00 0.  1.
         21   -1    0    0  501  503 -0.00000000000E+00 -0.00000000000E+00 -0.11675951047E+04  0.11675951047E+04  0.00000000000E+00 0. -1.
          6    1    1    2  501    0  0.13728020964E+02  0.24824748038E+02 -0.71150701179E+03  0.73278643171E+03  0.17300000000E+03 0. -1.
         -6    1    1    2    0  502 -0.13728020964E+02 -0.24824748038E+02 -0.42819962421E+03  0.46269714161E+03  0.17300000000E+03 0.  1.
</event>
<event>
 4    1  0.5712137E+000  0.1000000E+03  0.7546771E-02  0.1280296E+00
         21   -1    0    0  503  502  0.00000000000E+00  0.00000000000E+00  0.89410316698E+02  0.89410316698E+02  0.00000000000E+00 0. -1.
         21   -1    0    0  501  503 -0.00000000000E+00 -0.00000000000E+00 -0.18179466540E+04  0.18179466540E+04  0.00000000000E+00 0. -1.
          6    1    1    2  501    0  0.47686487512E+02  0.65768495825E+02 -0.17039759712E+04  0.17146610763E+04  0.17300000000E+03 0. -1.
         -6    1    1    2    0  502 -0.47686487512E+02 -0.65768495825E+02 -0.24560366096E+02  0.19269589440E+03  0.17300000000E+03 0. -1.
</event>
<event>
 4    1  0.5712137E+000  0.1000000E+03  0.7546771E-02  0.1280296E+00
         21   -1    0    0  501  502  0.00000000000E+00  0.00000000000E+00  0.92516119497E+02  0.92516119497E+02  0.00000000000E+00 0. -1.
         21   -1    0    0  502  503 -0.00000000000E+00 -0.00000000000E+00 -0.45904740627E+03  0.45904740627E+03  0.00000000000E+00 0. -1.
          6    1    1    2  501    0 -0.99514942052E+02 -0.37763997298E+01 -0.11473092355E+03  0.23023828896E+03  0.17300000000E+03 0. -1.
         -6    1    1    2    0  503  0.99514942052E+02  0.37763997298E+01 -0.25180036323E+03  0.32132523680E+03  0.17300000000E+03 0. -1.
</event>
<event>
 4    1  0.5712137E+000  0.1000000E+03  0.7546771E-02  0.1280296E+00
         21   -1    0    0  501  502  0.00000000000E+00  0.00000000000E+00  0.60651820948E+02  0.60651820948E+02  0.00000000000E+00 0. -1.
         21   -1    0    0  502  503 -0.00000000000E+00 -0.00000000000E+00 -0.12665526785E+04  0.12665526785E+04  0.00000000000E+00 0. -1.
          6    1    1    2  501    0  0.71939104183E+02  0.36693159198E+02 -0.12189682465E+03  0.22651591225E+03  0.17300000000E+03 0. -1.
         -6    1    1    2    0  503 -0.71939104183E+02 -0.36693159198E+02 -0.10840040329E+04  0.11006885872E+04  0.17300000000E+03 0. -1.
</event>
<event>
 4    1  0.5712137E+000  0.1000000E+03  0.7546771E-02  0.1280296E+00
         21   -1    0    0  501  502  0.00000000000E+00  0.00000000000E+00  0.85873863030E+02  0.85873863030E+02  0.00000000000E+00 0. -1.
         21   -1    0    0  502  503 -0.00000000000E+00 -0.00000000000E+00 -0.61690576826E+03  0.61690576826E+03  0.00000000000E+00 0. -1.
          6    1    1    2  501    0  0.44131543622E+02  0.12502410796E+03 -0.15261910808E+03  0.26608309391E+03  0.17300000000E+03 0. -1.
         -6    1    1    2    0  503 -0.44131543622E+02 -0.12502410796E+03 -0.37841279715E+03  0.43669653738E+03  0.17300000000E+03 0. -1.
</event>
<event>
 4    1  0.5712137E+000  0.1000000E+03  0.7546771E-02  0.1280296E+00
         21   -1    0    0  501  502  0.00000000000E+00  0.00000000000E+00  0.32574958488E+03  0.32574958488E+03  0.00000000000E+00 0. -1.
         21   -1    0    0  502  503 -0.00000000000E+00 -0.00000000000E+00 -0.18318532359E+03  0.18318532359E+03  0.00000000000E+00 0. -1.
          6    1    1    2  501    0 -0.55525775655E+02  0.31716387680E+02  0.23813234417E+03  0.30120599985E+03  0.17300000000E+03 0. -1.
         -6    1    1    2    0  503  0.55525775655E+02 -0.31716387680E+02 -0.95568082881E+02  0.20772890862E+03  0.17300000000E+03 0. -1.
</event>
<event>
 4    1  0.5712137E+000  0.1000000E+03  0.7546771E-02  0.1280296E+00
         21   -1    0    0  501  502  0.00000000000E+00  0.00000000000E+00  0.30734393718E+02  0.30734393718E+02  0.00000000000E+00 0. -1.
         21   -1    0    0  502  503 -0.00000000000E+00 -0.00000000000E+00 -0.17683617934E+04  0.17683617934E+04  0.00000000000E+00 0. -1.
          6    1    1    2  501    0  0.38623161022E+02  0.11685129716E+03 -0.49721601181E+03  0.54064659124E+03  0.17300000000E+03 0. -1.
         -6    1    1    2    0  503 -0.38623161022E+02 -0.11685129716E+03 -0.12404113879E+04  0.12584495959E+04  0.17300000000E+03 0. -1.
</event>
<event>
 4    1  0.5712137E+000  0.1000000E+03  0.7546771E-02  0.1280296E+00
         21   -1    0    0  503  502  0.00000000000E+00  0.00000000000E+00  0.64668806867E+03  0.64668806867E+03  0.00000000000E+00 0. -1.
         21   -1    0    0  501  503 -0.00000000000E+00 -0.00000000000E+00 -0.56161316258E+02  0.56161316258E+02  0.00000000000E+00 0. -1.
          6    1    1    2  501    0 -0.12461101237E+02  0.24678716277E+02  0.15695511281E+03  0.23521952623E+03  0.17300000000E+03 0.  1.
         -6    1    1    2    0  502  0.12461101237E+02 -0.24678716277E+02  0.43357163960E+03  0.46762985870E+03  0.17300000000E+03 0.  1.
</event>
<event>
 4    1  0.5712137E+000  0.1000000E+03  0.7546771E-02  0.1280296E+00
         21   -1    0    0  503  502  0.00000000000E+00  0.00000000000E+00  0.93210826985E+02  0.93210826985E+02  0.00000000000E+00 0. -1.
         21   -1    0    0  501  503 -0.00000000000E+00 -0.00000000000E+00 -0.61563745263E+03  0.61563745263E+03  0.00000000000E+00 0. -1.
          6    1    1    2  501    0 -0.81006273546E+02  0.13610841945E+03 -0.33320426207E+03  0.40748202225E+03  0.17300000000E+03 0.  1.
         -6    1    1    2    0  502  0.81006273546E+02 -0.13610841945E+03 -0.18922236358E+03  0.30136625736E+03  0.17300000000E+03 0.  1.
</event>
<event>
 4    1  0.5712137E+000  0.1000000E+03  0.7546771E-02  0.1280296E+00
         21   -1    0    0  503  502  0.00000000000E+00  0.00000000000E+00  0.35859360936E+03  0.35859360936E+03  0.00000000000E+00 0. -1.
         21   -1    0    0  501  503 -0.00000000000E+00 -0.00000000000E+00 -0.14597500589E+03  0.14597500589E+03  0.00000000000E+00 0. -1.
          6    1    1    2  501    0  0.80308925547E+02 -0.58277829369E+02 -0.17323147714E+02  0.20018721329E+03  0.17300000000E+03 0.  1.
         -6    1    1    2    0  502 -0.80308925547E+02  0.58277829369E+02  0.22994175119E+03  0.30438140196E+03  0.17300000000E+03 0.  1.
</event>
<event>
 4    1  0.5712137E+000  0.1000000E+03  0.7546771E-02  0.1280296E+00
         21   -1    0    0  503  502  0.00000000000E+00  0.00000000000E+00  0.10356108202E+03  0.10356108202E+03  0.00000000000E+00 0.  1.
         21   -1    0    0  501  503 -0.00000000000E+00 -0.00000000000E+00 -0.52298396576E+03  0.52298396576E+03  0.00000000000E+00 0.  1.
          6    1    1    2  501    0 -0.71271434053E+01  0.15243329885E+03 -0.25109366281E+03  0.34097468274E+03  0.17300000000E+03 0.  1.
         -6    1    1    2    0  502  0.71271434053E+01 -0.15243329885E+03 -0.16832922093E+03  0.28557036504E+03  0.17300000000E+03 0.  1.
</event>
<event>
 4    1  0.5712137E+000  0.1000000E+03  0.7546771E-02  0.1280296E+00
         21   -1    0    0  501  502  0.00000000000E+00  0.00000000000E+00  0.36484948524E+03  0.36484948524E+03  0.00000000000E+00 0.  1.
         21   -1    0    0  502  503 -0.00000000000E+00 -0.00000000000E+00 -0.14957288524E+03  0.14957288524E+03  0.00000000000E+00 0.  1.
          6    1    1    2  501    0 -0.13757617018E+03 -0.37245737531E+02  0.18007477829E+03  0.28752456128E+03  0.17300000000E+03 0.  1.
         -6    1    1    2    0  503  0.13757617018E+03  0.37245737531E+02  0.35201821714E+02  0.22689780919E+03  0.17300000000E+03 0.  1.
</event>
<event>
 4    1  0.5712137E+000  0.1000000E+03  0.7546771E-02  0.1280296E+00
         21   -1    0    0  503  502  0.00000000000E+00  0.00000000000E+00  0.20056943344E+03  0.20056943344E+03  0.00000000000E+00 0.  1.
         21   -1    0    0  501  503 -0.00000000000E+00 -0.00000000000E+00 -0.34554756321E+03  0.34554756321E+03  0.00000000000E+00 0. -1.
          6    1    1    2  501    0 -0.94445995860E+02 -0.13615430156E+03 -0.18572745088E+03  0.30311998610E+03  0.17300000000E+03 0. -1.
         -6    1    1    2    0  502  0.94445995860E+02  0.13615430156E+03  0.40749321108E+02  0.24299701055E+03  0.17300000000E+03 0. -1.
</event>
<event>
 4    1  0.5712137E+000  0.1000000E+03  0.7546771E-02  0.1280296E+00
         21   -1    0    0  503  502  0.00000000000E+00  0.00000000000E+00  0.10610903772E+04  0.10610903772E+04  0.00000000000E+00 0.  1.
         21   -1    0    0  501  503 -0.00000000000E+00 -0.00000000000E+00 -0.38210015216E+02  0.38210015216E+02  0.00000000000E+00 0. -1.
          6    1    1    2  501    0 -0.10075690686E+03 -0.50319497810E+01  0.45431061042E+03  0.49649210018E+03  0.17300000000E+03 0. -1.
         -6    1    1    2    0  502  0.10075690686E+03  0.50319497810E+01  0.56856975159E+03  0.60280829227E+03  0.17300000000E+03 0. -1.
</event>
<event>
 4    1  0.5712137E+000  0.1000000E+03  0.7546771E-02  0.1280296E+00
         21   -1    0    0  503  502  0.00000000000E+00  0.00000000000E+00  0.61129929474E+02  0.61129929474E+02  0.00000000000E+00 0.  1.
         21   -1    0    0  501  503 -0.00000000000E+00 -0.00000000000E+00 -0.75718946337E+03  0.75718946337E+03  0.00000000000E+00 0. -1.
          6    1    1    2  501    0  0.62138155237E+02 -0.10722451534E+03 -0.40816051578E+03  0.46030669522E+03  0.17300000000E+03 0. -1.
         -6    1    1    2    0  502 -0.62138155237E+02  0.10722451534E+03 -0.28789901812E+03  0.35801269762E+03  0.17300000000E+03 0. -1.
</event>
<event>
 4    1  0.5712137E+000  0.1000000E+03  0.7546771E-02  0.1280296E+00
         21   -1    0    0  501  502  0.00000000000E+00  0.00000000000E+00  0.10271267269E+03  0.10271267269E+03  0.00000000000E+00 0. -1.
         21   -1    0    0  502  503 -0.00000000000E+00 -0.00000000000E+00 -0.57740574875E+03  0.57740574875E+03  0.00000000000E+00 0.  1.
          6    1    1    2  501    0  0.67732250878E+00  0.15118363784E+03 -0.12458604572E+03  0.26135729166E+03  0.17300000000E+03 0. -1.
         -6    1    1    2    0  503 -0.67732250878E+00 -0.15118363784E+03 -0.35010703034E+03  0.41876112977E+03  0.17300000000E+03 0.  1.
</event>
<event>
 4    1  0.5712137E+000  0.1000000E+03  0.7546771E-02  0.1280296E+00
         21   -1    0    0  503  502  0.00000000000E+00  0.00000000000E+00  0.15085694392E+04  0.15085694392E+04  0.00000000000E+00 0.  1.
         21   -1    0    0  501  503 -0.00000000000E+00 -0.00000000000E+00 -0.40256841280E+02  0.40256841280E+02  0.00000000000E+00 0. -1.
          6    1    1    2  501    0  0.14099422423E+03  0.10441265531E+03  0.74816288221E+03  0.78769160981E+03  0.17300000000E+03 0. -1.
         -6    1    1    2    0  502 -0.14099422423E+03 -0.10441265531E+03  0.72014971576E+03  0.76113467072E+03  0.17300000000E+03 0.  1.
</event>
<event>
 4    1  0.5712137E+000  0.1000000E+03  0.7546771E-02  0.1280296E+00
         21   -1    0    0  501  502  0.00000000000E+00  0.00000000000E+00  0.21204084313E+03  0.21204084313E+03  0.00000000000E+00 0. -1.
         21   -1    0    0  502  503 -0.00000000000E+00 -0.00000000000E+00 -0.83745817451E+03  0.83745817451E+03  0.00000000000E+00 0.  1.
          6    1    1    2  501    0 -0.99563698212E+01  0.79201708928E+02  0.15534138276E+03  0.24582917889E+03  0.17300000000E+03 0. -1.
         -6    1    1    2    0  503  0.99563698212E+01 -0.79201708928E+02 -0.78075871414E+03  0.80366983874E+03  0.17300000000E+03 0. -1.
</event>
<event>
 4    1  0.5712137E+000  0.1000000E+03  0.7546771E-02  0.1280296E+00
         21   -1    0    0  501  502  0.00000000000E+00  0.00000000000E+00  0.59457737126E+03  0.59457737126E+03  0.00000000000E+00 0. -1.
         21   -1    0    0  502  503 -0.00000000000E+00 -0.00000000000E+00 -0.27376962241E+03  0.27376962241E+03  0.00000000000E+00 0.  1.
          6    1    1    2  501    0  0.23646410227E+03 -0.11067102455E+02  0.45865130020E+03  0.54435996142E+03  0.17300000000E+03 0. -1.
         -6    1    1    2    0  503 -0.23646410227E+03  0.11067102455E+02 -0.13784355135E+03  0.32398703225E+03  0.17300000000E+03 0. -1.
</event>
<event>
 4    1  0.5712137E+000  0.1000000E+03  0.7546771E-02  0.1280296E+00
         21   -1    0    0  501  502  0.00000000000E+00  0.00000000000E+00  0.70622605119E+02  0.70622605119E+02  0.00000000000E+00 0. -1.
         21   -1    0    0  502  503 -0.00000000000E+00 -0.00000000000E+00 -0.93702157756E+03  0.93702157756E+03  0.00000000000E+00 0. -1.
          6    1    1    2  501    0  0.69568299746E+01 -0.11392186536E+03 -0.13476070738E+03  0.24721657943E+03  0.17300000000E+03 0. -1.
         -6    1    1    2    0  503 -0.69568299746E+01  0.11392186536E+03 -0.73163826507E+03  0.76042760326E+03  0.17300000000E+03 0. -1.
</event>
<event>
 4    1  0.5712137E+000  0.1000000E+03  0.7546771E-02  0.1280296E+00
         21   -1    0    0  501  502  0.00000000000E+00  0.00000000000E+00  0.15298185422E+03  0.15298185422E+03  0.00000000000E+00 0. -1.
         21   -1    0    0  502  503 -0.00000000000E+00 -0.00000000000E+00 -0.26623537814E+03  0.26623537814E+03  0.00000000000E+00 0. -1.
          6    1    1    2  501    0 -0.80532912575E+02 -0.65228608678E+02 -0.48591017297E+02  0.20743772164E+03  0.17300000000E+03 0. -1.
         -6    1    1    2    0  503  0.80532912575E+02  0.65228608678E+02 -0.64662506623E+02  0.21177951072E+03  0.17300000000E+03 0. -1.
</event>
<event>
 4    1  0.5712137E+000  0.1000000E+03  0.7546771E-02  0.1280296E+00
         21   -1    0    0  501  502  0.00000000000E+00  0.00000000000E+00  0.10444277792E+03  0.10444277792E+03  0.00000000000E+00 0.  1.
         21   -1    0    0  502  503 -0.00000000000E+00 -0.00000000000E+00 -0.79364642452E+03  0.79364642452E+03  0.00000000000E+00 0. -1.
          6    1    1    2  501    0 -0.18292281512E+03  0.33972127976E+02 -0.13334214539E+03  0.28692157379E+03  0.17300000000E+03 0.  1.
         -6    1    1    2    0  503  0.18292281512E+03 -0.33972127976E+02 -0.55586150121E+03  0.61116762864E+03  0.17300000000E+03 0. -1.
</event>
<event>
 4    1  0.5712137E+000  0.1000000E+03  0.7546771E-02  0.1280296E+00
         21   -1    0    0  501  502  0.00000000000E+00  0.00000000000E+00  0.70350450138E+03  0.70350450138E+03  0.00000000000E+00 0.  1.
         21   -1    0    0  502  503 -0.00000000000E+00 -0.00000000000E+00 -0.97707994578E+02  0.97707994578E+02  0.00000000000E+00 0. -1.
          6    1    1    2  501    0 -0.40467509876E+02  0.31431689431E+02  0.59355082932E+03  0.62036856581E+03  0.17300000000E+03 0.  1.
         -6    1    1    2    0  503  0.40467509876E+02 -0.31431689431E+02  0.12245677485E+02  0.18084393015E+03  0.17300000000E+03 0. -1.
</event>
<event>
 4    1  0.5712137E+000  0.1000000E+03  0.7546771E-02  0.1280296E+00
         21   -1    0    0  501  502  0.00000000000E+00  0.00000000000E+00  0.51044217352E+03  0.51044217352E+03  0.00000000000E+00 0.  1.
         21   -1    0    0  502  503 -0.00000000000E+00 -0.00000000000E+00 -0.19999729105E+03  0.19999729105E+03  0.00000000000E+00 0. -1.
          6    1    1    2  501    0 -0.10819671055E+03  0.14760815248E+03  0.37382816638E+03  0.45074515286E+03  0.17300000000E+03 0.  1.
         -6    1    1    2    0  503  0.10819671055E+03 -0.14760815248E+03 -0.63383283910E+02  0.25969431171E+03  0.17300000000E+03 0. -1.
</event>
<event>
 4    1  0.5712137E+000  0.1000000E+03  0.7546771E-02  0.1280296E+00
         21   -1    0    0  503  502  0.00000000000E+00  0.00000000000E+00  0.43699417687E+03  0.43699417687E+03  0.00000000000E+00 0.  1.
         21   -1    0    0  501  503 -0.00000000000E+00 -0.00000000000E+00 -0.87640978675E+02  0.87640978675E+02  0.00000000000E+00 0. -1.
          6    1    1    2  501    0 -0.41201136779E+02 -0.20530768771E+01  0.65223308599E+02  0.18943291367E+03  0.17300000000E+03 0. -1.
         -6    1    1    2    0  502  0.41201136779E+02  0.20530768771E+01  0.28412988960E+03  0.33520224188E+03  0.17300000000E+03 0.  1.
</event>
<event>
 4    1  0.5712137E+000  0.1000000E+03  0.7546771E-02  0.1280296E+00
         21   -1    0    0  503  502  0.00000000000E+00  0.00000000000E+00  0.47384190211E+03  0.47384190211E+03  0.00000000000E+00 0.  1.
         21   -1    0    0  501  503 -0.00000000000E+00 -0.00000000000E+00 -0.68516867088E+03  0.68516867088E+03  0.00000000000E+00 0.  1.
          6    1    1    2  501    0 -0.52678471026E+02 -0.43140627949E+01 -0.65518904333E+03  0.67970237233E+03  0.17300000000E+03 0.  1.
         -6    1    1    2    0  502  0.52678471026E+02  0.43140627949E+01  0.44386227456E+03  0.47930820066E+03  0.17300000000E+03 0.  1.
</event>
<event>
 4    1  0.5712137E+000  0.1000000E+03  0.7546771E-02  0.1280296E+00
         21   -1    0    0  503  502  0.00000000000E+00  0.00000000000E+00  0.10882145546E+03  0.10882145546E+03  0.00000000000E+00 0.  1.
         21   -1    0    0  501  503 -0.00000000000E+00 -0.00000000000E+00 -0.80089896759E+03  0.80089896759E+03  0.00000000000E+00 0.  1.
          6    1    1    2  501    0  0.50818713928E+02  0.74759168406E+02 -0.68728770014E+03  0.71446823422E+03  0.17300000000E+03 0.  1.
         -6    1    1    2    0  502 -0.50818713928E+02 -0.74759168406E+02 -0.47898119900E+01  0.19525218884E+03  0.17300000000E+03 0.  1.
</event>
<event>
 4    1  0.5712137E+000  0.1000000E+03  0.7546771E-02  0.1280296E+00
         21   -1    0    0  501  502  0.00000000000E+00  0.00000000000E+00  0.19779064394E+03  0.19779064394E+03  0.00000000000E+00 0.  1.
         21   -1    0    0  502  503 -0.00000000000E+00 -0.00000000000E+00 -0.45759852076E+03  0.45759852076E+03  0.00000000000E+00 0.  1.
          6    1    1    2  501    0 -0.86234676726E+02  0.15734264557E+03  0.53614881493E+02  0.25494447062E+03  0.17300000000E+03 0.  1.
         -6    1    1    2    0  503  0.86234676726E+02 -0.15734264557E+03 -0.31342275831E+03  0.40044469407E+03  0.17300000000E+03 0.  1.
</event>
<event>
 4    1  0.5712137E+000  0.1000000E+03  0.7546771E-02  0.1280296E+00
         21   -1    0    0  501  502  0.00000000000E+00  0.00000000000E+00  0.12924460792E+04  0.12924460792E+04  0.00000000000E+00 0.  1.
         21   -1    0    0  502  503 -0.00000000000E+00 -0.00000000000E+00 -0.23460989748E+02  0.23460989748E+02  0.00000000000E+00 0.  1.
          6    1    1    2  501    0 -0.18041676977E+02  0.50835560584E+01  0.61008715618E+03  0.63441838150E+03  0.17300000000E+03 0.  1.
         -6    1    1    2    0  503  0.18041676977E+02 -0.50835560584E+01  0.65889793330E+03  0.68148868747E+03  0.17300000000E+03 0.  1.
</event>
<event>
 4    1  0.5712137E+000  0.1000000E+03  0.7546771E-02  0.1280296E+00
         21   -1    0    0  501  502  0.00000000000E+00  0.00000000000E+00  0.52620176234E+03  0.52620176234E+03  0.00000000000E+00 0. -1.
         21   -1    0    0  502  503 -0.00000000000E+00 -0.00000000000E+00 -0.16669527192E+03  0.16669527192E+03  0.00000000000E+00 0. -1.
          6    1    1    2  501    0  0.19622984966E+03  0.13111938451E+03  0.23320422323E+03  0.37418131518E+03  0.17300000000E+03 0. -1.
         -6    1    1    2    0  503 -0.19622984966E+03 -0.13111938451E+03  0.12630226719E+03  0.31871571908E+03  0.17300000000E+03 0. -1.
</event>
<event>
 4    1  0.5712137E+000  0.1000000E+03  0.7546771E-02  0.1280296E+00
         21   -1    0    0  501  502  0.00000000000E+00  0.00000000000E+00  0.33852868436E+03  0.33852868436E+03  0.00000000000E+00 0. -1.
         21   -1    0    0  502  503 -0.00000000000E+00 -0.00000000000E+00 -0.30119159875E+04  0.30119159875E+04  0.00000000000E+00 0. -1.
          6    1    1    2  501    0  0.29117214908E+02  0.88454359899E+02  0.30651228074E+03  0.36407521782E+03  0.17300000000E+03 0. -1.
         -6    1    1    2    0  503 -0.29117214908E+02 -0.88454359899E+02 -0.29798995839E+04  0.29863694540E+04  0.17300000000E+03 0. -1.
</event>
<event>
 4    1  0.5712137E+000  0.1000000E+03  0.7546771E-02  0.1280296E+00
         21   -1    0    0  501  502  0.00000000000E+00  0.00000000000E+00  0.40002399454E+03  0.40002399454E+03  0.00000000000E+00 0. -1.
         21   -1    0    0  502  503 -0.00000000000E+00 -0.00000000000E+00 -0.10175055745E+03  0.10175055745E+03  0.00000000000E+00 0. -1.
          6    1    1    2  501    0  0.46734757803E+02 -0.31967841567E+02  0.25731643537E+03  0.31519331908E+03  0.17300000000E+03 0. -1.
         -6    1    1    2    0  503 -0.46734757803E+02  0.31967841567E+02  0.40957001719E+02  0.18658123290E+03  0.17300000000E+03 0. -1.
</event>
<event>
 4    1  0.5712137E+000  0.1000000E+03  0.7546771E-02  0.1280296E+00
         21   -1    0    0  503  502  0.00000000000E+00  0.00000000000E+00  0.72526919925E+03  0.72526919925E+03  0.00000000000E+00 0. -1.
         21   -1    0    0  501  503 -0.00000000000E+00 -0.00000000000E+00 -0.20691798170E+03  0.20691798170E+03  0.00000000000E+00 0. -1.
          6    1    1    2  501    0 -0.16909878462E+03 -0.17725994726E+03 -0.35849015176E+02  0.30204244694E+03  0.17300000000E+03 0. -1.
         -6    1    1    2    0  502  0.16909878462E+03  0.17725994726E+03  0.55420023273E+03  0.63014473402E+03  0.17300000000E+03 0. -1.
</event>
<event>
 4    1  0.5712137E+000  0.1000000E+03  0.7546771E-02  0.1280296E+00
         21   -1    0    0  503  502  0.00000000000E+00  0.00000000000E+00  0.51896116036E+03  0.51896116036E+03  0.00000000000E+00 0. -1.
         21   -1    0    0  501  503 -0.00000000000E+00 -0.00000000000E+00 -0.14722318680E+03  0.14722318680E+03  0.00000000000E+00 0. -1.
          6    1    1    2  501    0  0.17906679309E+03 -0.63653554913E+02  0.63228241882E+02  0.26465732941E+03  0.17300000000E+03 0. -1.
         -6    1    1    2    0  502 -0.17906679309E+03  0.63653554913E+02  0.30850973167E+03  0.40152701774E+03  0.17300000000E+03 0. -1.
</event>
<event>
 4    1  0.5712137E+000  0.1000000E+03  0.7546771E-02  0.1280296E+00
         21   -1    0    0  501  502  0.00000000000E+00  0.00000000000E+00  0.19679168971E+03  0.19679168971E+03  0.00000000000E+00 0. -1.
         21   -1    0    0  502  503 -0.00000000000E+00 -0.00000000000E+00 -0.64646936353E+03  0.64646936353E+03  0.00000000000E+00 0.  1.
          6    1    1    2  501    0 -0.16044450903E+03 -0.47852240682E+02  0.86254924370E+02  0.25573656249E+03  0.17300000000E+03 0. -1.
         -6    1    1    2    0  503  0.16044450903E+03  0.47852240682E+02 -0.53593259820E+03  0.58752449075E+03  0.17300000000E+03 0.  1.
</event>
<event>
 4    1  0.5712137E+000  0.1000000E+03  0.7546771E-02  0.1280296E+00
         21   -1    0    0  501  502  0.00000000000E+00  0.00000000000E+00  0.12355353309E+03  0.12355353309E+03  0.00000000000E+00 0. -1.
         21   -1    0    0  502  503 -0.00000000000E+00 -0.00000000000E+00 -0.31761356655E+03  0.31761356655E+03  0.00000000000E+00 0.  1.
          6    1    1    2  501    0 -0.48508579708E+02 -0.82202350111E+02 -0.81166058715E+02  0.21360533176E+03  0.17300000000E+03 0. -1.
         -6    1    1    2    0  503  0.48508579708E+02  0.82202350111E+02 -0.11289397474E+03  0.22756176788E+03  0.17300000000E+03 0.  1.
</event>
<event>
 4    1  0.5712137E+000  0.1000000E+03  0.7546771E-02  0.1280296E+00
         21   -1    0    0  501  502  0.00000000000E+00  0.00000000000E+00  0.18819637103E+03  0.18819637103E+03  0.00000000000E+00 0. -1.
         21   -1    0    0  502  503 -0.00000000000E+00 -0.00000000000E+00 -0.24629263109E+03  0.24629263109E+03  0.00000000000E+00 0.  1.
          6    1    1    2  501    0 -0.11460706272E+03 -0.40015927139E+01  0.28667940009E+02  0.20952718762E+03  0.17300000000E+03 0. -1.
         -6    1    1    2    0  503  0.11460706272E+03  0.40015927139E+01 -0.86764200073E+02  0.22496181450E+03  0.17300000000E+03 0.  1.
</event>
<event>
 4    1  0.5712137E+000  0.1000000E+03  0.7546771E-02  0.1280296E+00
         21   -1    0    0  501  502  0.00000000000E+00  0.00000000000E+00  0.19408614532E+03  0.19408614532E+03  0.00000000000E+00 0. -1.
         21   -1    0    0  502  503 -0.00000000000E+00 -0.00000000000E+00 -0.34245497695E+03  0.34245497695E+03  0.00000000000E+00 0. -1.
          6    1    1    2  501    0  0.55112508124E+02 -0.83127117771E+02  0.95494209057E+02  0.22134961085E+03  0.17300000000E+03 0. -1.
         -6    1    1    2    0  503 -0.55112508124E+02  0.83127117771E+02 -0.24386304068E+03  0.31519151142E+03  0.17300000000E+03 0. -1.
</event>
<event>
 4    1  0.5712137E+000  0.1000000E+03  0.7546771E-02  0.1280296E+00
         21   -1    0    0  501  502  0.00000000000E+00  0.00000000000E+00  0.90899612376E+02  0.90899612376E+02  0.00000000000E+00 0. -1.
         21   -1    0    0  502  503 -0.00000000000E+00 -0.00000000000E+00 -0.94440075453E+03  0.94440075453E+03  0.00000000000E+00 0. -1.
          6    1    1    2  501    0 -0.93655129860E+02 -0.39830585133E+02 -0.49644237797E+02  0.20676389725E+03  0.17300000000E+03 0. -1.
         -6    1    1    2    0  503  0.93655129860E+02  0.39830585133E+02 -0.80385690435E+03  0.82853646965E+03  0.17300000000E+03 0. -1.
</event>
<event>
 4    1  0.5712137E+000  0.1000000E+03  0.7546771E-02  0.1280296E+00
         21   -1    0    0  501  502  0.00000000000E+00  0.00000000000E+00  0.66880880001E+02  0.66880880001E+02  0.00000000000E+00 0. -1.
         21   -1    0    0  502  503 -0.00000000000E+00 -0.00000000000E+00 -0.91785158381E+03  0.91785158381E+03  0.00000000000E+00 0. -1.
          6    1    1    2  501    0 -0.43653859728E+02  0.38446082207E+02 -0.92517054586E+02  0.20462689485E+03  0.17300000000E+03 0. -1.
         -6    1    1    2    0  503  0.43653859728E+02 -0.38446082207E+02 -0.75845364922E+03  0.78010556896E+03  0.17300000000E+03 0. -1.
</event>
<event>
 4    1  0.5712137E+000  0.1000000E+03  0.7546771E-02  0.1280296E+00
         21   -1    0    0  503  502  0.00000000000E+00  0.00000000000E+00  0.20698708427E+03  0.20698708427E+03  0.00000000000E+00 0. -1.
         21   -1    0    0  501  503 -0.00000000000E+00 -0.00000000000E+00 -0.30077078179E+03  0.30077078179E+03  0.00000000000E+00 0. -1.
          6    1    1    2  501    0  0.67406476004E+02  0.14226477708E+03  0.41483544998E+02  0.23755585514E+03  0.17300000000E+03 0. -1.
         -6    1    1    2    0  502 -0.67406476004E+02 -0.14226477708E+03 -0.13526724252E+03  0.27020201092E+03  0.17300000000E+03 0. -1.
</event>
<event>
 4    1  0.5712137E+000  0.1000000E+03  0.7546771E-02  0.1280296E+00
         21   -1    0    0  501  502  0.00000000000E+00  0.00000000000E+00  0.14981024299E+03  0.14981024299E+03  0.00000000000E+00 0. -1.
         21   -1    0    0  502  503 -0.00000000000E+00 -0.00000000000E+00 -0.25867829950E+03  0.25867829950E+03  0.00000000000E+00 0.  1.
          6    1    1    2  501    0 -0.14494042828E+02 -0.79921949455E+02 -0.54823125942E+01  0.19119793679E+03  0.17300000000E+03 0. -1.
         -6    1    1    2    0  503  0.14494042828E+02  0.79921949455E+02 -0.10338574391E+03  0.21729060570E+03  0.17300000000E+03 0.  1.
</event>
<event>
 4    1  0.5712137E+000  0.1000000E+03  0.7546771E-02  0.1280296E+00
         21   -1    0    0  503  502  0.00000000000E+00  0.00000000000E+00  0.21407308033E+03  0.21407308033E+03  0.00000000000E+00 0.  1.
         21   -1    0    0  501  503 -0.00000000000E+00 -0.00000000000E+00 -0.18946908255E+03  0.18946908255E+03  0.00000000000E+00 0.  1.
          6    1    1    2  501    0  0.25964708022E+02  0.55951917161E+02 -0.70474314233E+02  0.19672420304E+03  0.17300000000E+03 0.  1.
         -6    1    1    2    0  502 -0.25964708022E+02 -0.55951917161E+02  0.95078312015E+02  0.20681795984E+03  0.17300000000E+03 0.  1.
</event>
<event>
 4    1  0.5712137E+000  0.1000000E+03  0.7546771E-02  0.1280296E+00
         21   -1    0    0  503  502  0.00000000000E+00  0.00000000000E+00  0.49103802636E+02  0.49103802636E+02  0.00000000000E+00 0.  1.
         21   -1    0    0  501  503 -0.00000000000E+00 -0.00000000000E+00 -0.13102801957E+04  0.13102801957E+04  0.00000000000E+00 0.  1.
          6    1    1    2  501    0  0.30179697320E+02 -0.69166559276E+02 -0.10846697103E+04  0.11009687586E+04  0.17300000000E+03 0.  1.
         -6    1    1    2    0  502 -0.30179697320E+02  0.69166559276E+02 -0.17650668279E+03  0.25841523972E+03  0.17300000000E+03 0.  1.
</event>
<event>
 4    1  0.5712137E+000  0.1000000E+03  0.7546771E-02  0.1280296E+00
         21   -1    0    0  503  502  0.00000000000E+00  0.00000000000E+00  0.43519924404E+03  0.43519924404E+03  0.00000000000E+00 0.  1.
         21   -1    0    0  501  503 -0.00000000000E+00 -0.00000000000E+00 -0.26576307854E+03  0.26576307854E+03  0.00000000000E+00 0.  1.
          6    1    1    2  501    0  0.10064518491E+03  0.36989045794E+02 -0.19606602415E+03  0.28261020608E+03  0.17300000000E+03 0.  1.
         -6    1    1    2    0  502 -0.10064518491E+03 -0.36989045794E+02  0.36550218964E+03  0.41835211651E+03  0.17300000000E+03 0.  1.
</event>
<event>
 4    1  0.5712137E+000  0.1000000E+03  0.7546771E-02  0.1280296E+00
         21   -1    0    0  503  502  0.00000000000E+00  0.00000000000E+00  0.15111646485E+03  0.15111646485E+03  0.00000000000E+00 0.  1.
         21   -1    0    0  501  503 -0.00000000000E+00 -0.00000000000E+00 -0.23244650866E+03  0.23244650866E+03  0.00000000000E+00 0.  1.
          6    1    1    2  501    0  0.52444577021E+02 -0.33728823281E+02 -0.77693000116E+02  0.19963283659E+03  0.17300000000E+03 0.  1.
         -6    1    1    2    0  502 -0.52444577021E+02  0.33728823281E+02 -0.36370436962E+01  0.18393013692E+03  0.17300000000E+03 0.  1.
</event>
<event>
 4    1  0.5712137E+000  0.1000000E+03  0.7546771E-02  0.1280296E+00
         21   -1    0    0  501  502  0.00000000000E+00  0.00000000000E+00  0.72267681120E+03  0.72267681120E+03  0.00000000000E+00 0. -1.
         21   -1    0    0  502  503 -0.00000000000E+00 -0.00000000000E+00 -0.86647762640E+02  0.86647762640E+02  0.00000000000E+00 0.  1.
          6    1    1    2  501    0 -0.11909942414E+03  0.17726122029E+02  0.53611851100E+03  0.57606505368E+03  0.17300000000E+03 0. -1.
         -6    1    1    2    0  503  0.11909942414E+03 -0.17726122029E+02  0.99910537564E+02  0.23325952017E+03  0.17300000000E+03 0.  1.
</event>
<event>
 4    1  0.5712137E+000  0.1000000E+03  0.7546771E-02  0.1280296E+00
         21   -1    0    0  501  502  0.00000000000E+00  0.00000000000E+00  0.93553271610E+03  0.93553271610E+03  0.00000000000E+00 0. -1.
         21   -1    0    0  502  503 -0.00000000000E+00 -0.00000000000E+00 -0.17960701560E+03  0.17960701560E+03  0.00000000000E+00 0.  1.
          6    1    1    2  501    0 -0.55894421888E+02 -0.19758722102E+03  0.79926648735E+03  0.84316120292E+03  0.17300000000E+03 0. -1.
         -6    1    1    2    0  503  0.55894421888E+02  0.19758722102E+03 -0.43340786858E+02  0.27197852878E+03  0.17300000000E+03 0.  1.
</event>
<event>
 4    1  0.5712137E+000  0.1000000E+03  0.7546771E-02  0.1280296E+00
         21   -1    0    0  501  502  0.00000000000E+00  0.00000000000E+00  0.49358931983E+02  0.49358931983E+02  0.00000000000E+00 0. -1.
         21   -1    0    0  502  503 -0.00000000000E+00 -0.00000000000E+00 -0.16287996541E+04  0.16287996541E+04  0.00000000000E+00 0.  1.
          6    1    1    2  501    0 -0.19684496586E+03  0.10032487228E+03 -0.66937577082E+03  0.72581398660E+03  0.17300000000E+03 0. -1.
         -6    1    1    2    0  503  0.19684496586E+03 -0.10032487228E+03 -0.91006495130E+03  0.95234459948E+03  0.17300000000E+03 0.  1.
</event>
<event>
 4    1  0.5712137E+000  0.1000000E+03  0.7546771E-02  0.1280296E+00
         21   -1    0    0  503  502  0.00000000000E+00  0.00000000000E+00  0.13985639564E+03  0.13985639564E+03  0.00000000000E+00 0. -1.
         21   -1    0    0  501  503 -0.00000000000E+00 -0.00000000000E+00 -0.45488233851E+03  0.45488233851E+03  0.00000000000E+00 0. -1.
          6    1    1    2  501    0  0.13490645851E+03 -0.10922833625E+03 -0.22784391988E+03  0.33462282321E+03  0.17300000000E+03 0. -1.
         -6    1    1    2    0  502 -0.13490645851E+03  0.10922833625E+03 -0.87182022987E+02  0.26011591093E+03  0.17300000000E+03 0. -1.
</event>
<event>
 4    1  0.5712137E+000  0.1000000E+03  0.7546771E-02  0.1280296E+00
         21   -1    0    0  503  502  0.00000000000E+00  0.00000000000E+00  0.97031308356E+03  0.97031308356E+03  0.00000000000E+00 0.  1.
         21   -1    0    0  501  503 -0.00000000000E+00 -0.00000000000E+00 -0.75336560921E+02  0.75336560921E+02  0.00000000000E+00 0.  1.
          6    1    1    2  501    0  0.39697897052E+02 -0.15970709634E+03  0.20221014882E+03  0.31289011480E+03  0.17300000000E+03 0.  1.
         -6    1    1    2    0  502 -0.39697897052E+02  0.15970709634E+03  0.69276637382E+03  0.73275952969E+03  0.17300000000E+03 0.  1.
</event>
<event>
 4    1  0.5712137E+000  0.1000000E+03  0.7546771E-02  0.1280296E+00
         21   -1    0    0  503  502  0.00000000000E+00  0.00000000000E+00  0.13804705592E+03  0.13804705592E+03  0.00000000000E+00 0. -1.
         21   -1    0    0  501  503 -0.00000000000E+00 -0.00000000000E+00 -0.11655118304E+04  0.11655118304E+04  0.00000000000E+00 0. -1.
          6    1    1    2  501    0  0.10656218746E+03  0.20837427167E+03 -0.96225152334E+03  0.10053021094E+04  0.17300000000E+03 0. -1.
         -6    1    1    2    0  502 -0.10656218746E+03 -0.20837427167E+03 -0.65213251138E+02  0.29825677698E+03  0.17300000000E+03 0. -1.
</event>
<event>
 4    1  0.5712137E+000  0.1000000E+03  0.7546771E-02  0.1280296E+00
         21   -1    0    0  503  502  0.00000000000E+00  0.00000000000E+00  0.19735614132E+04  0.19735614132E+04  0.00000000000E+00 0. -1.
         21   -1    0    0  501  503 -0.00000000000E+00 -0.00000000000E+00 -0.27304474167E+02  0.27304474167E+02  0.00000000000E+00 0. -1.
          6    1    1    2  501    0  0.10077372584E+02 -0.37141979651E+01  0.30766603826E+03  0.35313275096E+03  0.17300000000E+03 0. -1.
         -6    1    1    2    0  502 -0.10077372584E+02  0.37141979651E+01  0.16385909008E+04  0.16477331364E+04  0.17300000000E+03 0. -1.
</event>
<event>
 4    1  0.5712137E+000  0.1000000E+03  0.7546771E-02  0.1280296E+00
         21   -1    0    0  501  502  0.00000000000E+00  0.00000000000E+00  0.20232794540E+03  0.20232794540E+03  0.00000000000E+00 0. -1.
         21   -1    0    0  502  503 -0.00000000000E+00 -0.00000000000E+00 -0.88120735527E+03  0.88120735527E+03  0.00000000000E+00 0.  1.
          6    1    1    2  501    0 -0.98157418040E+02  0.30697444384E+03 -0.68791576014E+02  0.37219547125E+03  0.17300000000E+03 0. -1.
         -6    1    1    2    0  503  0.98157418040E+02 -0.30697444384E+03 -0.61008783386E+03  0.71133982941E+03  0.17300000000E+03 0.  1.
</event>
<event>
 4    1  0.5712137E+000  0.1000000E+03  0.7546771E-02  0.1280296E+00
         21   -1    0    0  501  502  0.00000000000E+00  0.00000000000E+00  0.61942946733E+03  0.61942946733E+03  0.00000000000E+00 0. -1.
         21   -1    0    0  502  503 -0.00000000000E+00 -0.00000000000E+00 -0.14992139293E+04  0.14992139293E+04  0.00000000000E+00 0.  1.
          6    1    1    2  501    0 -0.28643958896E+02  0.15136400107E+03  0.58836874158E+03  0.63232769453E+03  0.17300000000E+03 0. -1.
         -6    1    1    2    0  503  0.28643958896E+02 -0.15136400107E+03 -0.14681532035E+04  0.14863157021E+04  0.17300000000E+03 0.  1.
</event>
<event>
 4    1  0.5712137E+000  0.1000000E+03  0.7546771E-02  0.1280296E+00
         21   -1    0    0  501  502  0.00000000000E+00  0.00000000000E+00  0.44686606128E+03  0.44686606128E+03  0.00000000000E+00 0. -1.
         21   -1    0    0  502  503 -0.00000000000E+00 -0.00000000000E+00 -0.19086735530E+03  0.19086735530E+03  0.00000000000E+00 0.  1.
          6    1    1    2  501    0  0.17272060153E+03  0.28809640161E+02  0.29959634156E+03  0.38774910630E+03  0.17300000000E+03 0. -1.
         -6    1    1    2    0  503 -0.17272060153E+03 -0.28809640161E+02 -0.43597635585E+02  0.24998431028E+03  0.17300000000E+03 0.  1.
</event>
<event>
 4    1  0.5712137E+000  0.1000000E+03  0.7546771E-02  0.1280296E+00
         21   -1    0    0  501  502  0.00000000000E+00  0.00000000000E+00  0.12629151859E+03  0.12629151859E+03  0.00000000000E+00 0. -1.
         21   -1    0    0  502  503 -0.00000000000E+00 -0.00000000000E+00 -0.49438008213E+03  0.49438008213E+03  0.00000000000E+00 0.  1.
          6    1    1    2  501    0 -0.34479272234E+02  0.79895446679E+01  0.35523996598E+02  0.18012109086E+03  0.17300000000E+03 0. -1.
         -6    1    1    2    0  503  0.34479272234E+02 -0.79895446679E+01 -0.40361256014E+03  0.44055050987E+03  0.17300000000E+03 0. -1.
</event>
<event>
 4    1  0.5712137E+000  0.1000000E+03  0.7546771E-02  0.1280296E+00
         21   -1    0    0  501  502  0.00000000000E+00  0.00000000000E+00  0.16413860417E+03  0.16413860417E+03  0.00000000000E+00 0. -1.
         21   -1    0    0  502  503 -0.00000000000E+00 -0.00000000000E+00 -0.36532256273E+03  0.36532256273E+03  0.00000000000E+00 0.  1.
          6    1    1    2  501    0  0.14675719761E+03  0.69186279262E+02 -0.16644177535E+03  0.28975210244E+03  0.17300000000E+03 0. -1.
         -6    1    1    2    0  503 -0.14675719761E+03 -0.69186279262E+02 -0.34742183211E+02  0.23970906445E+03  0.17300000000E+03 0. -1.
</event>
<event>
 4    1  0.5712137E+000  0.1000000E+03  0.7546771E-02  0.1280296E+00
         21   -1    0    0  501  502  0.00000000000E+00  0.00000000000E+00  0.14371975994E+03  0.14371975994E+03  0.00000000000E+00 0.  1.
         21   -1    0    0  502  503 -0.00000000000E+00 -0.00000000000E+00 -0.29112598820E+03  0.29112598820E+03  0.00000000000E+00 0.  1.
          6    1    1    2  501    0 -0.15439592207E+02 -0.31475090105E+02  0.36157708984E+02  0.18018169225E+03  0.17300000000E+03 0.  1.
         -6    1    1    2    0  503  0.15439592207E+02  0.31475090105E+02 -0.18356393725E+03  0.25466405589E+03  0.17300000000E+03 0.  1.
</event>
<event>
 4    1  0.5712137E+000  0.1000000E+03  0.7546771E-02  0.1280296E+00
         21   -1    0    0  501  502  0.00000000000E+00  0.00000000000E+00  0.69587471853E+02  0.69587471853E+02  0.00000000000E+00 0.  1.
         21   -1    0    0  502  503 -0.00000000000E+00 -0.00000000000E+00 -0.53524853014E+03  0.53524853014E+03  0.00000000000E+00 0.  1.
          6    1    1    2  501    0  0.64441068439E+02 -0.46667914167E+02 -0.28206090781E+03  0.34032029212E+03  0.17300000000E+03 0.  1.
         -6    1    1    2    0  503 -0.64441068439E+02  0.46667914167E+02 -0.18360015048E+03  0.26451570987E+03  0.17300000000E+03 0.  1.
</event>
<event>
 4    1  0.5712137E+000  0.1000000E+03  0.7546771E-02  0.1280296E+00
         21   -1    0    0  503  502  0.00000000000E+00  0.00000000000E+00  0.58606313043E+02  0.58606313043E+02  0.00000000000E+00 0.  1.
         21   -1    0    0  501  503 -0.00000000000E+00 -0.00000000000E+00 -0.80786907433E+03  0.80786907433E+03  0.00000000000E+00 0.  1.
          6    1    1    2  501    0 -0.11898303558E+03 -0.52763284652E+02 -0.33117793233E+03  0.39566241903E+03  0.17300000000E+03 0.  1.
         -6    1    1    2    0  502  0.11898303558E+03  0.52763284652E+02 -0.41808482895E+03  0.47081296835E+03  0.17300000000E+03 0.  1.
</event>
<event>
 4    1  0.5712137E+000  0.1000000E+03  0.7546771E-02  0.1280296E+00
         21   -1    0    0  503  502  0.00000000000E+00  0.00000000000E+00  0.98333054741E+02  0.98333054741E+02  0.00000000000E+00 0.  1.
         21   -1    0    0  501  503 -0.00000000000E+00 -0.00000000000E+00 -0.74012329903E+03  0.74012329903E+03  0.00000000000E+00 0.  1.
          6    1    1    2  501    0  0.11691775787E+03 -0.52236059270E+02 -0.57363367201E+03  0.61268503952E+03  0.17300000000E+03 0.  1.
         -6    1    1    2    0  502 -0.11691775787E+03  0.52236059270E+02 -0.68156572286E+02  0.22577131425E+03  0.17300000000E+03 0.  1.
</event>
<event>
 4    1  0.5712137E+000  0.1000000E+03  0.7546771E-02  0.1280296E+00
         21   -1    0    0  503  502  0.00000000000E+00  0.00000000000E+00  0.39354342773E+03  0.39354342773E+03  0.00000000000E+00 0.  1.
         21   -1    0    0  501  503 -0.00000000000E+00 -0.00000000000E+00 -0.16858984137E+03  0.16858984137E+03  0.00000000000E+00 0.  1.
          6    1    1    2  501    0 -0.54542073700E+02 -0.15615768890E+03  0.86230612096E+01  0.23950661534E+03  0.17300000000E+03 0.  1.
         -6    1    1    2    0  502  0.54542073700E+02  0.15615768890E+03  0.21633052515E+03  0.32262665376E+03  0.17300000000E+03 0.  1.
</event>
<event>
 4    1  0.5712137E+000  0.1000000E+03  0.7546771E-02  0.1280296E+00
         21   -1    0    0  501  502  0.00000000000E+00  0.00000000000E+00  0.45271470886E+03  0.45271470886E+03  0.00000000000E+00 0.  1.
         21   -1    0    0  502  503 -0.00000000000E+00 -0.00000000000E+00 -0.34274084067E+03  0.34274084067E+03  0.00000000000E+00 0.  1.
          6    1    1    2  501    0  0.30640799441E+03  0.15815305350E+03  0.13536136192E+03  0.40883975549E+03  0.17300000000E+03 0.  1.
         -6    1    1    2    0  503 -0.30640799441E+03 -0.15815305350E+03 -0.25387493720E+02  0.38661579404E+03  0.17300000000E+03 0.  1.
</event>
<event>
 4    1  0.5712137E+000  0.1000000E+03  0.7546771E-02  0.1280296E+00
         21   -1    0    0  501  502  0.00000000000E+00  0.00000000000E+00  0.43290527964E+03  0.43290527964E+03  0.00000000000E+00 0.  1.
         21   -1    0    0  502  503 -0.00000000000E+00 -0.00000000000E+00 -0.22518945748E+03  0.22518945748E+03  0.00000000000E+00 0.  1.
          6    1    1    2  501    0 -0.13307118364E+02 -0.66249766602E+02  0.36835798984E+03  0.41253208318E+03  0.17300000000E+03 0.  1.
         -6    1    1    2    0  503  0.13307118364E+02  0.66249766602E+02 -0.16064216768E+03  0.24556265394E+03  0.17300000000E+03 0.  1.
</event>
<event>
 4    1  0.5712137E+000  0.1000000E+03  0.7546771E-02  0.1280296E+00
         21   -1    0    0  501  502  0.00000000000E+00  0.00000000000E+00  0.46985478888E+03  0.46985478888E+03  0.00000000000E+00 0.  1.
         21   -1    0    0  502  503 -0.00000000000E+00 -0.00000000000E+00 -0.87536707398E+02  0.87536707398E+02  0.00000000000E+00 0.  1.
          6    1    1    2  501    0 -0.72352919802E+02  0.51781194527E+02  0.26991348832E+03  0.33271388352E+03  0.17300000000E+03 0.  1.
         -6    1    1    2    0  503  0.72352919802E+02 -0.51781194527E+02  0.11240459316E+03  0.22467761276E+03  0.17300000000E+03 0.  1.
</event>
<event>
 4    1  0.5712137E+000  0.1000000E+03  0.7546771E-02  0.1280296E+00
         21   -1    0    0  501  502  0.00000000000E+00  0.00000000000E+00  0.19819030282E+04  0.19819030282E+04  0.00000000000E+00 0.  1.
         21   -1    0    0  502  503 -0.00000000000E+00 -0.00000000000E+00 -0.21315628544E+02  0.21315628544E+02  0.00000000000E+00 0.  1.
          6    1    1    2  501    0 -0.42428145944E+02 -0.32569458807E+02  0.14541563076E+04  0.14653874860E+04  0.17300000000E+03 0.  1.
         -6    1    1    2    0  503  0.42428145944E+02  0.32569458807E+02  0.50643109205E+03  0.53783117073E+03  0.17300000000E+03 0.  1.
</event>
<event>
 4    1  0.5712137E+000  0.1000000E+03  0.7546771E-02  0.1280296E+00
         21   -1    0    0  501  502  0.00000000000E+00  0.00000000000E+00  0.17090100807E+03  0.17090100807E+03  0.00000000000E+00 0. -1.
         21   -1    0    0  502  503 -0.00000000000E+00 -0.00000000000E+00 -0.23135519593E+03  0.23135519593E+03  0.00000000000E+00 0.  1.
          6    1    1    2  501    0 -0.67201098741E+02  0.62455631674E+02  0.47116261706E+01  0.19587723967E+03  0.17300000000E+03 0. -1.
         -6    1    1    2    0  503  0.67201098741E+02 -0.62455631674E+02 -0.65165814029E+02  0.20637896433E+03  0.17300000000E+03 0.  1.
</event>
<event>
 4    1  0.5712137E+000  0.1000000E+03  0.7546771E-02  0.1280296E+00
         21   -1    0    0  501  502  0.00000000000E+00  0.00000000000E+00  0.14830033966E+04  0.14830033966E+04  0.00000000000E+00 0. -1.
         21   -1    0    0  502  503 -0.00000000000E+00 -0.00000000000E+00 -0.24470631783E+02  0.24470631783E+02  0.00000000000E+00 0.  1.
          6    1    1    2  501    0 -0.72287340189E+02  0.10350474498E+01  0.59599764867E+03  0.62479494884E+03  0.17300000000E+03 0. -1.
         -6    1    1    2    0  503  0.72287340189E+02 -0.10350474498E+01  0.86253511611E+03  0.88267907950E+03  0.17300000000E+03 0.  1.
</event>
<event>
 4    1  0.5712137E+000  0.1000000E+03  0.7546771E-02  0.1280296E+00
         21   -1    0    0  501  502  0.00000000000E+00  0.00000000000E+00  0.14161444272E+03  0.14161444272E+03  0.00000000000E+00 0. -1.
         21   -1    0    0  502  503 -0.00000000000E+00 -0.00000000000E+00 -0.39295138308E+03  0.39295138308E+03  0.00000000000E+00 0.  1.
          6    1    1    2  501    0  0.59718712210E+02 -0.13032022059E+03 -0.44207916916E+02  0.22898258536E+03  0.17300000000E+03 0.  1.
         -6    1    1    2    0  503 -0.59718712210E+02  0.13032022059E+03 -0.20712902344E+03  0.30558324043E+03  0.17300000000E+03 0. -1.
</event>
<event>
 4    1  0.5712137E+000  0.1000000E+03  0.7546771E-02  0.1280296E+00
         21   -1    0    0  501  502  0.00000000000E+00  0.00000000000E+00  0.53424939931E+03  0.53424939931E+03  0.00000000000E+00 0. -1.
         21   -1    0    0  502  503 -0.00000000000E+00 -0.00000000000E+00 -0.88323481021E+02  0.88323481021E+02  0.00000000000E+00 0.  1.
          6    1    1    2  501    0  0.11607880355E+03 -0.36891655667E+01  0.13497704087E+03  0.24826538248E+03  0.17300000000E+03 0.  1.
         -6    1    1    2    0  503 -0.11607880355E+03  0.36891655667E+01  0.31094887742E+03  0.37430749785E+03  0.17300000000E+03 0. -1.
</event>
<event>
 4    1  0.5712137E+000  0.1000000E+03  0.7546771E-02  0.1280296E+00
         21   -1    0    0  501  502  0.00000000000E+00  0.00000000000E+00  0.80618674517E+03  0.80618674517E+03  0.00000000000E+00 0. -1.
         21   -1    0    0  502  503 -0.00000000000E+00 -0.00000000000E+00 -0.12830060944E+03  0.12830060944E+03  0.00000000000E+00 0. -1.
          6    1    1    2  501    0  0.12973078150E+03 -0.70362182068E+02  0.85288560128E+01  0.22755802275E+03  0.17300000000E+03 0. -1.
         -6    1    1    2    0  503 -0.12973078150E+03  0.70362182068E+02  0.66935727972E+03  0.70692933186E+03  0.17300000000E+03 0. -1.
</event>
<event>
 4    1  0.5712137E+000  0.1000000E+03  0.7546771E-02  0.1280296E+00
         21   -1    0    0  503  502  0.00000000000E+00  0.00000000000E+00  0.36778216639E+03  0.36778216639E+03  0.00000000000E+00 0. -1.
         21   -1    0    0  501  503 -0.00000000000E+00 -0.00000000000E+00 -0.18778165834E+03  0.18778165834E+03  0.00000000000E+00 0. -1.
          6    1    1    2  501    0  0.10750689684E+03  0.91945424117E+01 -0.85259035675E+02  0.22099858742E+03  0.17300000000E+03 0. -1.
         -6    1    1    2    0  502 -0.10750689684E+03 -0.91945424117E+01  0.26525954373E+03  0.33456523731E+03  0.17300000000E+03 0. -1.
</event>
<event>
 4    1  0.5712137E+000  0.1000000E+03  0.7546771E-02  0.1280296E+00
         21   -1    0    0  503  502  0.00000000000E+00  0.00000000000E+00  0.45113408483E+02  0.45113408483E+02  0.00000000000E+00 0. -1.
         21   -1    0    0  501  503 -0.00000000000E+00 -0.00000000000E+00 -0.10570263384E+04  0.10570263384E+04  0.00000000000E+00 0. -1.
          6    1    1    2  501    0  0.80827664203E+02  0.96659554858E+02 -0.61540035080E+03  0.65155412101E+03  0.17300000000E+03 0. -1.
         -6    1    1    2    0  502 -0.80827664203E+02 -0.96659554858E+02 -0.39651257915E+03  0.45058562590E+03  0.17300000000E+03 0. -1.
</event>
<event>
 4    1  0.5712137E+000  0.1000000E+03  0.7546771E-02  0.1280296E+00
         21   -1    0    0  501  502  0.00000000000E+00  0.00000000000E+00  0.16619475485E+03  0.16619475485E+03  0.00000000000E+00 0.  1.
         21   -1    0    0  502  503 -0.00000000000E+00 -0.00000000000E+00 -0.10540103385E+04  0.10540103385E+04  0.00000000000E+00 0.  1.
          6    1    1    2  501    0  0.28477964963E+03  0.23485913198E+02 -0.76312947081E+02  0.34264223741E+03  0.17300000000E+03 0.  1.
         -6    1    1    2    0  503 -0.28477964963E+03 -0.23485913198E+02 -0.81150263662E+03  0.87756285598E+03  0.17300000000E+03 0.  1.
</event>
<event>
 4    1  0.5712137E+000  0.1000000E+03  0.7546771E-02  0.1280296E+00
         21   -1    0    0  501  502  0.00000000000E+00  0.00000000000E+00  0.29996495343E+03  0.29996495343E+03  0.00000000000E+00 0.  1.
         21   -1    0    0  502  503 -0.00000000000E+00 -0.00000000000E+00 -0.13167324986E+03  0.13167324986E+03  0.00000000000E+00 0.  1.
          6    1    1    2  501    0 -0.23671815643E+02 -0.92149510920E+02  0.10882497203E+03  0.22544126010E+03  0.17300000000E+03 0.  1.
         -6    1    1    2    0  503  0.23671815643E+02  0.92149510920E+02  0.59466731540E+02  0.20619694318E+03  0.17300000000E+03 0.  1.
</event>
<event>
 4    1  0.5712137E+000  0.1000000E+03  0.7546771E-02  0.1280296E+00
         21   -1    0    0  503  502  0.00000000000E+00  0.00000000000E+00  0.25854040656E+03  0.25854040656E+03  0.00000000000E+00 0. -1.
         21   -1    0    0  501  503 -0.00000000000E+00 -0.00000000000E+00 -0.14931594406E+03  0.14931594406E+03  0.00000000000E+00 0. -1.
          6    1    1    2  501    0  0.90696325640E+02  0.82273748016E+01  0.34334643609E+02  0.19849781090E+03  0.17300000000E+03 0. -1.
         -6    1    1    2    0  502 -0.90696325640E+02 -0.82273748016E+01  0.74889818889E+02  0.20935853972E+03  0.17300000000E+03 0. -1.
</event>
<event>
 4    1  0.5712137E+000  0.1000000E+03  0.7546771E-02  0.1280296E+00
         21   -1    0    0  503  502  0.00000000000E+00  0.00000000000E+00  0.84203182448E+02  0.84203182448E+02  0.00000000000E+00 0. -1.
         21   -1    0    0  501  503 -0.00000000000E+00 -0.00000000000E+00 -0.77839753470E+03  0.77839753470E+03  0.00000000000E+00 0. -1.
          6    1    1    2  501    0  0.15565412382E+03 -0.35011358801E+01 -0.52676614817E+03  0.57589238497E+03  0.17300000000E+03 0. -1.
         -6    1    1    2    0  502 -0.15565412382E+03  0.35011358801E+01 -0.16742820409E+03  0.28670833218E+03  0.17300000000E+03 0. -1.
</event>
<event>
 4    1  0.5712137E+000  0.1000000E+03  0.7546771E-02  0.1280296E+00
         21   -1    0    0  501  502  0.00000000000E+00  0.00000000000E+00  0.83844107737E+02  0.83844107737E+02  0.00000000000E+00 0. -1.
         21   -1    0    0  502  503 -0.00000000000E+00 -0.00000000000E+00 -0.52119246373E+03  0.52119246373E+03  0.00000000000E+00 0. -1.
          6    1    1    2  501    0 -0.52872344061E+02  0.92845004386E+02 -0.28889104174E+03  0.35327427532E+03  0.17300000000E+03 0. -1.
         -6    1    1    2    0  503  0.52872344061E+02 -0.92845004386E+02 -0.14845731425E+03  0.25176229615E+03  0.17300000000E+03 0. -1.
</event>
<event>
 4    1  0.5712137E+000  0.1000000E+03  0.7546771E-02  0.1280296E+00
         21   -1    0    0  503  502  0.00000000000E+00  0.00000000000E+00  0.67518686379E+03  0.67518686379E+03  0.00000000000E+00 0. -1.
         21   -1    0    0  501  503 -0.00000000000E+00 -0.00000000000E+00 -0.95108392189E+02  0.95108392189E+02  0.00000000000E+00 0. -1.
          6    1    1    2  501    0 -0.11537161363E+03  0.85277102243E+01  0.70295541966E+02  0.21966746298E+03  0.17300000000E+03 0. -1.
         -6    1    1    2    0  502  0.11537161363E+03 -0.85277102243E+01  0.50978292964E+03  0.55062779300E+03  0.17300000000E+03 0. -1.
</event>
<event>
 4    1  0.5712137E+000  0.1000000E+03  0.7546771E-02  0.1280296E+00
         21   -1    0    0  503  502  0.00000000000E+00  0.00000000000E+00  0.10266978903E+04  0.10266978903E+04  0.00000000000E+00 0. -1.
         21   -1    0    0  501  503 -0.00000000000E+00 -0.00000000000E+00 -0.30092538130E+02  0.30092538130E+02  0.00000000000E+00 0. -1.
          6    1    1    2  501    0 -0.15450913983E+02  0.19461359574E+02  0.44210567037E+03  0.47539867378E+03  0.17300000000E+03 0. -1.
         -6    1    1    2    0  502  0.15450913983E+02 -0.19461359574E+02  0.55449968182E+03  0.58139175467E+03  0.17300000000E+03 0. -1.
</event>
<event>
 4    1  0.5712137E+000  0.1000000E+03  0.7546771E-02  0.1280296E+00
         21   -1    0    0  503  502  0.00000000000E+00  0.00000000000E+00  0.16221422058E+04  0.16221422058E+04  0.00000000000E+00 0. -1.
         21   -1    0    0  501  503 -0.00000000000E+00 -0.00000000000E+00 -0.16107567332E+03  0.16107567332E+03  0.00000000000E+00 0. -1.
          6    1    1    2  501    0 -0.95791668672E+02 -0.33618692200E+02 -0.89558741791E+02  0.21967254832E+03  0.17300000000E+03 0.  1.
         -6    1    1    2    0  502  0.95791668672E+02  0.33618692200E+02  0.15506252743E+04  0.15635453308E+04  0.17300000000E+03 0.  1.
</event>
<event>
 4    1  0.5712137E+000  0.1000000E+03  0.7546771E-02  0.1280296E+00
         21   -1    0    0  503  502  0.00000000000E+00  0.00000000000E+00  0.32560896222E+03  0.32560896222E+03  0.00000000000E+00 0. -1.
         21   -1    0    0  501  503 -0.00000000000E+00 -0.00000000000E+00 -0.14095506369E+03  0.14095506369E+03  0.00000000000E+00 0. -1.
          6    1    1    2  501    0  0.54469784957E+02  0.90933399513E+02  0.17426025235E+02  0.20363817662E+03  0.17300000000E+03 0.  1.
         -6    1    1    2    0  502 -0.54469784957E+02 -0.90933399513E+02  0.16722787329E+03  0.26292584929E+03  0.17300000000E+03 0.  1.
</event>
<event>
 4    1  0.5712137E+000  0.1000000E+03  0.7546771E-02  0.1280296E+00
         21   -1    0    0  501  502  0.00000000000E+00  0.00000000000E+00  0.14517267429E+03  0.14517267429E+03  0.00000000000E+00 0. -1.
         21   -1    0    0  502  503 -0.00000000000E+00 -0.00000000000E+00 -0.46868252084E+03  0.46868252084E+03  0.00000000000E+00 0. -1.
          6    1    1    2  501    0 -0.18106220729E+03 -0.13346397123E+02 -0.77319257724E+02  0.26242887959E+03  0.17300000000E+03 0. -1.
         -6    1    1    2    0  503  0.18106220729E+03  0.13346397123E+02 -0.24619058883E+03  0.35142631554E+03  0.17300000000E+03 0. -1.
</event>
<event>
 4    1  0.5712137E+000  0.1000000E+03  0.7546771E-02  0.1280296E+00
         21   -1    0    0  501  502  0.00000000000E+00  0.00000000000E+00  0.68267385216E+03  0.68267385216E+03  0.00000000000E+00 0. -1.
         21   -1    0    0  502  503 -0.00000000000E+00 -0.00000000000E+00 -0.63305459407E+02  0.63305459407E+02  0.00000000000E+00 0. -1.
          6    1    1    2  501    0  0.18823564756E+02  0.11146141792E+03  0.26916527480E+03  0.33934778537E+03  0.17300000000E+03 0. -1.
         -6    1    1    2    0  503 -0.18823564756E+02 -0.11146141792E+03  0.35020311795E+03  0.40663152620E+03  0.17300000000E+03 0. -1.
</event>
<event>
 4    1  0.5712137E+000  0.1000000E+03  0.7546771E-02  0.1280296E+00
         21   -1    0    0  503  502  0.00000000000E+00  0.00000000000E+00  0.32187397470E+03  0.32187397470E+03  0.00000000000E+00 0. -1.
         21   -1    0    0  501  503 -0.00000000000E+00 -0.00000000000E+00 -0.26744202516E+03  0.26744202516E+03  0.00000000000E+00 0. -1.
          6    1    1    2  501    0  0.12932903854E+03  0.19347047921E+02 -0.17125155049E+03  0.27632662199E+03  0.17300000000E+03 0. -1.
         -6    1    1    2    0  502 -0.12932903854E+03 -0.19347047921E+02  0.22568350004E+03  0.31298937787E+03  0.17300000000E+03 0. -1.
</event>
<event>
 4    1  0.5712137E+000  0.1000000E+03  0.7546771E-02  0.1280296E+00
         21   -1    0    0  503  502  0.00000000000E+00  0.00000000000E+00  0.18062151656E+03  0.18062151656E+03  0.00000000000E+00 0. -1.
         21   -1    0    0  501  503 -0.00000000000E+00 -0.00000000000E+00 -0.32489768726E+03  0.32489768726E+03  0.00000000000E+00 0. -1.
          6    1    1    2  501    0 -0.13116323905E+02 -0.44813376803E+02 -0.24222856538E+03  0.30130375799E+03  0.17300000000E+03 0. -1.
         -6    1    1    2    0  502  0.13116323905E+02  0.44813376803E+02  0.97952394681E+02  0.20421544583E+03  0.17300000000E+03 0. -1.
</event>
<event>
 4    1  0.5712137E+000  0.1000000E+03  0.7546771E-02  0.1280296E+00
         21   -1    0    0  503  502  0.00000000000E+00  0.00000000000E+00  0.84103282115E+03  0.84103282115E+03  0.00000000000E+00 0. -1.
         21   -1    0    0  501  503 -0.00000000000E+00 -0.00000000000E+00 -0.24057053162E+03  0.24057053162E+03  0.00000000000E+00 0. -1.
          6    1    1    2  501    0 -0.93558740472E+02  0.39803395198E+03  0.38705009199E+03  0.58900003273E+03  0.17300000000E+03 0. -1.
         -6    1    1    2    0  502  0.93558740472E+02 -0.39803395198E+03  0.21341219754E+03  0.49260332003E+03  0.17300000000E+03 0. -1.
</event>
<event>
 4    1  0.5712137E+000  0.1000000E+03  0.7546771E-02  0.1280296E+00
         21   -1    0    0  503  502  0.00000000000E+00  0.00000000000E+00  0.51733059479E+03  0.51733059479E+03  0.00000000000E+00 0. -1.
         21   -1    0    0  501  503 -0.00000000000E+00 -0.00000000000E+00 -0.14729228924E+03  0.14729228924E+03  0.00000000000E+00 0. -1.
          6    1    1    2  501    0  0.46242344080E+02 -0.50294153974E+02 -0.60524130062E+02  0.19560170406E+03  0.17300000000E+03 0. -1.
         -6    1    1    2    0  502 -0.46242344080E+02  0.50294153974E+02  0.43056243560E+03  0.46902117997E+03  0.17300000000E+03 0. -1.
</event>
<event>
 4    1  0.5712137E+000  0.1000000E+03  0.7546771E-02  0.1280296E+00
         21   -1    0    0  503  502  0.00000000000E+00  0.00000000000E+00  0.10175191592E+04  0.10175191592E+04  0.00000000000E+00 0.  1.
         21   -1    0    0  501  503 -0.00000000000E+00 -0.00000000000E+00 -0.21652954779E+03  0.21652954779E+03  0.00000000000E+00 0. -1.
          6    1    1    2  501    0 -0.32090791956E+03 -0.12547693522E+03  0.48582962970E+02  0.38860733189E+03  0.17300000000E+03 0. -1.
         -6    1    1    2    0  502  0.32090791956E+03  0.12547693522E+03  0.75240664842E+03  0.84544137508E+03  0.17300000000E+03 0.  1.
</event>
<event>
 4    1  0.5712137E+000  0.1000000E+03  0.7546771E-02  0.1280296E+00
         21   -1    0    0  503  502  0.00000000000E+00  0.00000000000E+00  0.21102178590E+03  0.21102178590E+03  0.00000000000E+00 0. -1.
         21   -1    0    0  501  503 -0.00000000000E+00 -0.00000000000E+00 -0.47800674741E+03  0.47800674741E+03  0.00000000000E+00 0.  1.
          6    1    1    2  501    0  0.78988351405E+02 -0.14384720751E+03 -0.36105490465E+03  0.43269021590E+03  0.17300000000E+03 0. -1.
         -6    1    1    2    0  502 -0.78988351405E+02  0.14384720751E+03  0.94069943150E+02  0.25633831740E+03  0.17300000000E+03 0.  1.
</event>
<event>
 4    1  0.5712137E+000  0.1000000E+03  0.7546771E-02  0.1280296E+00
         21   -1    0    0  503  502  0.00000000000E+00  0.00000000000E+00  0.70913149507E+03  0.70913149507E+03  0.00000000000E+00 0. -1.
         21   -1    0    0  501  503 -0.00000000000E+00 -0.00000000000E+00 -0.10765678379E+03  0.10765678379E+03  0.00000000000E+00 0.  1.
          6    1    1    2  501    0 -0.21503913230E+03  0.76595529662E+01  0.31647162355E+03  0.41998069680E+03  0.17300000000E+03 0. -1.
         -6    1    1    2    0  502  0.21503913230E+03 -0.76595529662E+01  0.28500308773E+03  0.39680758207E+03  0.17300000000E+03 0.  1.
</event>
<event>
 4    1  0.5712137E+000  0.1000000E+03  0.7546771E-02  0.1280296E+00
         21   -1    0    0  503  502  0.00000000000E+00  0.00000000000E+00  0.83276282821E+03  0.83276282821E+03  0.00000000000E+00 0. -1.
         21   -1    0    0  501  503 -0.00000000000E+00 -0.00000000000E+00 -0.63820355870E+02  0.63820355870E+02  0.00000000000E+00 0.  1.
          6    1    1    2  501    0  0.14377702214E+03  0.45086436531E+02  0.42854024983E+03  0.48608678708E+03  0.17300000000E+03 0. -1.
         -6    1    1    2    0  502 -0.14377702214E+03 -0.45086436531E+02  0.34040222251E+03  0.41049639699E+03  0.17300000000E+03 0. -1.
</event>
<event>
 4    1  0.5712137E+000  0.1000000E+03  0.7546771E-02  0.1280296E+00
         21   -1    0    0  503  502  0.00000000000E+00  0.00000000000E+00  0.70839680254E+02  0.70839680254E+02  0.00000000000E+00 0. -1.
         21   -1    0    0  501  503 -0.00000000000E+00 -0.00000000000E+00 -0.49330819234E+03  0.49330819234E+03  0.00000000000E+00 0.  1.
          6    1    1    2  501    0  0.54523068254E+02 -0.24689267358E+01 -0.27935204784E+03  0.33308471476E+03  0.17300000000E+03 0. -1.
         -6    1    1    2    0  502 -0.54523068254E+02  0.24689267358E+01 -0.14311646424E+03  0.23106315783E+03  0.17300000000E+03 0. -1.
</event>
<event>
 4    1  0.5712137E+000  0.1000000E+03  0.7546771E-02  0.1280296E+00
         21   -1    0    0  503  502  0.00000000000E+00  0.00000000000E+00  0.16067787328E+04  0.16067787328E+04  0.00000000000E+00 0.  1.
         21   -1    0    0  501  503 -0.00000000000E+00 -0.00000000000E+00 -0.21625451576E+02  0.21625451576E+02  0.00000000000E+00 0. -1.
          6    1    1    2  501    0 -0.32940922172E+02 -0.60682649353E+02  0.76143650468E+03  0.78388904760E+03  0.17300000000E+03 0.  1.
         -6    1    1    2    0  502  0.32940922172E+02  0.60682649353E+02  0.82371677651E+03  0.84451513675E+03  0.17300000000E+03 0. -1.
</event>
<event>
 4    1  0.5712137E+000  0.1000000E+03  0.7546771E-02  0.1280296E+00
         21   -1    0    0  503  502  0.00000000000E+00  0.00000000000E+00  0.10932161717E+03  0.10932161717E+03  0.00000000000E+00 0.  1.
         21   -1    0    0  501  503 -0.00000000000E+00 -0.00000000000E+00 -0.28167542247E+03  0.28167542247E+03  0.00000000000E+00 0. -1.
          6    1    1    2  501    0 -0.45417148506E+01  0.61379269419E+01 -0.54549784826E+02  0.18155709941E+03  0.17300000000E+03 0.  1.
         -6    1    1    2    0  502  0.45417148506E+01 -0.61379269419E+01 -0.11780402047E+03  0.20943994022E+03  0.17300000000E+03 0. -1.
</event>
<event>
 4    1  0.5712137E+000  0.1000000E+03  0.7546771E-02  0.1280296E+00
         21   -1    0    0  501  502  0.00000000000E+00  0.00000000000E+00  0.18944107249E+03  0.18944107249E+03  0.00000000000E+00 0. -1.
         21   -1    0    0  502  503 -0.00000000000E+00 -0.00000000000E+00 -0.20225163996E+03  0.20225163996E+03  0.00000000000E+00 0. -1.
          6    1    1    2  501    0  0.90759946162E+02  0.10877127271E+02 -0.11893460190E+02  0.19602585064E+03  0.17300000000E+03 0. -1.
         -6    1    1    2    0  503 -0.90759946162E+02 -0.10877127271E+02 -0.91710727653E+00  0.19566686181E+03  0.17300000000E+03 0. -1.
</event>
<event>
 4    1  0.5712137E+000  0.1000000E+03  0.7546771E-02  0.1280296E+00
         21   -1    0    0  503  502  0.00000000000E+00  0.00000000000E+00  0.18240329538E+03  0.18240329538E+03  0.00000000000E+00 0.  1.
         21   -1    0    0  501  503 -0.00000000000E+00 -0.00000000000E+00 -0.89017637686E+03  0.89017637686E+03  0.00000000000E+00 0. -1.
          6    1    1    2  501    0  0.16987123319E+03 -0.16020579549E+03 -0.72539575273E+03  0.78144106038E+03  0.17300000000E+03 0.  1.
         -6    1    1    2    0  502 -0.16987123319E+03  0.16020579549E+03  0.17622671250E+02  0.29113861186E+03  0.17300000000E+03 0. -1.
</event>
<event>
 4    1  0.5712137E+000  0.1000000E+03  0.7546771E-02  0.1280296E+00
         21   -1    0    0  503  502  0.00000000000E+00  0.00000000000E+00  0.40083940038E+03  0.40083940038E+03  0.00000000000E+00 0.  1.
         21   -1    0    0  501  503 -0.00000000000E+00 -0.00000000000E+00 -0.17755955188E+03  0.17755955188E+03  0.00000000000E+00 0. -1.
          6    1    1    2  501    0  0.17299543249E+03 -0.76685247863E+02  0.31716752621E+02  0.25834666496E+03  0.17300000000E+03 0. -1.
         -6    1    1    2    0  502 -0.17299543249E+03  0.76685247863E+02  0.19156309588E+03  0.32005228730E+03  0.17300000000E+03 0.  1.
</event>
<event>
 4    1  0.5712137E+000  0.1000000E+03  0.7546771E-02  0.1280296E+00
         21   -1    0    0  501  502  0.00000000000E+00  0.00000000000E+00  0.10085198457E+03  0.10085198457E+03  0.00000000000E+00 0.  1.
         21   -1    0    0  502  503 -0.00000000000E+00 -0.00000000000E+00 -0.57591215539E+03  0.57591215539E+03  0.00000000000E+00 0. -1.
          6    1    1    2  501    0  0.17451423198E+02  0.13096006707E+03 -0.92307528079E+02  0.23644189789E+03  0.17300000000E+03 0. -1.
         -6    1    1    2    0  503 -0.17451423198E+02 -0.13096006707E+03 -0.38275264274E+03  0.44032224207E+03  0.17300000000E+03 0.  1.
</event>
<event>
 4    1  0.5712137E+000  0.1000000E+03  0.7546771E-02  0.1280296E+00
         21   -1    0    0  501  502  0.00000000000E+00  0.00000000000E+00  0.79632178796E+02  0.79632178796E+02  0.00000000000E+00 0.  1.
         21   -1    0    0  502  503 -0.00000000000E+00 -0.00000000000E+00 -0.46431203474E+03  0.46431203474E+03  0.00000000000E+00 0. -1.
          6    1    1    2  501    0 -0.41226175817E+02  0.60224965516E+02 -0.13370528609E+03  0.23050541766E+03  0.17300000000E+03 0. -1.
         -6    1    1    2    0  503  0.41226175817E+02 -0.60224965516E+02 -0.25097456985E+03  0.31343879587E+03  0.17300000000E+03 0.  1.
</event>
<event>
 4    1  0.5712137E+000  0.1000000E+03  0.7546771E-02  0.1280296E+00
         21   -1    0    0  501  502  0.00000000000E+00  0.00000000000E+00  0.54677828779E+02  0.54677828779E+02  0.00000000000E+00 0.  1.
         21   -1    0    0  502  503 -0.00000000000E+00 -0.00000000000E+00 -0.19626721409E+04  0.19626721409E+04  0.00000000000E+00 0. -1.
          6    1    1    2  501    0 -0.24401043989E+03  0.11805875999E+03 -0.11464507283E+04  0.11906961149E+04  0.17300000000E+03 0. -1.
         -6    1    1    2    0  503  0.24401043989E+03 -0.11805875999E+03 -0.76154358382E+03  0.82665385479E+03  0.17300000000E+03 0.  1.
</event>
<event>
 4    1  0.5712137E+000  0.1000000E+03  0.7546771E-02  0.1280296E+00
         21   -1    0    0  501  502  0.00000000000E+00  0.00000000000E+00  0.94370249024E+02  0.94370249024E+02  0.00000000000E+00 0.  1.
         21   -1    0    0  502  503 -0.00000000000E+00 -0.00000000000E+00 -0.56375559469E+03  0.56375559469E+03  0.00000000000E+00 0. -1.
          6    1    1    2  501    0  0.11037758451E+03  0.62585681553E+02 -0.11386856938E+03  0.24288933651E+03  0.17300000000E+03 0. -1.
         -6    1    1    2    0  503 -0.11037758451E+03 -0.62585681553E+02 -0.35551677628E+03  0.41523650720E+03  0.17300000000E+03 0.  1.
</event>
<event>
 4    1  0.5712137E+000  0.1000000E+03  0.7546771E-02  0.1280296E+00
         21   -1    0    0  501  502  0.00000000000E+00  0.00000000000E+00  0.14462844686E+03  0.14462844686E+03  0.00000000000E+00 0. -1.
         21   -1    0    0  502  503 -0.00000000000E+00 -0.00000000000E+00 -0.11683459478E+04  0.11683459478E+04  0.00000000000E+00 0. -1.
          6    1    1    2  501    0  0.34136083928E+03  0.14748907089E+03 -0.46763476306E+03  0.62200604519E+03  0.17300000000E+03 0. -1.
         -6    1    1    2    0  503 -0.34136083928E+03 -0.14748907089E+03 -0.55608273791E+03  0.69096834951E+03  0.17300000000E+03 0. -1.
</event>
<event>
 4    1  0.5712137E+000  0.1000000E+03  0.7546771E-02  0.1280296E+00
         21   -1    0    0  501  502  0.00000000000E+00  0.00000000000E+00  0.15195105518E+03  0.15195105518E+03  0.00000000000E+00 0. -1.
         21   -1    0    0  502  503 -0.00000000000E+00 -0.00000000000E+00 -0.27433461953E+03  0.27433461953E+03  0.00000000000E+00 0. -1.
          6    1    1    2  501    0 -0.44804043000E+02  0.61555542100E+02  0.19401678593E+02  0.19000503195E+03  0.17300000000E+03 0. -1.
         -6    1    1    2    0  503  0.44804043000E+02 -0.61555542100E+02 -0.14178524294E+03  0.23628064277E+03  0.17300000000E+03 0. -1.
</event>
<event>
 4    1  0.5712137E+000  0.1000000E+03  0.7546771E-02  0.1280296E+00
         21   -1    0    0  501  502  0.00000000000E+00  0.00000000000E+00  0.29750794077E+03  0.29750794077E+03  0.00000000000E+00 0. -1.
         21   -1    0    0  502  503 -0.00000000000E+00 -0.00000000000E+00 -0.15003251313E+03  0.15003251313E+03  0.00000000000E+00 0. -1.
          6    1    1    2  501    0 -0.83772963818E+02 -0.82292437237E+02  0.10580952800E+03  0.23433866712E+03  0.17300000000E+03 0. -1.
         -6    1    1    2    0  503  0.83772963818E+02  0.82292437237E+02  0.41665899635E+02  0.21320178678E+03  0.17300000000E+03 0. -1.
</event>
