<event>
 4    1  0.1082663E+000  0.1000000E+03  0.7546771E-02  0.1280296E+00
          1   -1    0    0  502    0  0.00000000000E+00  0.00000000000E+00  0.54543121040E+03  0.54543121040E+03  0.00000000000E+00 0. -1.
         -1   -1    0    0    0  501 -0.00000000000E+00 -0.00000000000E+00 -0.56656107876E+02  0.56656107876E+02  0.00000000000E+00 0.  1.
          6    1    1    2  502    0 -0.17792912780E+02  0.21035758116E+02  0.21934027948E+03  0.28071025821E+03  0.17300000000E+03 0. -1.
         -6    1    1    2    0  501  0.17792912780E+02 -0.21035758116E+02  0.26943482305E+03  0.32137706007E+03  0.17300000000E+03 0.  1.
</event>
<event>
 4    1  0.1082663E+000  0.1000000E+03  0.7546771E-02  0.1280296E+00
          2   -1    0    0  502    0  0.00000000000E+00  0.00000000000E+00  0.37674084735E+03  0.37674084735E+03  0.00000000000E+00 0. -1.
         -2   -1    0    0    0  501 -0.00000000000E+00 -0.00000000000E+00 -0.91738269498E+02  0.91738269498E+02  0.00000000000E+00 0.  1.
          6    1    1    2  502    0 -0.65432589220E+02  0.18690383451E+02  0.14081121507E+03  0.23321139006E+03  0.17300000000E+03 0. -1.
         -6    1    1    2    0  501  0.65432589220E+02 -0.18690383451E+02  0.14419136278E+03  0.23526772679E+03  0.17300000000E+03 0.  1.
</event>
<event>
 4    1  0.1082663E+000  0.1000000E+03  0.7546771E-02  0.1280296E+00
         -1   -1    0    0    0  501 -0.00000000000E+00  0.00000000000E+00  0.40959003066E+02  0.40959003066E+02  0.00000000000E+00 0. -1.
          1   -1    0    0  502    0  0.00000000000E+00 -0.00000000000E+00 -0.22418775211E+04  0.22418775211E+04  0.00000000000E+00 0.  1.
          6    1    1    2  502    0  0.97883250357E+01 -0.25145947687E+02 -0.20320520261E+04  0.20395814686E+04  0.17300000000E+03 0. -1.
         -6    1    1    2    0  501 -0.97883250357E+01  0.25145947687E+02 -0.16886649192E+03  0.24325505562E+03  0.17300000000E+03 0. -1.
</event>
<event>
 4    1  0.1082663E+000  0.1000000E+03  0.7546771E-02  0.1280296E+00
         -1   -1    0    0    0  501 -0.00000000000E+00  0.00000000000E+00  0.20065467482E+02  0.20065467482E+02  0.00000000000E+00 0. -1.
          1   -1    0    0  502    0  0.00000000000E+00 -0.00000000000E+00 -0.24844496306E+04  0.24844496306E+04  0.00000000000E+00 0.  1.
          6    1    1    2  502    0  0.11310654464E+03 -0.52199308846E+01 -0.75952693093E+03  0.78716611775E+03  0.17300000000E+03 0.  1.
         -6    1    1    2    0  501 -0.11310654464E+03  0.52199308846E+01 -0.17048572322E+04  0.17173489803E+04  0.17300000000E+03 0. -1.
</event>
<event>
 4    1  0.1082663E+000  0.1000000E+03  0.7546771E-02  0.1280296E+00
          2   -1    0    0  502    0  0.00000000000E+00  0.00000000000E+00  0.14800506300E+04  0.14800506300E+04  0.00000000000E+00 0.  1.
         -2   -1    0    0    0  501 -0.00000000000E+00 -0.00000000000E+00 -0.21226389632E+02  0.21226389632E+02  0.00000000000E+00 0. -1.
          6    1    1    2  502    0  0.20429717117E+02  0.17762040588E+02  0.61310205271E+03  0.63761743268E+03  0.17300000000E+03 0.  1.
         -6    1    1    2    0  501 -0.20429717117E+02 -0.17762040588E+02  0.84572218769E+03  0.86365958698E+03  0.17300000000E+03 0. -1.
</event>
<event>
 4    1  0.1082663E+000  0.1000000E+03  0.7546771E-02  0.1280296E+00
          1   -1    0    0  502    0  0.00000000000E+00  0.00000000000E+00  0.13074596583E+03  0.13074596583E+03  0.00000000000E+00 0.  1.
         -1   -1    0    0    0  501 -0.00000000000E+00 -0.00000000000E+00 -0.28718649472E+03  0.28718649472E+03  0.00000000000E+00 0. -1.
          6    1    1    2  502    0  0.99179706286E+01  0.16347495205E+02  0.13626699200E+02  0.17458606380E+03  0.17300000000E+03 0. -1.
         -6    1    1    2    0  501 -0.99179706286E+01 -0.16347495205E+02 -0.17006722809E+03  0.24334639675E+03  0.17300000000E+03 0.  1.
</event>
<event>
 4    1  0.1082663E+000  0.1000000E+03  0.7546771E-02  0.1280296E+00
         -4   -1    0    0    0  501 -0.00000000000E+00  0.00000000000E+00  0.32911576422E+02  0.32911576422E+02  0.00000000000E+00 0. -1.
          4   -1    0    0  502    0  0.00000000000E+00 -0.00000000000E+00 -0.17485976751E+04  0.17485976751E+04  0.00000000000E+00 0.  1.
          6    1    1    2  502    0 -0.44716114215E+02  0.13828053055E+03 -0.55850329119E+03  0.60247486443E+03  0.17300000000E+03 0. -1.
         -6    1    1    2    0  501  0.44716114215E+02 -0.13828053055E+03 -0.11571828075E+04  0.11790343871E+04  0.17300000000E+03 0. -1.
</event>
<event>
 4    1  0.1082663E+000  0.1000000E+03  0.7546771E-02  0.1280296E+00
         -2   -1    0    0    0  501 -0.00000000000E+00  0.00000000000E+00  0.19358061055E+02  0.19358061055E+02  0.00000000000E+00 0. -1.
          2   -1    0    0  502    0  0.00000000000E+00 -0.00000000000E+00 -0.26569054255E+04  0.26569054255E+04  0.00000000000E+00 0.  1.
          6    1    1    2  502    0 -0.13796152672E+03  0.13503592253E+02 -0.16009948897E+04  0.16162702022E+04  0.17300000000E+03 0. -1.
         -6    1    1    2    0  501  0.13796152672E+03 -0.13503592253E+02 -0.10365524748E+04  0.10599932844E+04  0.17300000000E+03 0. -1.
</event>
<event>
 4    1  0.1082663E+000  0.1000000E+03  0.7546771E-02  0.1280296E+00
          1   -1    0    0  502    0  0.00000000000E+00  0.00000000000E+00  0.46589745786E+03  0.46589745786E+03  0.00000000000E+00 0. -1.
         -1   -1    0    0    0  501 -0.00000000000E+00 -0.00000000000E+00 -0.88206171062E+02  0.88206171062E+02  0.00000000000E+00 0.  1.
          6    1    1    2  502    0  0.82779851606E+02  0.61501742384E+02  0.22034047203E+03  0.29851949981E+03  0.17300000000E+03 0. -1.
         -6    1    1    2    0  501 -0.82779851606E+02 -0.61501742384E+02  0.15735081476E+03  0.25558412911E+03  0.17300000000E+03 0.  1.
</event>
<event>
 4    1  0.1082663E+000  0.1000000E+03  0.7546771E-02  0.1280296E+00
          2   -1    0    0  502    0  0.00000000000E+00  0.00000000000E+00  0.94980558111E+03  0.94980558111E+03  0.00000000000E+00 0. -1.
         -2   -1    0    0    0  501 -0.00000000000E+00 -0.00000000000E+00 -0.11781862159E+03  0.11781862159E+03  0.00000000000E+00 0.  1.
          6    1    1    2  502    0  0.88640213964E+02 -0.65246635162E+02  0.83777084432E+03  0.86249823103E+03  0.17300000000E+03 0. -1.
         -6    1    1    2    0  501 -0.88640213964E+02  0.65246635162E+02 -0.57838848001E+01  0.20512597167E+03  0.17300000000E+03 0.  1.
</event>
<event>
 4    1  0.1082663E+000  0.1000000E+03  0.7546771E-02  0.1280296E+00
          2   -1    0    0  502    0  0.00000000000E+00  0.00000000000E+00  0.21465047013E+03  0.21465047013E+03  0.00000000000E+00 0. -1.
         -2   -1    0    0    0  501 -0.00000000000E+00 -0.00000000000E+00 -0.16860620677E+03  0.16860620677E+03  0.00000000000E+00 0.  1.
          6    1    1    2  502    0 -0.18112512133E+02 -0.17138990161E+02 -0.52629697483E+02  0.18253956595E+03  0.17300000000E+03 0. -1.
         -6    1    1    2    0  501  0.18112512133E+02  0.17138990161E+02  0.98673960838E+02  0.20071711095E+03  0.17300000000E+03 0.  1.
</event>
<event>
 4    1  0.1082663E+000  0.1000000E+03  0.7546771E-02  0.1280296E+00
          2   -1    0    0  502    0  0.00000000000E+00  0.00000000000E+00  0.69539616263E+03  0.69539616263E+03  0.00000000000E+00 0. -1.
         -2   -1    0    0    0  501 -0.00000000000E+00 -0.00000000000E+00 -0.76036661769E+02  0.76036661769E+02  0.00000000000E+00 0.  1.
          6    1    1    2  502    0  0.51317125795E+02 -0.60322852860E+02  0.93076797422E+02  0.21181261576E+03  0.17300000000E+03 0.  1.
         -6    1    1    2    0  501 -0.51317125795E+02  0.60322852860E+02  0.52628270344E+03  0.55962020864E+03  0.17300000000E+03 0. -1.
</event>
<event>
 4    1  0.1082663E+000  0.1000000E+03  0.7546771E-02  0.1280296E+00
          2   -1    0    0  502    0  0.00000000000E+00  0.00000000000E+00  0.11125140104E+04  0.11125140104E+04  0.00000000000E+00 0.  1.
         -2   -1    0    0    0  501 -0.00000000000E+00 -0.00000000000E+00 -0.34036427237E+02  0.34036427237E+02  0.00000000000E+00 0. -1.
          6    1    1    2  502    0 -0.34335293949E+02 -0.20069751467E+02  0.30438028634E+03  0.35236070446E+03  0.17300000000E+03 0. -1.
         -6    1    1    2    0  501  0.34335293949E+02  0.20069751467E+02  0.77409729682E+03  0.79418973317E+03  0.17300000000E+03 0.  1.
</event>
<event>
 4    1  0.1082663E+000  0.1000000E+03  0.7546771E-02  0.1280296E+00
          2   -1    0    0  502    0  0.00000000000E+00  0.00000000000E+00  0.80949099669E+03  0.80949099669E+03  0.00000000000E+00 0. -1.
         -2   -1    0    0    0  501 -0.00000000000E+00 -0.00000000000E+00 -0.53826853958E+02  0.53826853958E+02  0.00000000000E+00 0.  1.
          6    1    1    2  502    0  0.60910281573E+02  0.38973435921E+02  0.18814146471E+03  0.26562229171E+03  0.17300000000E+03 0. -1.
         -6    1    1    2    0  501 -0.60910281573E+02 -0.38973435921E+02  0.56752267802E+03  0.59769555894E+03  0.17300000000E+03 0.  1.
</event>
<event>
 4    1  0.1082663E+000  0.1000000E+03  0.7546771E-02  0.1280296E+00
          3   -1    0    0  502    0  0.00000000000E+00  0.00000000000E+00  0.22847865254E+03  0.22847865254E+03  0.00000000000E+00 0. -1.
         -3   -1    0    0    0  501 -0.00000000000E+00 -0.00000000000E+00 -0.14929872589E+03  0.14929872589E+03  0.00000000000E+00 0.  1.
          6    1    1    2  502    0  0.49376909542E+02  0.40566088232E+02  0.49759948360E+02  0.19102025854E+03  0.17300000000E+03 0. -1.
         -6    1    1    2    0  501 -0.49376909542E+02 -0.40566088232E+02  0.29419978291E+02  0.18675711990E+03  0.17300000000E+03 0.  1.
</event>
<event>
 4    1  0.1082663E+000  0.1000000E+03  0.7546771E-02  0.1280296E+00
         -1   -1    0    0    0  501 -0.00000000000E+00  0.00000000000E+00  0.74364691967E+03  0.74364691967E+03  0.00000000000E+00 0. -1.
          1   -1    0    0  502    0  0.00000000000E+00 -0.00000000000E+00 -0.28208987355E+03  0.28208987355E+03  0.00000000000E+00 0.  1.
          6    1    1    2  502    0  0.16494264445E+03  0.28111708216E+03  0.53459209125E+03  0.64957724242E+03  0.17300000000E+03 0.  1.
         -6    1    1    2    0  501 -0.16494264445E+03 -0.28111708216E+03 -0.73035045137E+02  0.37615955080E+03  0.17300000000E+03 0. -1.
</event>
<event>
 4    1  0.1082663E+000  0.1000000E+03  0.7546771E-02  0.1280296E+00
          1   -1    0    0  502    0  0.00000000000E+00  0.00000000000E+00  0.37958189960E+03  0.37958189960E+03  0.00000000000E+00 0. -1.
         -1   -1    0    0    0  501 -0.00000000000E+00 -0.00000000000E+00 -0.13436321586E+03  0.13436321586E+03  0.00000000000E+00 0.  1.
          6    1    1    2  502    0  0.13508396684E+03 -0.44639108400E+02  0.15544080672E+03  0.27263743780E+03  0.17300000000E+03 0. -1.
         -6    1    1    2    0  501 -0.13508396684E+03  0.44639108400E+02  0.89777877006E+02  0.24130767766E+03  0.17300000000E+03 0.  1.
</event>
<event>
 4    1  0.1082663E+000  0.1000000E+03  0.7546771E-02  0.1280296E+00
         -1   -1    0    0    0  501 -0.00000000000E+00  0.00000000000E+00  0.46191345524E+03  0.46191345524E+03  0.00000000000E+00 0. -1.
          1   -1    0    0  502    0  0.00000000000E+00 -0.00000000000E+00 -0.58439057645E+03  0.58439057645E+03  0.00000000000E+00 0.  1.
          6    1    1    2  502    0 -0.44767002790E+03 -0.17705435505E+03  0.30231744221E+02  0.51244478422E+03  0.17300000000E+03 0.  1.
         -6    1    1    2    0  501  0.44767002790E+03  0.17705435505E+03 -0.15270886544E+03  0.53385924746E+03  0.17300000000E+03 0. -1.
</event>
<event>
 4    1  0.1082663E+000  0.1000000E+03  0.7546771E-02  0.1280296E+00
         -2   -1    0    0    0  501 -0.00000000000E+00  0.00000000000E+00  0.40878895636E+03  0.40878895636E+03  0.00000000000E+00 0. -1.
          2   -1    0    0  502    0  0.00000000000E+00 -0.00000000000E+00 -0.53817591013E+03  0.53817591013E+03  0.00000000000E+00 0.  1.
          6    1    1    2  502    0  0.33354084844E+03  0.51932548706E+02 -0.34321289629E+03  0.51153746625E+03  0.17300000000E+03 0.  1.
         -6    1    1    2    0  501 -0.33354084844E+03 -0.51932548706E+02  0.21382594252E+03  0.43542740025E+03  0.17300000000E+03 0. -1.
</event>
<event>
 4    1  0.1082663E+000  0.1000000E+03  0.7546771E-02  0.1280296E+00
          2   -1    0    0  502    0  0.00000000000E+00  0.00000000000E+00  0.16334499052E+04  0.16334499052E+04  0.00000000000E+00 0.  1.
         -2   -1    0    0    0  501 -0.00000000000E+00 -0.00000000000E+00 -0.34171747476E+02  0.34171747476E+02  0.00000000000E+00 0. -1.
          6    1    1    2  502    0 -0.10869275724E+03  0.11863649398E+03  0.80077992668E+03  0.83490491923E+03  0.17300000000E+03 0.  1.
         -6    1    1    2    0  501  0.10869275724E+03 -0.11863649398E+03  0.79849823109E+03  0.83271673349E+03  0.17300000000E+03 0. -1.
</event>
<event>
 4    1  0.1082663E+000  0.1000000E+03  0.7546771E-02  0.1280296E+00
          1   -1    0    0  502    0  0.00000000000E+00  0.00000000000E+00  0.13772716003E+04  0.13772716003E+04  0.00000000000E+00 0.  1.
         -1   -1    0    0    0  501 -0.00000000000E+00 -0.00000000000E+00 -0.18348690125E+03  0.18348690125E+03  0.00000000000E+00 0. -1.
          6    1    1    2  502    0 -0.14978092131E+03  0.41089407500E+03  0.32131382154E+03  0.56959620537E+03  0.17300000000E+03 0.  1.
         -6    1    1    2    0  501  0.14978092131E+03 -0.41089407500E+03  0.87247087750E+03  0.99116229617E+03  0.17300000000E+03 0. -1.
</event>
<event>
 4    1  0.1082663E+000  0.1000000E+03  0.7546771E-02  0.1280296E+00
          2   -1    0    0  502    0  0.00000000000E+00  0.00000000000E+00  0.35197698013E+03  0.35197698013E+03  0.00000000000E+00 0.  1.
         -2   -1    0    0    0  501 -0.00000000000E+00 -0.00000000000E+00 -0.95439550900E+02  0.95439550900E+02  0.00000000000E+00 0. -1.
          6    1    1    2  502    0 -0.19687095338E+02 -0.55796626317E+02  0.14383651879E+03  0.23263445439E+03  0.17300000000E+03 0.  1.
         -6    1    1    2    0  501  0.19687095338E+02  0.55796626317E+02  0.11270091044E+03  0.21478207664E+03  0.17300000000E+03 0. -1.
</event>
<event>
 4    1  0.1082663E+000  0.1000000E+03  0.7546771E-02  0.1280296E+00
          1   -1    0    0  502    0  0.00000000000E+00  0.00000000000E+00  0.13913729220E+04  0.13913729220E+04  0.00000000000E+00 0. -1.
         -1   -1    0    0    0  501 -0.00000000000E+00 -0.00000000000E+00 -0.31328662338E+02  0.31328662338E+02  0.00000000000E+00 0.  1.
          6    1    1    2  502    0  0.62711539384E+02 -0.82788266807E+02  0.86268529765E+03  0.88596927547E+03  0.17300000000E+03 0. -1.
         -6    1    1    2    0  501 -0.62711539384E+02  0.82788266807E+02  0.49735896203E+03  0.53673230889E+03  0.17300000000E+03 0.  1.
</event>
<event>
 4    1  0.1082663E+000  0.1000000E+03  0.7546771E-02  0.1280296E+00
          1   -1    0    0  502    0  0.00000000000E+00  0.00000000000E+00  0.68560645393E+02  0.68560645393E+02  0.00000000000E+00 0. -1.
         -1   -1    0    0    0  501 -0.00000000000E+00 -0.00000000000E+00 -0.82443779553E+03  0.82443779553E+03  0.00000000000E+00 0.  1.
          6    1    1    2  502    0  0.89504950541E+02  0.89172022369E+02 -0.57158786604E+03  0.61041336351E+03  0.17300000000E+03 0. -1.
         -6    1    1    2    0  501 -0.89504950541E+02 -0.89172022369E+02 -0.18428928410E+03  0.28258507741E+03  0.17300000000E+03 0.  1.
</event>
<event>
 4    1  0.1082663E+000  0.1000000E+03  0.7546771E-02  0.1280296E+00
          1   -1    0    0  502    0  0.00000000000E+00  0.00000000000E+00  0.44114994522E+03  0.44114994522E+03  0.00000000000E+00 0. -1.
         -1   -1    0    0    0  501 -0.00000000000E+00 -0.00000000000E+00 -0.67389436247E+03  0.67389436247E+03  0.00000000000E+00 0.  1.
          6    1    1    2  502    0  0.39270955560E+03  0.51331727335E+02  0.22353592088E+03  0.48657275840E+03  0.17300000000E+03 0. -1.
         -6    1    1    2    0  501 -0.39270955560E+03 -0.51331727335E+02 -0.45628033814E+03  0.62847154929E+03  0.17300000000E+03 0.  1.
</event>
<event>
 4    1  0.1082663E+000  0.1000000E+03  0.7546771E-02  0.1280296E+00
          2   -1    0    0  502    0  0.00000000000E+00  0.00000000000E+00  0.13461589804E+04  0.13461589804E+04  0.00000000000E+00 0. -1.
         -2   -1    0    0    0  501 -0.00000000000E+00 -0.00000000000E+00 -0.40709043191E+02  0.40709043191E+02  0.00000000000E+00 0.  1.
          6    1    1    2  502    0 -0.20785620005E+02 -0.14294938387E+03  0.46525671887E+03  0.51697135588E+03  0.17300000000E+03 0. -1.
         -6    1    1    2    0  501  0.20785620005E+02  0.14294938387E+03  0.84019321836E+03  0.86989666773E+03  0.17300000000E+03 0.  1.
</event>
<event>
 4    1  0.1082663E+000  0.1000000E+03  0.7546771E-02  0.1280296E+00
         -1   -1    0    0    0  501 -0.00000000000E+00  0.00000000000E+00  0.43452257487E+02  0.43452257487E+02  0.00000000000E+00 0. -1.
          1   -1    0    0  502    0  0.00000000000E+00 -0.00000000000E+00 -0.10306550862E+04  0.10306550862E+04  0.00000000000E+00 0.  1.
          6    1    1    2  502    0  0.84123807177E+02 -0.36034160175E+02 -0.69788940330E+03  0.72481300683E+03  0.17300000000E+03 0.  1.
         -6    1    1    2    0  501 -0.84123807177E+02  0.36034160175E+02 -0.28931342540E+03  0.34929433684E+03  0.17300000000E+03 0.  1.
</event>
<event>
 4    1  0.1082663E+000  0.1000000E+03  0.7546771E-02  0.1280296E+00
         -2   -1    0    0    0  501 -0.00000000000E+00  0.00000000000E+00  0.37499847849E+02  0.37499847849E+02  0.00000000000E+00 0. -1.
          2   -1    0    0  502    0  0.00000000000E+00 -0.00000000000E+00 -0.14887297538E+04  0.14887297538E+04  0.00000000000E+00 0.  1.
          6    1    1    2  502    0  0.55615327705E+02  0.78848222787E+02 -0.30964244687E+03  0.36758339437E+03  0.17300000000E+03 0. -1.
         -6    1    1    2    0  501 -0.55615327705E+02 -0.78848222787E+02 -0.11415874591E+04  0.11586462073E+04  0.17300000000E+03 0.  1.
</event>
<event>
 4    1  0.1082663E+000  0.1000000E+03  0.7546771E-02  0.1280296E+00
         -2   -1    0    0    0  501 -0.00000000000E+00  0.00000000000E+00  0.35208596933E+03  0.35208596933E+03  0.00000000000E+00 0. -1.
          2   -1    0    0  502    0  0.00000000000E+00 -0.00000000000E+00 -0.11701169530E+03  0.11701169530E+03  0.00000000000E+00 0.  1.
          6    1    1    2  502    0 -0.64602472816E+02  0.60535461579E+02  0.49848710158E+02  0.20062880029E+03  0.17300000000E+03 0. -1.
         -6    1    1    2    0  501  0.64602472816E+02 -0.60535461579E+02  0.18522556388E+03  0.26846886433E+03  0.17300000000E+03 0.  1.
</event>
<event>
 4    1  0.1082663E+000  0.1000000E+03  0.7546771E-02  0.1280296E+00
          2   -1    0    0  502    0  0.00000000000E+00  0.00000000000E+00  0.22288048196E+03  0.22288048196E+03  0.00000000000E+00 0.  1.
         -2   -1    0    0    0  501 -0.00000000000E+00 -0.00000000000E+00 -0.22770179074E+03  0.22770179074E+03  0.00000000000E+00 0. -1.
          6    1    1    2  502    0  0.74104111059E+02  0.85100106588E+02 -0.92348208054E+02  0.22625348384E+03  0.17300000000E+03 0.  1.
         -6    1    1    2    0  501 -0.74104111059E+02 -0.85100106588E+02  0.87526899280E+02  0.22432878887E+03  0.17300000000E+03 0. -1.
</event>
<event>
 4    1  0.1082663E+000  0.1000000E+03  0.7546771E-02  0.1280296E+00
          1   -1    0    0  502    0  0.00000000000E+00  0.00000000000E+00  0.15421779466E+03  0.15421779466E+03  0.00000000000E+00 0.  1.
         -1   -1    0    0    0  501 -0.00000000000E+00 -0.00000000000E+00 -0.43441467727E+03  0.43441467727E+03  0.00000000000E+00 0. -1.
          6    1    1    2  502    0 -0.15752552837E+03 -0.37867182997E+02 -0.25836264792E+03  0.35061157066E+03  0.17300000000E+03 0.  1.
         -6    1    1    2    0  501  0.15752552837E+03  0.37867182997E+02 -0.21834234685E+02  0.23802090127E+03  0.17300000000E+03 0. -1.
</event>
<event>
 4    1  0.1082663E+000  0.1000000E+03  0.7546771E-02  0.1280296E+00
          1   -1    0    0  502    0  0.00000000000E+00  0.00000000000E+00  0.24555488254E+04  0.24555488254E+04  0.00000000000E+00 0.  1.
         -1   -1    0    0    0  501 -0.00000000000E+00 -0.00000000000E+00 -0.26647644754E+02  0.26647644754E+02  0.00000000000E+00 0. -1.
          6    1    1    2  502    0 -0.13568922178E+03  0.12907661485E+03  0.11134615067E+04  0.11422774901E+04  0.17300000000E+03 0.  1.
         -6    1    1    2    0  501  0.13568922178E+03 -0.12907661485E+03  0.13154396739E+04  0.13399189801E+04  0.17300000000E+03 0. -1.
</event>
<event>
 4    1  0.1082663E+000  0.1000000E+03  0.7546771E-02  0.1280296E+00
          2   -1    0    0  502    0  0.00000000000E+00  0.00000000000E+00  0.12689978836E+04  0.12689978836E+04  0.00000000000E+00 0.  1.
         -2   -1    0    0    0  501 -0.00000000000E+00 -0.00000000000E+00 -0.66822456215E+02  0.66822456215E+02  0.00000000000E+00 0. -1.
          6    1    1    2  502    0 -0.84224431759E+02 -0.19075372866E+02  0.11005073689E+04  0.11173643514E+04  0.17300000000E+03 0.  1.
         -6    1    1    2    0  501  0.84224431759E+02  0.19075372866E+02  0.10166805845E+03  0.21845598839E+03  0.17300000000E+03 0. -1.
</event>
<event>
 4    1  0.1082663E+000  0.1000000E+03  0.7546771E-02  0.1280296E+00
          2   -1    0    0  502    0  0.00000000000E+00  0.00000000000E+00  0.21099547210E+04  0.21099547210E+04  0.00000000000E+00 0.  1.
         -2   -1    0    0    0  501 -0.00000000000E+00 -0.00000000000E+00 -0.28354577012E+02  0.28354577012E+02  0.00000000000E+00 0. -1.
          6    1    1    2  502    0  0.75815284390E+01 -0.17777551702E+02  0.17918737931E+04  0.18003094766E+04  0.17300000000E+03 0.  1.
         -6    1    1    2    0  501 -0.75815284390E+01  0.17777551702E+02  0.28972635089E+03  0.33799982148E+03  0.17300000000E+03 0. -1.
</event>
<event>
 4    1  0.1082663E+000  0.1000000E+03  0.7546771E-02  0.1280296E+00
          2   -1    0    0  502    0  0.00000000000E+00  0.00000000000E+00  0.40187169899E+04  0.40187169899E+04  0.00000000000E+00 0.  1.
         -2   -1    0    0    0  501 -0.00000000000E+00 -0.00000000000E+00 -0.17605582035E+02  0.17605582035E+02  0.00000000000E+00 0. -1.
          6    1    1    2  502    0 -0.18615886975E+03  0.73209429330E+02  0.17848700723E+04  0.18043572042E+04  0.17300000000E+03 0.  1.
         -6    1    1    2    0  501  0.18615886975E+03 -0.73209429330E+02  0.22162413355E+04  0.22319653677E+04  0.17300000000E+03 0. -1.
</event>
<event>
 4    1  0.1082663E+000  0.1000000E+03  0.7546771E-02  0.1280296E+00
         -1   -1    0    0    0  501 -0.00000000000E+00  0.00000000000E+00  0.82014082345E+02  0.82014082345E+02  0.00000000000E+00 0.  1.
          1   -1    0    0  502    0  0.00000000000E+00 -0.00000000000E+00 -0.45224887222E+03  0.45224887222E+03  0.00000000000E+00 0. -1.
          6    1    1    2  502    0 -0.36229914105E+02 -0.78346188908E+01 -0.79594080422E+02  0.19400568437E+03  0.17300000000E+03 0. -1.
         -6    1    1    2    0  501  0.36229914105E+02  0.78346188908E+01 -0.29064070945E+03  0.34025727019E+03  0.17300000000E+03 0.  1.
</event>
<event>
 4    1  0.1082663E+000  0.1000000E+03  0.7546771E-02  0.1280296E+00
          2   -1    0    0  502    0  0.00000000000E+00  0.00000000000E+00  0.75958537037E+03  0.75958537037E+03  0.00000000000E+00 0.  1.
         -2   -1    0    0    0  501 -0.00000000000E+00 -0.00000000000E+00 -0.11043219212E+03  0.11043219212E+03  0.00000000000E+00 0. -1.
          6    1    1    2  502    0 -0.13980750480E+03 -0.14973149464E+03  0.16012594200E+03  0.31230590162E+03  0.17300000000E+03 0. -1.
         -6    1    1    2    0  501  0.13980750480E+03  0.14973149464E+03  0.48902723625E+03  0.55771166088E+03  0.17300000000E+03 0.  1.
</event>
<event>
 4    1  0.1082663E+000  0.1000000E+03  0.7546771E-02  0.1280296E+00
          2   -1    0    0  502    0  0.00000000000E+00  0.00000000000E+00  0.62009901996E+03  0.62009901996E+03  0.00000000000E+00 0.  1.
         -2   -1    0    0    0  501 -0.00000000000E+00 -0.00000000000E+00 -0.86530629803E+02  0.86530629803E+02  0.00000000000E+00 0. -1.
          6    1    1    2  502    0 -0.11376063517E+03  0.20953454744E+02  0.11162581675E+03  0.23615641500E+03  0.17300000000E+03 0. -1.
         -6    1    1    2    0  501  0.11376063517E+03 -0.20953454744E+02  0.42194257340E+03  0.47047323476E+03  0.17300000000E+03 0.  1.
</event>
<event>
 4    1  0.1082663E+000  0.1000000E+03  0.7546771E-02  0.1280296E+00
         -1   -1    0    0    0  501 -0.00000000000E+00  0.00000000000E+00  0.97420701631E+02  0.97420701631E+02  0.00000000000E+00 0.  1.
          1   -1    0    0  502    0  0.00000000000E+00 -0.00000000000E+00 -0.36979682938E+03  0.36979682938E+03  0.00000000000E+00 0. -1.
          6    1    1    2  502    0 -0.28634313688E+02  0.15899765867E+02 -0.48948640346E+02  0.18275036489E+03  0.17300000000E+03 0. -1.
         -6    1    1    2    0  501  0.28634313688E+02 -0.15899765867E+02 -0.22342748740E+03  0.28446716612E+03  0.17300000000E+03 0.  1.
</event>
<event>
 4    1  0.1082663E+000  0.1000000E+03  0.7546771E-02  0.1280296E+00
         -2   -1    0    0    0  501 -0.00000000000E+00  0.00000000000E+00  0.64874869296E+02  0.64874869296E+02  0.00000000000E+00 0. -1.
          2   -1    0    0  502    0  0.00000000000E+00 -0.00000000000E+00 -0.75443620720E+03  0.75443620720E+03  0.00000000000E+00 0.  1.
          6    1    1    2  502    0 -0.42532035092E+02  0.39208891966E+02 -0.11299586484E+03  0.21457720450E+03  0.17300000000E+03 0.  1.
         -6    1    1    2    0  501  0.42532035092E+02 -0.39208891966E+02 -0.57656547306E+03  0.60473387200E+03  0.17300000000E+03 0. -1.
</event>
<event>
 4    1  0.1082663E+000  0.1000000E+03  0.7546771E-02  0.1280296E+00
         -2   -1    0    0    0  501 -0.00000000000E+00  0.00000000000E+00  0.23803851302E+03  0.23803851302E+03  0.00000000000E+00 0. -1.
          2   -1    0    0  502    0  0.00000000000E+00 -0.00000000000E+00 -0.54785527930E+03  0.54785527930E+03  0.00000000000E+00 0.  1.
          6    1    1    2  502    0 -0.19906138503E+03  0.23989216868E+03 -0.21749161704E+03  0.41761859524E+03  0.17300000000E+03 0.  1.
         -6    1    1    2    0  501  0.19906138503E+03 -0.23989216868E+03 -0.92325149238E+02  0.36827519708E+03  0.17300000000E+03 0. -1.
</event>
<event>
 4    1  0.1082663E+000  0.1000000E+03  0.7546771E-02  0.1280296E+00
         -2   -1    0    0    0  501 -0.00000000000E+00  0.00000000000E+00  0.67063575838E+02  0.67063575838E+02  0.00000000000E+00 0. -1.
          2   -1    0    0  502    0  0.00000000000E+00 -0.00000000000E+00 -0.12462210755E+04  0.12462210755E+04  0.00000000000E+00 0.  1.
          6    1    1    2  502    0  0.92555280637E+02  0.11922890953E+03 -0.19053426116E+03  0.29835267305E+03  0.17300000000E+03 0.  1.
         -6    1    1    2    0  501 -0.92555280637E+02 -0.11922890953E+03 -0.98862323851E+03  0.10149319783E+04  0.17300000000E+03 0. -1.
</event>
<event>
 4    1  0.1082663E+000  0.1000000E+03  0.7546771E-02  0.1280296E+00
          4   -1    0    0  502    0  0.00000000000E+00  0.00000000000E+00  0.51890660602E+03  0.51890660602E+03  0.00000000000E+00 0.  1.
         -4   -1    0    0    0  501 -0.00000000000E+00 -0.00000000000E+00 -0.90964612855E+02  0.90964612855E+02  0.00000000000E+00 0. -1.
          6    1    1    2  502    0  0.86634723417E+02  0.53907472492E+02  0.97708847478E+02  0.22335534417E+03  0.17300000000E+03 0.  1.
         -6    1    1    2    0  501 -0.86634723417E+02 -0.53907472492E+02  0.33023314568E+03  0.38651587471E+03  0.17300000000E+03 0. -1.
</event>
<event>
 4    1  0.1082663E+000  0.1000000E+03  0.7546771E-02  0.1280296E+00
          2   -1    0    0  502    0  0.00000000000E+00  0.00000000000E+00  0.28578396831E+04  0.28578396831E+04  0.00000000000E+00 0. -1.
         -2   -1    0    0    0  501 -0.00000000000E+00 -0.00000000000E+00 -0.19482980985E+02  0.19482980985E+02  0.00000000000E+00 0.  1.
          6    1    1    2  502    0 -0.12458610401E+03 -0.88404495880E+02  0.11196712283E+04  0.11432102657E+04  0.17300000000E+03 0. -1.
         -6    1    1    2    0  501  0.12458610401E+03  0.88404495880E+02  0.17186854738E+04  0.17341123984E+04  0.17300000000E+03 0.  1.
</event>
<event>
 4    1  0.1082663E+000  0.1000000E+03  0.7546771E-02  0.1280296E+00
         -2   -1    0    0    0  501 -0.00000000000E+00  0.00000000000E+00  0.65518937309E+02  0.65518937309E+02  0.00000000000E+00 0.  1.
          2   -1    0    0  502    0  0.00000000000E+00 -0.00000000000E+00 -0.71966186243E+03  0.71966186243E+03  0.00000000000E+00 0. -1.
          6    1    1    2  502    0  0.24323051965E+02 -0.73136102235E+02 -0.51910835712E+03  0.55257848921E+03  0.17300000000E+03 0.  1.
         -6    1    1    2    0  501 -0.24323051965E+02  0.73136102235E+02 -0.13503456800E+03  0.23260231052E+03  0.17300000000E+03 0. -1.
</event>
<event>
 4    1  0.1082663E+000  0.1000000E+03  0.7546771E-02  0.1280296E+00
          1   -1    0    0  502    0  0.00000000000E+00  0.00000000000E+00  0.27211676125E+03  0.27211676125E+03  0.00000000000E+00 0.  1.
         -1   -1    0    0    0  501 -0.00000000000E+00 -0.00000000000E+00 -0.16598581484E+04  0.16598581484E+04  0.00000000000E+00 0. -1.
          6    1    1    2  502    0 -0.79585276509E+02 -0.52803175102E+03 -0.12250920889E+04  0.13475648306E+04  0.17300000000E+03 0. -1.
         -6    1    1    2    0  501  0.79585276509E+02  0.52803175102E+03 -0.16264929827E+03  0.58441007910E+03  0.17300000000E+03 0.  1.
</event>
<event>
 4    1  0.1082663E+000  0.1000000E+03  0.7546771E-02  0.1280296E+00
          1   -1    0    0  502    0  0.00000000000E+00  0.00000000000E+00  0.35062421704E+03  0.35062421704E+03  0.00000000000E+00 0.  1.
         -1   -1    0    0    0  501 -0.00000000000E+00 -0.00000000000E+00 -0.91302407346E+02  0.91302407346E+02  0.00000000000E+00 0. -1.
          6    1    1    2  502    0  0.94620171804E+01 -0.20000716464E+02  0.80350343474E+02  0.19202795662E+03  0.17300000000E+03 0. -1.
         -6    1    1    2    0  501 -0.94620171804E+01  0.20000716464E+02  0.17897146622E+03  0.24989866776E+03  0.17300000000E+03 0.  1.
</event>
<event>
 4    1  0.1082663E+000  0.1000000E+03  0.7546771E-02  0.1280296E+00
          1   -1    0    0  502    0  0.00000000000E+00  0.00000000000E+00  0.87045876375E+03  0.87045876375E+03  0.00000000000E+00 0.  1.
         -1   -1    0    0    0  501 -0.00000000000E+00 -0.00000000000E+00 -0.10157371262E+03  0.10157371262E+03  0.00000000000E+00 0. -1.
          6    1    1    2  502    0 -0.11813772453E+03  0.19571088985E+03  0.25545691081E+03  0.38398763996E+03  0.17300000000E+03 0. -1.
         -6    1    1    2    0  501  0.11813772453E+03 -0.19571088985E+03  0.51342814032E+03  0.58804483641E+03  0.17300000000E+03 0. -1.
</event>
<event>
 4    1  0.1082663E+000  0.1000000E+03  0.7546771E-02  0.1280296E+00
          2   -1    0    0  502    0  0.00000000000E+00  0.00000000000E+00  0.20669909243E+04  0.20669909243E+04  0.00000000000E+00 0. -1.
         -2   -1    0    0    0  501 -0.00000000000E+00 -0.00000000000E+00 -0.20454746918E+02  0.20454746918E+02  0.00000000000E+00 0.  1.
          6    1    1    2  502    0  0.10091172164E+03 -0.15474526612E+02  0.80037936691E+03  0.82520225855E+03  0.17300000000E+03 0. -1.
         -6    1    1    2    0  501 -0.10091172164E+03  0.15474526612E+02  0.12461568104E+04  0.12622434126E+04  0.17300000000E+03 0.  1.
</event>
<event>
 4    1  0.1082663E+000  0.1000000E+03  0.7546771E-02  0.1280296E+00
          1   -1    0    0  502    0  0.00000000000E+00  0.00000000000E+00  0.22738307371E+04  0.22738307371E+04  0.00000000000E+00 0. -1.
         -1   -1    0    0    0  501 -0.00000000000E+00 -0.00000000000E+00 -0.30523597215E+02  0.30523597215E+02  0.00000000000E+00 0.  1.
          6    1    1    2  502    0  0.47223965630E+02  0.14385743843E+03  0.16843058408E+04  0.16999235956E+04  0.17300000000E+03 0. -1.
         -6    1    1    2    0  501 -0.47223965630E+02 -0.14385743843E+03  0.55900129906E+03  0.60443073869E+03  0.17300000000E+03 0.  1.
</event>
<event>
 4    1  0.1082663E+000  0.1000000E+03  0.7546771E-02  0.1280296E+00
         -2   -1    0    0    0  501 -0.00000000000E+00  0.00000000000E+00  0.89231042018E+02  0.89231042018E+02  0.00000000000E+00 0. -1.
          2   -1    0    0  502    0  0.00000000000E+00 -0.00000000000E+00 -0.14213016409E+04  0.14213016409E+04  0.00000000000E+00 0.  1.
          6    1    1    2  502    0 -0.25423779782E+03  0.70393606849E+02 -0.10164683578E+04  0.10642974397E+04  0.17300000000E+03 0.  1.
         -6    1    1    2    0  501  0.25423779782E+03 -0.70393606849E+02 -0.31560224108E+03  0.44623524323E+03  0.17300000000E+03 0.  1.
</event>
<event>
 4    1  0.1082663E+000  0.1000000E+03  0.7546771E-02  0.1280296E+00
         -1   -1    0    0    0  501 -0.00000000000E+00  0.00000000000E+00  0.21159612522E+02  0.21159612522E+02  0.00000000000E+00 0. -1.
          1   -1    0    0  502    0  0.00000000000E+00 -0.00000000000E+00 -0.20090314789E+04  0.20090314789E+04  0.00000000000E+00 0.  1.
          6    1    1    2  502    0  0.30960145790E+02  0.88115923087E+00 -0.15246987812E+04  0.15347946705E+04  0.17300000000E+03 0.  1.
         -6    1    1    2    0  501 -0.30960145790E+02 -0.88115923087E+00 -0.46317308513E+03  0.49539642092E+03  0.17300000000E+03 0.  1.
</event>
<event>
 4    1  0.1082663E+000  0.1000000E+03  0.7546771E-02  0.1280296E+00
          2   -1    0    0  502    0  0.00000000000E+00  0.00000000000E+00  0.11571011668E+04  0.11571011668E+04  0.00000000000E+00 0.  1.
         -2   -1    0    0    0  501 -0.00000000000E+00 -0.00000000000E+00 -0.66729307070E+02  0.66729307070E+02  0.00000000000E+00 0. -1.
          6    1    1    2  502    0 -0.13317282511E+02  0.21647100670E+03  0.51061057823E+03  0.58111032460E+03  0.17300000000E+03 0.  1.
         -6    1    1    2    0  501  0.13317282511E+02 -0.21647100670E+03  0.57976128149E+03  0.64272014926E+03  0.17300000000E+03 0. -1.
</event>
<event>
 4    1  0.1082663E+000  0.1000000E+03  0.7546771E-02  0.1280296E+00
          1   -1    0    0  502    0  0.00000000000E+00  0.00000000000E+00  0.23931701379E+04  0.23931701379E+04  0.00000000000E+00 0.  1.
         -1   -1    0    0    0  501 -0.00000000000E+00 -0.00000000000E+00 -0.45084594366E+02  0.45084594366E+02  0.00000000000E+00 0. -1.
          6    1    1    2  502    0 -0.11955300207E+03 -0.16083159151E+03  0.18956996887E+04  0.19140966618E+04  0.17300000000E+03 0.  1.
         -6    1    1    2    0  501  0.11955300207E+03  0.16083159151E+03  0.45238585478E+03  0.52415807038E+03  0.17300000000E+03 0. -1.
</event>
<event>
 4    1  0.1082663E+000  0.1000000E+03  0.7546771E-02  0.1280296E+00
          1   -1    0    0  502    0  0.00000000000E+00  0.00000000000E+00  0.17999923978E+03  0.17999923978E+03  0.00000000000E+00 0. -1.
         -1   -1    0    0    0  501 -0.00000000000E+00 -0.00000000000E+00 -0.31641298108E+03  0.31641298108E+03  0.00000000000E+00 0.  1.
          6    1    1    2  502    0  0.65958667185E+02  0.13837674728E+03 -0.12996830594E+03  0.26517811092E+03  0.17300000000E+03 0. -1.
         -6    1    1    2    0  501 -0.65958667185E+02 -0.13837674728E+03 -0.64454353651E+01  0.23123410994E+03  0.17300000000E+03 0.  1.
</event>
<event>
 4    1  0.1082663E+000  0.1000000E+03  0.7546771E-02  0.1280296E+00
          2   -1    0    0  502    0  0.00000000000E+00  0.00000000000E+00  0.15865813725E+04  0.15865813725E+04  0.00000000000E+00 0. -1.
         -2   -1    0    0    0  501 -0.00000000000E+00 -0.00000000000E+00 -0.29220100966E+02  0.29220100966E+02  0.00000000000E+00 0.  1.
          6    1    1    2  502    0  0.93271241299E+02 -0.27843064447E+02  0.10916309190E+04  0.11095322546E+04  0.17300000000E+03 0. -1.
         -6    1    1    2    0  501 -0.93271241299E+02  0.27843064447E+02  0.46573035250E+03  0.50626921882E+03  0.17300000000E+03 0.  1.
</event>
<event>
 4    1  0.1082663E+000  0.1000000E+03  0.7546771E-02  0.1280296E+00
         -3   -1    0    0    0  501 -0.00000000000E+00  0.00000000000E+00  0.29413349800E+02  0.29413349800E+02  0.00000000000E+00 0.  1.
          3   -1    0    0  502    0  0.00000000000E+00 -0.00000000000E+00 -0.15268247723E+04  0.15268247723E+04  0.00000000000E+00 0. -1.
          6    1    1    2  502    0  0.10118111002E+03  0.52754938819E+02 -0.58617588821E+03  0.62173295917E+03  0.17300000000E+03 0.  1.
         -6    1    1    2    0  501 -0.10118111002E+03 -0.52754938819E+02 -0.91123553424E+03  0.93450516288E+03  0.17300000000E+03 0.  1.
</event>
<event>
 4    1  0.1082663E+000  0.1000000E+03  0.7546771E-02  0.1280296E+00
         -2   -1    0    0    0  501 -0.00000000000E+00  0.00000000000E+00  0.42655465815E+02  0.42655465815E+02  0.00000000000E+00 0.  1.
          2   -1    0    0  502    0  0.00000000000E+00 -0.00000000000E+00 -0.73498206635E+03  0.73498206635E+03  0.00000000000E+00 0. -1.
          6    1    1    2  502    0 -0.54636908193E+00 -0.37184168556E+02 -0.35988426738E+03  0.40103447086E+03  0.17300000000E+03 0.  1.
         -6    1    1    2    0  501  0.54636908193E+00  0.37184168556E+02 -0.33244233315E+03  0.37660306130E+03  0.17300000000E+03 0.  1.
</event>
<event>
 4    1  0.1082663E+000  0.1000000E+03  0.7546771E-02  0.1280296E+00
         -2   -1    0    0    0  501 -0.00000000000E+00  0.00000000000E+00  0.55966523162E+02  0.55966523162E+02  0.00000000000E+00 0.  1.
          2   -1    0    0  502    0  0.00000000000E+00 -0.00000000000E+00 -0.55006557227E+03  0.55006557227E+03  0.00000000000E+00 0. -1.
          6    1    1    2  502    0  0.21121104221E+02 -0.17525242613E+02 -0.26457864418E+03  0.31730757023E+03  0.17300000000E+03 0.  1.
         -6    1    1    2    0  501 -0.21121104221E+02  0.17525242613E+02 -0.22952040493E+03  0.28872452520E+03  0.17300000000E+03 0.  1.
</event>
<event>
 4    1  0.1082663E+000  0.1000000E+03  0.7546771E-02  0.1280296E+00
         -4   -1    0    0    0  501 -0.00000000000E+00  0.00000000000E+00  0.28709839656E+03  0.28709839656E+03  0.00000000000E+00 0.  1.
          4   -1    0    0  502    0  0.00000000000E+00 -0.00000000000E+00 -0.19706137892E+03  0.19706137892E+03  0.00000000000E+00 0. -1.
          6    1    1    2  502    0 -0.14257490242E+03  0.23179678508E+01  0.12589008216E+03  0.25711921080E+03  0.17300000000E+03 0. -1.
         -6    1    1    2    0  501  0.14257490242E+03 -0.23179678508E+01 -0.35853064522E+02  0.22704056468E+03  0.17300000000E+03 0.  1.
</event>
<event>
 4    1  0.1082663E+000  0.1000000E+03  0.7546771E-02  0.1280296E+00
         -1   -1    0    0    0  501 -0.00000000000E+00  0.00000000000E+00  0.26891346768E+02  0.26891346768E+02  0.00000000000E+00 0.  1.
          1   -1    0    0  502    0  0.00000000000E+00 -0.00000000000E+00 -0.17195879456E+04  0.17195879456E+04  0.00000000000E+00 0. -1.
          6    1    1    2  502    0 -0.65840164960E+02 -0.80693713504E+01 -0.40312209592E+03  0.44366255904E+03  0.17300000000E+03 0. -1.
         -6    1    1    2    0  501  0.65840164960E+02  0.80693713504E+01 -0.12895745029E+04  0.13028167333E+04  0.17300000000E+03 0.  1.
</event>
<event>
 4    1  0.1082663E+000  0.1000000E+03  0.7546771E-02  0.1280296E+00
         -2   -1    0    0    0  501 -0.00000000000E+00  0.00000000000E+00  0.98318886554E+02  0.98318886554E+02  0.00000000000E+00 0.  1.
          2   -1    0    0  502    0  0.00000000000E+00 -0.00000000000E+00 -0.10407902035E+04  0.10407902035E+04  0.00000000000E+00 0. -1.
          6    1    1    2  502    0  0.12223816642E+03  0.97787348600E+02 -0.86089398387E+03  0.89194842135E+03  0.17300000000E+03 0. -1.
         -6    1    1    2    0  501 -0.12223816642E+03 -0.97787348600E+02 -0.81577333051E+02  0.24716066868E+03  0.17300000000E+03 0.  1.
</event>
<event>
 4    1  0.1082663E+000  0.1000000E+03  0.7546771E-02  0.1280296E+00
          2   -1    0    0  502    0  0.00000000000E+00  0.00000000000E+00  0.12968086502E+04  0.12968086502E+04  0.00000000000E+00 0.  1.
         -2   -1    0    0    0  501 -0.00000000000E+00 -0.00000000000E+00 -0.26746374764E+02  0.26746374764E+02  0.00000000000E+00 0. -1.
          6    1    1    2  502    0  0.31957131437E+02 -0.58450555658E+02  0.69841733781E+03  0.72260189833E+03  0.17300000000E+03 0.  1.
         -6    1    1    2    0  501 -0.31957131437E+02  0.58450555658E+02  0.57164493763E+03  0.60095312665E+03  0.17300000000E+03 0. -1.
</event>
<event>
 4    1  0.1082663E+000  0.1000000E+03  0.7546771E-02  0.1280296E+00
          1   -1    0    0  502    0  0.00000000000E+00  0.00000000000E+00  0.34078444820E+03  0.34078444820E+03  0.00000000000E+00 0.  1.
         -1   -1    0    0    0  501 -0.00000000000E+00 -0.00000000000E+00 -0.12230670532E+03  0.12230670532E+03  0.00000000000E+00 0. -1.
          6    1    1    2  502    0  0.77909206121E+02  0.75374474330E+02  0.10894463366E+03  0.23140676088E+03  0.17300000000E+03 0.  1.
         -6    1    1    2    0  501 -0.77909206121E+02 -0.75374474330E+02  0.10953310922E+03  0.23168439264E+03  0.17300000000E+03 0. -1.
</event>
<event>
 4    1  0.1082663E+000  0.1000000E+03  0.7546771E-02  0.1280296E+00
          2   -1    0    0  502    0  0.00000000000E+00  0.00000000000E+00  0.72875651954E+02  0.72875651954E+02  0.00000000000E+00 0.  1.
         -2   -1    0    0    0  501 -0.00000000000E+00 -0.00000000000E+00 -0.11917222798E+04  0.11917222798E+04  0.00000000000E+00 0. -1.
          6    1    1    2  502    0 -0.85447107170E+02 -0.75202187094E+02 -0.10092883534E+04  0.10303147856E+04  0.17300000000E+03 0. -1.
         -6    1    1    2    0  501  0.85447107170E+02  0.75202187094E+02 -0.10955827438E+03  0.23428314611E+03  0.17300000000E+03 0.  1.
</event>
<event>
 4    1  0.1082663E+000  0.1000000E+03  0.7546771E-02  0.1280296E+00
          3   -1    0    0  502    0  0.00000000000E+00  0.00000000000E+00  0.11815036356E+03  0.11815036356E+03  0.00000000000E+00 0. -1.
         -3   -1    0    0    0  501 -0.00000000000E+00 -0.00000000000E+00 -0.34032364553E+03  0.34032364553E+03  0.00000000000E+00 0.  1.
          6    1    1    2  502    0  0.83250475709E+02  0.31426964139E+02 -0.55526005206E+02  0.20231271101E+03  0.17300000000E+03 0.  1.
         -6    1    1    2    0  501 -0.83250475709E+02 -0.31426964139E+02 -0.16664727676E+03  0.25616129808E+03  0.17300000000E+03 0. -1.
</event>
<event>
 4    1  0.1082663E+000  0.1000000E+03  0.7546771E-02  0.1280296E+00
          1   -1    0    0  502    0  0.00000000000E+00  0.00000000000E+00  0.87485496982E+03  0.87485496982E+03  0.00000000000E+00 0. -1.
         -1   -1    0    0    0  501 -0.00000000000E+00 -0.00000000000E+00 -0.35898893897E+02  0.35898893897E+02  0.00000000000E+00 0.  1.
          6    1    1    2  502    0 -0.11945020759E+02  0.19141642593E+02  0.33952151277E+03  0.38172364825E+03  0.17300000000E+03 0.  1.
         -6    1    1    2    0  501  0.11945020759E+02 -0.19141642593E+02  0.49943456316E+03  0.52903021547E+03  0.17300000000E+03 0. -1.
</event>
<event>
 4    1  0.1082663E+000  0.1000000E+03  0.7546771E-02  0.1280296E+00
          2   -1    0    0  502    0  0.00000000000E+00  0.00000000000E+00  0.48651002114E+03  0.48651002114E+03  0.00000000000E+00 0. -1.
         -2   -1    0    0    0  501 -0.00000000000E+00 -0.00000000000E+00 -0.14771502278E+03  0.14771502278E+03  0.00000000000E+00 0.  1.
          6    1    1    2  502    0  0.19089505508E+03  0.54947189638E+02  0.22825559426E+03  0.34855377206E+03  0.17300000000E+03 0.  1.
         -6    1    1    2    0  501 -0.19089505508E+03 -0.54947189638E+02  0.11053940409E+03  0.28567127185E+03  0.17300000000E+03 0. -1.
</event>
<event>
 4    1  0.1082663E+000  0.1000000E+03  0.7546771E-02  0.1280296E+00
         -2   -1    0    0    0  501 -0.00000000000E+00  0.00000000000E+00  0.29560562528E+02  0.29560562528E+02  0.00000000000E+00 0. -1.
          2   -1    0    0  502    0  0.00000000000E+00 -0.00000000000E+00 -0.12068125825E+04  0.12068125825E+04  0.00000000000E+00 0.  1.
          6    1    1    2  502    0 -0.18794212716E+02 -0.12268942977E+02 -0.82557955192E+03  0.84380942513E+03  0.17300000000E+03 0.  1.
         -6    1    1    2    0  501  0.18794212716E+02  0.12268942977E+02 -0.35167246805E+03  0.39256371990E+03  0.17300000000E+03 0. -1.
</event>
<event>
 4    1  0.1082663E+000  0.1000000E+03  0.7546771E-02  0.1280296E+00
         -2   -1    0    0    0  501 -0.00000000000E+00  0.00000000000E+00  0.42977872002E+02  0.42977872002E+02  0.00000000000E+00 0.  1.
          2   -1    0    0  502    0  0.00000000000E+00 -0.00000000000E+00 -0.16982968027E+04  0.16982968027E+04  0.00000000000E+00 0. -1.
          6    1    1    2  502    0 -0.10670483927E+03 -0.17758883091E+03 -0.79001320057E+03  0.83484943113E+03  0.17300000000E+03 0. -1.
         -6    1    1    2    0  501  0.10670483927E+03  0.17758883091E+03 -0.86530573017E+03  0.90642524361E+03  0.17300000000E+03 0.  1.
</event>
<event>
 4    1  0.1082663E+000  0.1000000E+03  0.7546771E-02  0.1280296E+00
         -2   -1    0    0    0  501 -0.00000000000E+00  0.00000000000E+00  0.46576623332E+02  0.46576623332E+02  0.00000000000E+00 0.  1.
          2   -1    0    0  502    0  0.00000000000E+00 -0.00000000000E+00 -0.25735613262E+04  0.25735613262E+04  0.00000000000E+00 0. -1.
          6    1    1    2  502    0  0.25517836580E+03 -0.15204219716E+03 -0.14197813450E+04  0.14608014566E+04  0.17300000000E+03 0. -1.
         -6    1    1    2    0  501 -0.25517836580E+03  0.15204219716E+03 -0.11072033578E+04  0.11593364929E+04  0.17300000000E+03 0.  1.
</event>
<event>
 4    1  0.1082663E+000  0.1000000E+03  0.7546771E-02  0.1280296E+00
         -3   -1    0    0    0  501 -0.00000000000E+00  0.00000000000E+00  0.11966006620E+03  0.11966006620E+03  0.00000000000E+00 0.  1.
          3   -1    0    0  502    0  0.00000000000E+00 -0.00000000000E+00 -0.18031508495E+04  0.18031508495E+04  0.00000000000E+00 0. -1.
          6    1    1    2  502    0  0.39625267222E+03  0.13226645996E+03 -0.62148031305E+03  0.76855538264E+03  0.17300000000E+03 0. -1.
         -6    1    1    2    0  501 -0.39625267222E+03 -0.13226645996E+03 -0.10620104702E+04  0.11542555330E+04  0.17300000000E+03 0.  1.
</event>
<event>
 4    1  0.1082663E+000  0.1000000E+03  0.7546771E-02  0.1280296E+00
         -1   -1    0    0    0  501 -0.00000000000E+00  0.00000000000E+00  0.21123488330E+04  0.21123488330E+04  0.00000000000E+00 0.  1.
          1   -1    0    0  502    0  0.00000000000E+00 -0.00000000000E+00 -0.18497525393E+02  0.18497525393E+02  0.00000000000E+00 0. -1.
          6    1    1    2  502    0 -0.85696915608E+02  0.14356314561E+02  0.12621287940E+04  0.12768900336E+04  0.17300000000E+03 0. -1.
         -6    1    1    2    0  501  0.85696915608E+02 -0.14356314561E+02  0.83172251361E+03  0.85395632485E+03  0.17300000000E+03 0.  1.
</event>
<event>
 4    1  0.1082663E+000  0.1000000E+03  0.7546771E-02  0.1280296E+00
          2   -1    0    0  502    0  0.00000000000E+00  0.00000000000E+00  0.85949742082E+03  0.85949742082E+03  0.00000000000E+00 0. -1.
         -2   -1    0    0    0  501 -0.00000000000E+00 -0.00000000000E+00 -0.47291401848E+02  0.47291401848E+02  0.00000000000E+00 0.  1.
          6    1    1    2  502    0  0.42856866249E+01 -0.34118254762E+02  0.62570313836E+03  0.65008910141E+03  0.17300000000E+03 0.  1.
         -6    1    1    2    0  501 -0.42856866249E+01  0.34118254762E+02  0.18650288062E+03  0.25669972126E+03  0.17300000000E+03 0.  1.
</event>
<event>
 4    1  0.1082663E+000  0.1000000E+03  0.7546771E-02  0.1280296E+00
          1   -1    0    0  502    0  0.00000000000E+00  0.00000000000E+00  0.20383233750E+04  0.20383233750E+04  0.00000000000E+00 0. -1.
         -1   -1    0    0    0  501 -0.00000000000E+00 -0.00000000000E+00 -0.23287425404E+02  0.23287425404E+02  0.00000000000E+00 0.  1.
          6    1    1    2  502    0 -0.10209116555E+02  0.43997541988E+02  0.41850976417E+03  0.45510376011E+03  0.17300000000E+03 0.  1.
         -6    1    1    2    0  501  0.10209116555E+02 -0.43997541988E+02  0.15965261855E+04  0.16065070403E+04  0.17300000000E+03 0.  1.
</event>
<event>
 4    1  0.1082663E+000  0.1000000E+03  0.7546771E-02  0.1280296E+00
          2   -1    0    0  502    0  0.00000000000E+00  0.00000000000E+00  0.25965064071E+03  0.25965064071E+03  0.00000000000E+00 0.  1.
         -2   -1    0    0    0  501 -0.00000000000E+00 -0.00000000000E+00 -0.19948426626E+03  0.19948426626E+03  0.00000000000E+00 0. -1.
          6    1    1    2  502    0  0.52703489242E+02 -0.28813283547E+02  0.16638574429E+03  0.24742893725E+03  0.17300000000E+03 0.  1.
         -6    1    1    2    0  501 -0.52703489242E+02  0.28813283547E+02 -0.10621936984E+03  0.21170596972E+03  0.17300000000E+03 0. -1.
</event>
<event>
 4    1  0.1082663E+000  0.1000000E+03  0.7546771E-02  0.1280296E+00
          2   -1    0    0  502    0  0.00000000000E+00  0.00000000000E+00  0.39955520364E+03  0.39955520364E+03  0.00000000000E+00 0.  1.
         -2   -1    0    0    0  501 -0.00000000000E+00 -0.00000000000E+00 -0.31166839492E+03  0.31166839492E+03  0.00000000000E+00 0. -1.
          6    1    1    2  502    0  0.47944882544E+02 -0.37719406671E+01  0.35007711400E+03  0.39344113289E+03  0.17300000000E+03 0.  1.
         -6    1    1    2    0  501 -0.47944882544E+02  0.37719406671E+01 -0.26219030528E+03  0.31778246566E+03  0.17300000000E+03 0. -1.
</event>
<event>
 4    1  0.1082663E+000  0.1000000E+03  0.7546771E-02  0.1280296E+00
          2   -1    0    0  502    0  0.00000000000E+00  0.00000000000E+00  0.28991920713E+04  0.28991920713E+04  0.00000000000E+00 0.  1.
         -2   -1    0    0    0  501 -0.00000000000E+00 -0.00000000000E+00 -0.11540962907E+02  0.11540962907E+02  0.00000000000E+00 0. -1.
          6    1    1    2  502    0  0.45938221593E+02 -0.21646118587E+02  0.11983893668E+04  0.12118766229E+04  0.17300000000E+03 0.  1.
         -6    1    1    2    0  501 -0.45938221593E+02  0.21646118587E+02  0.16892617416E+04  0.16988564113E+04  0.17300000000E+03 0. -1.
</event>
<event>
 4    1  0.1082663E+000  0.1000000E+03  0.7546771E-02  0.1280296E+00
          2   -1    0    0  502    0  0.00000000000E+00  0.00000000000E+00  0.15078942399E+03  0.15078942399E+03  0.00000000000E+00 0.  1.
         -2   -1    0    0    0  501 -0.00000000000E+00 -0.00000000000E+00 -0.23543877987E+03  0.23543877987E+03  0.00000000000E+00 0. -1.
          6    1    1    2  502    0 -0.12658754340E+02  0.11033570194E+02 -0.11687437473E+03  0.20945310502E+03  0.17300000000E+03 0.  1.
         -6    1    1    2    0  501  0.12658754340E+02 -0.11033570194E+02  0.32225018849E+02  0.17677509885E+03  0.17300000000E+03 0. -1.
</event>
<event>
 4    1  0.1082663E+000  0.1000000E+03  0.7546771E-02  0.1280296E+00
         -1   -1    0    0    0  501 -0.00000000000E+00  0.00000000000E+00  0.48559003423E+03  0.48559003423E+03  0.00000000000E+00 0.  1.
          1   -1    0    0  502    0  0.00000000000E+00 -0.00000000000E+00 -0.15731045397E+03  0.15731045397E+03  0.00000000000E+00 0. -1.
          6    1    1    2  502    0 -0.11254360609E+03  0.17316739173E+03  0.92384132229E+02  0.28481017664E+03  0.17300000000E+03 0.  1.
         -6    1    1    2    0  501  0.11254360609E+03 -0.17316739173E+03  0.23589544803E+03  0.35809031156E+03  0.17300000000E+03 0. -1.
</event>
<event>
 4    1  0.1082663E+000  0.1000000E+03  0.7546771E-02  0.1280296E+00
         -2   -1    0    0    0  501 -0.00000000000E+00  0.00000000000E+00  0.41110912814E+02  0.41110912814E+02  0.00000000000E+00 0.  1.
          2   -1    0    0  502    0  0.00000000000E+00 -0.00000000000E+00 -0.78371739744E+03  0.78371739744E+03  0.00000000000E+00 0. -1.
          6    1    1    2  502    0 -0.44683792876E+02 -0.14601750839E+02 -0.39191585616E+03  0.43097203017E+03  0.17300000000E+03 0.  1.
         -6    1    1    2    0  501  0.44683792876E+02  0.14601750839E+02 -0.35069062846E+03  0.39385628009E+03  0.17300000000E+03 0. -1.
</event>
<event>
 4    1  0.1082663E+000  0.1000000E+03  0.7546771E-02  0.1280296E+00
          2   -1    0    0  502    0  0.00000000000E+00  0.00000000000E+00  0.42974113835E+03  0.42974113835E+03  0.00000000000E+00 0.  1.
         -2   -1    0    0    0  501 -0.00000000000E+00 -0.00000000000E+00 -0.10865047079E+03  0.10865047079E+03  0.00000000000E+00 0. -1.
          6    1    1    2  502    0  0.15721791677E+02 -0.45595871872E+02  0.10860171970E+02  0.17992526671E+03  0.17300000000E+03 0. -1.
         -6    1    1    2    0  501 -0.15721791677E+02  0.45595871872E+02  0.31023049559E+03  0.35846634243E+03  0.17300000000E+03 0.  1.
</event>
<event>
 4    1  0.1082663E+000  0.1000000E+03  0.7546771E-02  0.1280296E+00
          1   -1    0    0  502    0  0.00000000000E+00  0.00000000000E+00  0.65778242479E+03  0.65778242479E+03  0.00000000000E+00 0.  1.
         -1   -1    0    0    0  501 -0.00000000000E+00 -0.00000000000E+00 -0.57550034073E+02  0.57550034073E+02  0.00000000000E+00 0. -1.
          6    1    1    2  502    0 -0.15767517630E+02 -0.45186686866E+02  0.16211032372E+03  0.24186609588E+03  0.17300000000E+03 0. -1.
         -6    1    1    2    0  501  0.15767517630E+02  0.45186686866E+02  0.43812206699E+03  0.47346636298E+03  0.17300000000E+03 0.  1.
</event>
<event>
 4    1  0.1082663E+000  0.1000000E+03  0.7546771E-02  0.1280296E+00
          2   -1    0    0  502    0  0.00000000000E+00  0.00000000000E+00  0.71904192739E+03  0.71904192739E+03  0.00000000000E+00 0.  1.
         -2   -1    0    0    0  501 -0.00000000000E+00 -0.00000000000E+00 -0.10410399673E+03  0.10410399673E+03  0.00000000000E+00 0. -1.
          6    1    1    2  502    0  0.14963551397E+02 -0.18423959643E+03  0.46349671024E+03  0.52813477178E+03  0.17300000000E+03 0.  1.
         -6    1    1    2    0  501 -0.14963551397E+02  0.18423959643E+03  0.15144122043E+03  0.29501115234E+03  0.17300000000E+03 0. -1.
</event>
<event>
 4    1  0.1082663E+000  0.1000000E+03  0.7546771E-02  0.1280296E+00
          1   -1    0    0  502    0  0.00000000000E+00  0.00000000000E+00  0.25928732364E+03  0.25928732364E+03  0.00000000000E+00 0.  1.
         -1   -1    0    0    0  501 -0.00000000000E+00 -0.00000000000E+00 -0.14256425912E+03  0.14256425912E+03  0.00000000000E+00 0. -1.
          6    1    1    2  502    0  0.36857166035E+02  0.12962306842E+02 -0.19209764957E+02  0.17839419037E+03  0.17300000000E+03 0.  1.
         -6    1    1    2    0  501 -0.36857166035E+02 -0.12962306842E+02  0.13593282947E+03  0.22345739239E+03  0.17300000000E+03 0. -1.
</event>
<event>
 4    1  0.1082663E+000  0.1000000E+03  0.7546771E-02  0.1280296E+00
          1   -1    0    0  502    0  0.00000000000E+00  0.00000000000E+00  0.76767831624E+03  0.76767831624E+03  0.00000000000E+00 0.  1.
         -1   -1    0    0    0  501 -0.00000000000E+00 -0.00000000000E+00 -0.43420144219E+02  0.43420144219E+02  0.00000000000E+00 0. -1.
          6    1    1    2  502    0 -0.55077581171E+02  0.19158317213E+02  0.36605403858E+03  0.40905395760E+03  0.17300000000E+03 0.  1.
         -6    1    1    2    0  501  0.55077581171E+02 -0.19158317213E+02  0.35820413344E+03  0.40204450286E+03  0.17300000000E+03 0. -1.
</event>
<event>
 4    1  0.1082663E+000  0.1000000E+03  0.7546771E-02  0.1280296E+00
         -3   -1    0    0    0  501 -0.00000000000E+00  0.00000000000E+00  0.71065811147E+03  0.71065811147E+03  0.00000000000E+00 0.  1.
          3   -1    0    0  502    0  0.00000000000E+00 -0.00000000000E+00 -0.10200352180E+03  0.10200352180E+03  0.00000000000E+00 0. -1.
          6    1    1    2  502    0 -0.13414181349E+03 -0.12122248233E+03  0.15438018575E+03  0.29402577796E+03  0.17300000000E+03 0. -1.
         -6    1    1    2    0  501  0.13414181349E+03  0.12122248233E+03  0.45427440392E+03  0.51863585530E+03  0.17300000000E+03 0.  1.
</event>
<event>
 4    1  0.1082663E+000  0.1000000E+03  0.7546771E-02  0.1280296E+00
          2   -1    0    0  502    0  0.00000000000E+00  0.00000000000E+00  0.26431519412E+04  0.26431519412E+04  0.00000000000E+00 0. -1.
         -2   -1    0    0    0  501 -0.00000000000E+00 -0.00000000000E+00 -0.22122423074E+02  0.22122423074E+02  0.00000000000E+00 0.  1.
          6    1    1    2  502    0  0.10213201618E+03 -0.13380446191E+03  0.12307771037E+04  0.12542232105E+04  0.17300000000E+03 0. -1.
         -6    1    1    2    0  501 -0.10213201618E+03  0.13380446191E+03  0.13902524144E+04  0.14110511537E+04  0.17300000000E+03 0.  1.
</event>
<event>
 4    1  0.1082663E+000  0.1000000E+03  0.7546771E-02  0.1280296E+00
          2   -1    0    0  502    0  0.00000000000E+00  0.00000000000E+00  0.36985101103E+03  0.36985101103E+03  0.00000000000E+00 0. -1.
         -2   -1    0    0    0  501 -0.00000000000E+00 -0.00000000000E+00 -0.12000552169E+03  0.12000552169E+03  0.00000000000E+00 0.  1.
          6    1    1    2  502    0 -0.21866714438E+02 -0.95360810513E+02  0.43680342886E+02  0.20349154709E+03  0.17300000000E+03 0. -1.
         -6    1    1    2    0  501  0.21866714438E+02  0.95360810513E+02  0.20616514646E+03  0.28636498563E+03  0.17300000000E+03 0.  1.
</event>
<event>
 4    1  0.1082663E+000  0.1000000E+03  0.7546771E-02  0.1280296E+00
          1   -1    0    0  502    0  0.00000000000E+00  0.00000000000E+00  0.67858369419E+02  0.67858369419E+02  0.00000000000E+00 0. -1.
         -1   -1    0    0    0  501 -0.00000000000E+00 -0.00000000000E+00 -0.60748085540E+03  0.60748085540E+03  0.00000000000E+00 0.  1.
          6    1    1    2  502    0 -0.26689337003E+02  0.49816556449E+02 -0.41948894464E+03  0.45726795720E+03  0.17300000000E+03 0. -1.
         -6    1    1    2    0  501  0.26689337003E+02 -0.49816556449E+02 -0.12013354134E+03  0.21807126762E+03  0.17300000000E+03 0.  1.
</event>
<event>
 4    1  0.1082663E+000  0.1000000E+03  0.7546771E-02  0.1280296E+00
          2   -1    0    0  502    0  0.00000000000E+00  0.00000000000E+00  0.45453069716E+03  0.45453069716E+03  0.00000000000E+00 0. -1.
         -2   -1    0    0    0  501 -0.00000000000E+00 -0.00000000000E+00 -0.11524651948E+03  0.11524651948E+03  0.00000000000E+00 0.  1.
          6    1    1    2  502    0 -0.46445957713E+02 -0.13052282006E+03  0.98564697962E+02  0.24256428680E+03  0.17300000000E+03 0. -1.
         -6    1    1    2    0  501  0.46445957713E+02  0.13052282006E+03  0.24071947972E+03  0.32721292985E+03  0.17300000000E+03 0.  1.
</event>
<event>
 4    1  0.1082663E+000  0.1000000E+03  0.7546771E-02  0.1280296E+00
          1   -1    0    0  502    0  0.00000000000E+00  0.00000000000E+00  0.15964372970E+04  0.15964372970E+04  0.00000000000E+00 0. -1.
         -1   -1    0    0    0  501 -0.00000000000E+00 -0.00000000000E+00 -0.11623015563E+03  0.11623015563E+03  0.00000000000E+00 0.  1.
          6    1    1    2  502    0 -0.24820329813E+03  0.30230811016E+02  0.13351053665E+03  0.33207354989E+03  0.17300000000E+03 0. -1.
         -6    1    1    2    0  501  0.24820329813E+03 -0.30230811016E+02  0.13466966047E+04  0.13805939028E+04  0.17300000000E+03 0.  1.
</event>
<event>
 4    1  0.1082663E+000  0.1000000E+03  0.7546771E-02  0.1280296E+00
         -2   -1    0    0    0  501 -0.00000000000E+00  0.00000000000E+00  0.15318430027E+03  0.15318430027E+03  0.00000000000E+00 0.  1.
          2   -1    0    0  502    0  0.00000000000E+00 -0.00000000000E+00 -0.22965128395E+04  0.22965128395E+04  0.00000000000E+00 0. -1.
          6    1    1    2  502    0 -0.38835350824E+03  0.23609410598E+03 -0.17728917824E+04  0.18383778573E+04  0.17300000000E+03 0.  1.
         -6    1    1    2    0  501  0.38835350824E+03 -0.23609410598E+03 -0.37043675678E+03  0.61131928238E+03  0.17300000000E+03 0. -1.
</event>
<event>
 4    1  0.1082663E+000  0.1000000E+03  0.7546771E-02  0.1280296E+00
          1   -1    0    0  502    0  0.00000000000E+00  0.00000000000E+00  0.10163236941E+04  0.10163236941E+04  0.00000000000E+00 0. -1.
         -1   -1    0    0    0  501 -0.00000000000E+00 -0.00000000000E+00 -0.47710692486E+02  0.47710692486E+02  0.00000000000E+00 0.  1.
          6    1    1    2  502    0  0.10428519633E+03  0.87568241718E+02  0.49424107463E+03  0.54106084591E+03  0.17300000000E+03 0. -1.
         -6    1    1    2    0  501 -0.10428519633E+03 -0.87568241718E+02  0.47437192701E+03  0.52297354070E+03  0.17300000000E+03 0.  1.
</event>
<event>
 4    1  0.1082663E+000  0.1000000E+03  0.7546771E-02  0.1280296E+00
          2   -1    0    0  502    0  0.00000000000E+00  0.00000000000E+00  0.88792713048E+03  0.88792713048E+03  0.00000000000E+00 0. -1.
         -2   -1    0    0    0  501 -0.00000000000E+00 -0.00000000000E+00 -0.37677120598E+02  0.37677120598E+02  0.00000000000E+00 0.  1.
          6    1    1    2  502    0  0.25332455665E+01 -0.57741397474E+02  0.45954524183E+03  0.49442018122E+03  0.17300000000E+03 0. -1.
         -6    1    1    2    0  501 -0.25332455665E+01  0.57741397474E+02  0.39070476806E+03  0.43118406986E+03  0.17300000000E+03 0. -1.
</event>
<event>
 4    1  0.1082663E+000  0.1000000E+03  0.7546771E-02  0.1280296E+00
          1   -1    0    0  502    0  0.00000000000E+00  0.00000000000E+00  0.12626034442E+04  0.12626034442E+04  0.00000000000E+00 0. -1.
         -1   -1    0    0    0  501 -0.00000000000E+00 -0.00000000000E+00 -0.44025651122E+02  0.44025651122E+02  0.00000000000E+00 0.  1.
          6    1    1    2  502    0 -0.11513304791E+03  0.11129170079E+03  0.59804078349E+03  0.64282442401E+03  0.17300000000E+03 0. -1.
         -6    1    1    2    0  501  0.11513304791E+03 -0.11129170079E+03  0.62053700956E+03  0.66380467129E+03  0.17300000000E+03 0. -1.
</event>
<event>
 4    1  0.1082663E+000  0.1000000E+03  0.7546771E-02  0.1280296E+00
          2   -1    0    0  502    0  0.00000000000E+00  0.00000000000E+00  0.11733537865E+04  0.11733537865E+04  0.00000000000E+00 0. -1.
         -2   -1    0    0    0  501 -0.00000000000E+00 -0.00000000000E+00 -0.27001069944E+02  0.27001069944E+02  0.00000000000E+00 0.  1.
          6    1    1    2  502    0 -0.28245784797E+02 -0.28732468562E+02  0.61153734080E+03  0.63681260846E+03  0.17300000000E+03 0. -1.
         -6    1    1    2    0  501  0.28245784797E+02  0.28732468562E+02  0.53481537572E+03  0.56354224794E+03  0.17300000000E+03 0. -1.
</event>
<event>
 4    1  0.1082663E+000  0.1000000E+03  0.7546771E-02  0.1280296E+00
          1   -1    0    0  502    0  0.00000000000E+00  0.00000000000E+00  0.13284949520E+04  0.13284949520E+04  0.00000000000E+00 0.  1.
         -1   -1    0    0    0  501 -0.00000000000E+00 -0.00000000000E+00 -0.14230544574E+03  0.14230544574E+03  0.00000000000E+00 0. -1.
          6    1    1    2  502    0  0.11917063418E+03  0.56049110817E+02 -0.43760004370E+02  0.22178160622E+03  0.17300000000E+03 0.  1.
         -6    1    1    2    0  501 -0.11917063418E+03 -0.56049110817E+02  0.12299495106E+04  0.12490187915E+04  0.17300000000E+03 0. -1.
</event>
<event>
 4    1  0.1082663E+000  0.1000000E+03  0.7546771E-02  0.1280296E+00
         -3   -1    0    0    0  501 -0.00000000000E+00  0.00000000000E+00  0.18246919003E+04  0.18246919003E+04  0.00000000000E+00 0. -1.
          3   -1    0    0  502    0  0.00000000000E+00 -0.00000000000E+00 -0.21305602084E+02  0.21305602084E+02  0.00000000000E+00 0.  1.
          6    1    1    2  502    0 -0.53433523369E+02  0.77340428116E+02  0.95089642516E+03  0.97106626686E+03  0.17300000000E+03 0.  1.
         -6    1    1    2    0  501  0.53433523369E+02 -0.77340428116E+02  0.85248987301E+03  0.87493123548E+03  0.17300000000E+03 0. -1.
</event>
<event>
 4    1  0.1082663E+000  0.1000000E+03  0.7546771E-02  0.1280296E+00
         -2   -1    0    0    0  501 -0.00000000000E+00  0.00000000000E+00  0.73520065246E+02  0.73520065246E+02  0.00000000000E+00 0. -1.
          2   -1    0    0  502    0  0.00000000000E+00 -0.00000000000E+00 -0.47009887904E+03  0.47009887904E+03  0.00000000000E+00 0.  1.
          6    1    1    2  502    0 -0.38601884719E+02 -0.29340027495E+02 -0.26812901357E+03  0.32275859498E+03  0.17300000000E+03 0.  1.
         -6    1    1    2    0  501  0.38601884719E+02  0.29340027495E+02 -0.12844980023E+03  0.22086034931E+03  0.17300000000E+03 0. -1.
</event>
<event>
 4    1  0.1082663E+000  0.1000000E+03  0.7546771E-02  0.1280296E+00
          2   -1    0    0  502    0  0.00000000000E+00  0.00000000000E+00  0.67208642871E+03  0.67208642871E+03  0.00000000000E+00 0.  1.
         -2   -1    0    0    0  501 -0.00000000000E+00 -0.00000000000E+00 -0.12970646322E+03  0.12970646322E+03  0.00000000000E+00 0. -1.
          6    1    1    2  502    0 -0.11608527526E+03 -0.39405340259E+02 -0.77940439428E+01  0.21217520848E+03  0.17300000000E+03 0.  1.
         -6    1    1    2    0  501  0.11608527526E+03  0.39405340259E+02  0.55017400943E+03  0.58961768344E+03  0.17300000000E+03 0. -1.
</event>
<event>
 4    1  0.1082663E+000  0.1000000E+03  0.7546771E-02  0.1280296E+00
          1   -1    0    0  502    0  0.00000000000E+00  0.00000000000E+00  0.13935798162E+04  0.13935798162E+04  0.00000000000E+00 0.  1.
         -1   -1    0    0    0  501 -0.00000000000E+00 -0.00000000000E+00 -0.26734896698E+02  0.26734896698E+02  0.00000000000E+00 0. -1.
          6    1    1    2  502    0  0.80780071424E+02 -0.29504863722E+01  0.57974520569E+03  0.61038318197E+03  0.17300000000E+03 0.  1.
         -6    1    1    2    0  501 -0.80780071424E+02  0.29504863722E+01  0.78709971377E+03  0.80993153089E+03  0.17300000000E+03 0. -1.
</event>
<event>
 4    1  0.1082663E+000  0.1000000E+03  0.7546771E-02  0.1280296E+00
          2   -1    0    0  502    0  0.00000000000E+00  0.00000000000E+00  0.83302323499E+03  0.83302323499E+03  0.00000000000E+00 0.  1.
         -2   -1    0    0    0  501 -0.00000000000E+00 -0.00000000000E+00 -0.12871097283E+03  0.12871097283E+03  0.00000000000E+00 0. -1.
          6    1    1    2  502    0  0.17113581668E+03 -0.95299702803E+02  0.64187662169E+03  0.69303975252E+03  0.17300000000E+03 0.  1.
         -6    1    1    2    0  501 -0.17113581668E+03  0.95299702803E+02  0.62435640467E+02  0.26869445529E+03  0.17300000000E+03 0. -1.
</event>
<event>
 4    1  0.1082663E+000  0.1000000E+03  0.7546771E-02  0.1280296E+00
          2   -1    0    0  502    0  0.00000000000E+00  0.00000000000E+00  0.24283772683E+04  0.24283772683E+04  0.00000000000E+00 0.  1.
         -2   -1    0    0    0  501 -0.00000000000E+00 -0.00000000000E+00 -0.24348879121E+02  0.24348879121E+02  0.00000000000E+00 0. -1.
          6    1    1    2  502    0  0.14285666486E+03 -0.12836885748E+02  0.73359184296E+03  0.76724103409E+03  0.17300000000E+03 0.  1.
         -6    1    1    2    0  501 -0.14285666486E+03  0.12836885748E+02  0.16704365462E+04  0.16854851133E+04  0.17300000000E+03 0. -1.
</event>
<event>
 4    1  0.1082663E+000  0.1000000E+03  0.7546771E-02  0.1280296E+00
         -2   -1    0    0    0  501 -0.00000000000E+00  0.00000000000E+00  0.26576275554E+02  0.26576275554E+02  0.00000000000E+00 0. -1.
          2   -1    0    0  502    0  0.00000000000E+00 -0.00000000000E+00 -0.25275529768E+04  0.25275529768E+04  0.00000000000E+00 0.  1.
          6    1    1    2  502    0 -0.96975894224E+02 -0.93806081709E+02 -0.19303954935E+04  0.19428226029E+04  0.17300000000E+03 0.  1.
         -6    1    1    2    0  501  0.96975894224E+02  0.93806081709E+02 -0.57058120768E+03  0.61130664939E+03  0.17300000000E+03 0. -1.
</event>
<event>
 4    1  0.1082663E+000  0.1000000E+03  0.7546771E-02  0.1280296E+00
         -2   -1    0    0    0  501 -0.00000000000E+00  0.00000000000E+00  0.54275977973E+03  0.54275977973E+03  0.00000000000E+00 0. -1.
          2   -1    0    0  502    0  0.00000000000E+00 -0.00000000000E+00 -0.37154044297E+03  0.37154044297E+03  0.00000000000E+00 0.  1.
          6    1    1    2  502    0 -0.67902637643E+01 -0.44716732953E+02 -0.33373439610E+03  0.37862031249E+03  0.17300000000E+03 0.  1.
         -6    1    1    2    0  501  0.67902637643E+01  0.44716732953E+02  0.50495373285E+03  0.53567991022E+03  0.17300000000E+03 0. -1.
</event>
<event>
 4    1  0.1082663E+000  0.1000000E+03  0.7546771E-02  0.1280296E+00
         -1   -1    0    0    0  501 -0.00000000000E+00  0.00000000000E+00  0.98193968304E+02  0.98193968304E+02  0.00000000000E+00 0.  1.
          1   -1    0    0  502    0  0.00000000000E+00 -0.00000000000E+00 -0.40300933763E+03  0.40300933763E+03  0.00000000000E+00 0. -1.
          6    1    1    2  502    0 -0.71898727604E+02  0.49461369824E+02 -0.95673765533E+02  0.21609794897E+03  0.17300000000E+03 0.  1.
         -6    1    1    2    0  501  0.71898727604E+02 -0.49461369824E+02 -0.20914160380E+03  0.28510535697E+03  0.17300000000E+03 0.  1.
</event>
<event>
 4    1  0.1082663E+000  0.1000000E+03  0.7546771E-02  0.1280296E+00
         -1   -1    0    0    0  501 -0.00000000000E+00  0.00000000000E+00  0.10881055431E+03  0.10881055431E+03  0.00000000000E+00 0.  1.
          1   -1    0    0  502    0  0.00000000000E+00 -0.00000000000E+00 -0.69462845057E+03  0.69462845057E+03  0.00000000000E+00 0. -1.
          6    1    1    2  502    0 -0.17095626669E+03  0.12793959025E+03 -0.28165455153E+03  0.39351349439E+03  0.17300000000E+03 0.  1.
         -6    1    1    2    0  501  0.17095626669E+03 -0.12793959025E+03 -0.30416334473E+03  0.40992551049E+03  0.17300000000E+03 0.  1.
</event>
<event>
 4    1  0.1082663E+000  0.1000000E+03  0.7546771E-02  0.1280296E+00
         -1   -1    0    0    0  501 -0.00000000000E+00  0.00000000000E+00  0.79814315810E+02  0.79814315810E+02  0.00000000000E+00 0.  1.
          1   -1    0    0  502    0  0.00000000000E+00 -0.00000000000E+00 -0.16863004603E+04  0.16863004603E+04  0.00000000000E+00 0. -1.
          6    1    1    2  502    0 -0.31224349167E+03  0.13583890266E+02 -0.60212447593E+03  0.70011670790E+03  0.17300000000E+03 0.  1.
         -6    1    1    2    0  501  0.31224349167E+03 -0.13583890266E+02 -0.10043616686E+04  0.10659980682E+04  0.17300000000E+03 0.  1.
</event>
<event>
 4    1  0.1082663E+000  0.1000000E+03  0.7546771E-02  0.1280296E+00
         -1   -1    0    0    0  501 -0.00000000000E+00  0.00000000000E+00  0.23384103785E+02  0.23384103785E+02  0.00000000000E+00 0. -1.
          1   -1    0    0  502    0  0.00000000000E+00 -0.00000000000E+00 -0.12995332664E+04  0.12995332664E+04  0.00000000000E+00 0.  1.
          6    1    1    2  502    0  0.14295833734E+01 -0.17334945164E+02 -0.68560021704E+03  0.70730417901E+03  0.17300000000E+03 0.  1.
         -6    1    1    2    0  501 -0.14295833734E+01  0.17334945164E+02 -0.59054894553E+03  0.61561319114E+03  0.17300000000E+03 0. -1.
</event>
<event>
 4    1  0.1082663E+000  0.1000000E+03  0.7546771E-02  0.1280296E+00
         -1   -1    0    0    0  501 -0.00000000000E+00  0.00000000000E+00  0.15462469021E+04  0.15462469021E+04  0.00000000000E+00 0. -1.
          1   -1    0    0  502    0  0.00000000000E+00 -0.00000000000E+00 -0.82055309490E+02  0.82055309490E+02  0.00000000000E+00 0.  1.
          6    1    1    2  502    0  0.88385959836E+02  0.22669741267E+03  0.11761559584E+04  0.12134560698E+04  0.17300000000E+03 0.  1.
         -6    1    1    2    0  501 -0.88385959836E+02 -0.22669741267E+03  0.28803563424E+03  0.41484614183E+03  0.17300000000E+03 0. -1.
</event>
<event>
 4    1  0.1082663E+000  0.1000000E+03  0.7546771E-02  0.1280296E+00
          2   -1    0    0  502    0  0.00000000000E+00  0.00000000000E+00  0.72378219381E+02  0.72378219381E+02  0.00000000000E+00 0. -1.
         -2   -1    0    0    0  501 -0.00000000000E+00 -0.00000000000E+00 -0.11150571072E+04  0.11150571072E+04  0.00000000000E+00 0.  1.
          6    1    1    2  502    0 -0.16690390020E+03 -0.14639226502E+02 -0.20642379917E+03  0.31719237651E+03  0.17300000000E+03 0. -1.
         -6    1    1    2    0  501  0.16690390020E+03  0.14639226502E+02 -0.83625508870E+03  0.87024295011E+03  0.17300000000E+03 0.  1.
</event>
<event>
 4    1  0.1082663E+000  0.1000000E+03  0.7546771E-02  0.1280296E+00
          1   -1    0    0  502    0  0.00000000000E+00  0.00000000000E+00  0.14414085045E+04  0.14414085045E+04  0.00000000000E+00 0. -1.
         -1   -1    0    0    0  501 -0.00000000000E+00 -0.00000000000E+00 -0.15062514228E+03  0.15062514228E+03  0.00000000000E+00 0.  1.
          6    1    1    2  502    0 -0.76333537688E+02  0.41408724609E+03  0.81527114908E+03  0.93375109257E+03  0.17300000000E+03 0. -1.
         -6    1    1    2    0  501  0.76333537688E+02 -0.41408724609E+03  0.47551221318E+03  0.65828255425E+03  0.17300000000E+03 0.  1.
</event>
<event>
 4    1  0.1082663E+000  0.1000000E+03  0.7546771E-02  0.1280296E+00
         -1   -1    0    0    0  501 -0.00000000000E+00  0.00000000000E+00  0.40412172032E+03  0.40412172032E+03  0.00000000000E+00 0. -1.
          1   -1    0    0  502    0  0.00000000000E+00 -0.00000000000E+00 -0.91314488392E+02  0.91314488392E+02  0.00000000000E+00 0.  1.
          6    1    1    2  502    0 -0.12532947423E+02  0.55532216397E+02  0.23518400454E+03  0.29745826231E+03  0.17300000000E+03 0. -1.
         -6    1    1    2    0  501  0.12532947423E+02 -0.55532216397E+02  0.77623227391E+02  0.19797794640E+03  0.17300000000E+03 0.  1.
</event>
<event>
 4    1  0.1082663E+000  0.1000000E+03  0.7546771E-02  0.1280296E+00
          2   -1    0    0  502    0  0.00000000000E+00  0.00000000000E+00  0.61278718910E+03  0.61278718910E+03  0.00000000000E+00 0. -1.
         -2   -1    0    0    0  501 -0.00000000000E+00 -0.00000000000E+00 -0.14080221599E+03  0.14080221599E+03  0.00000000000E+00 0.  1.
          6    1    1    2  502    0  0.20141934590E+01  0.99275731558E+02 -0.40599312726E+02  0.20356088044E+03  0.17300000000E+03 0.  1.
         -6    1    1    2    0  501 -0.20141934590E+01 -0.99275731558E+02  0.51258428583E+03  0.55002852465E+03  0.17300000000E+03 0. -1.
</event>
<event>
 4    1  0.1082663E+000  0.1000000E+03  0.7546771E-02  0.1280296E+00
          2   -1    0    0  502    0  0.00000000000E+00  0.00000000000E+00  0.10601662923E+04  0.10601662923E+04  0.00000000000E+00 0. -1.
         -2   -1    0    0    0  501 -0.00000000000E+00 -0.00000000000E+00 -0.50275467965E+02  0.50275467965E+02  0.00000000000E+00 0.  1.
          6    1    1    2  502    0 -0.13013602422E+03 -0.50633963462E+02  0.65459589861E+03  0.69132045647E+03  0.17300000000E+03 0.  1.
         -6    1    1    2    0  501  0.13013602422E+03  0.50633963462E+02  0.35529492577E+03  0.41912130384E+03  0.17300000000E+03 0. -1.
</event>
<event>
 4    1  0.1082663E+000  0.1000000E+03  0.7546771E-02  0.1280296E+00
          2   -1    0    0  502    0  0.00000000000E+00  0.00000000000E+00  0.77356704362E+03  0.77356704362E+03  0.00000000000E+00 0. -1.
         -2   -1    0    0    0  501 -0.00000000000E+00 -0.00000000000E+00 -0.13424787447E+03  0.13424787447E+03  0.00000000000E+00 0.  1.
          6    1    1    2  502    0  0.40012136323E+02 -0.11211874552E+02 -0.58796373121E+02  0.18738380580E+03  0.17300000000E+03 0.  1.
         -6    1    1    2    0  501 -0.40012136323E+02  0.11211874552E+02  0.69811554228E+03  0.72043111229E+03  0.17300000000E+03 0. -1.
</event>
<event>
 4    1  0.1082663E+000  0.1000000E+03  0.7546771E-02  0.1280296E+00
         -2   -1    0    0    0  501 -0.00000000000E+00  0.00000000000E+00  0.99930160911E+03  0.99930160911E+03  0.00000000000E+00 0.  1.
          2   -1    0    0  502    0  0.00000000000E+00 -0.00000000000E+00 -0.78145247658E+02  0.78145247658E+02  0.00000000000E+00 0. -1.
          6    1    1    2  502    0 -0.27241988380E+01  0.21935218771E+03  0.44855931220E+03  0.52844797291E+03  0.17300000000E+03 0.  1.
         -6    1    1    2    0  501  0.27241988380E+01 -0.21935218771E+03  0.47259704925E+03  0.54899888385E+03  0.17300000000E+03 0. -1.
</event>
<event>
 4    1  0.1082663E+000  0.1000000E+03  0.7546771E-02  0.1280296E+00
         -2   -1    0    0    0  501 -0.00000000000E+00  0.00000000000E+00  0.64365652349E+02  0.64365652349E+02  0.00000000000E+00 0.  1.
          2   -1    0    0  502    0  0.00000000000E+00 -0.00000000000E+00 -0.17498233659E+04  0.17498233659E+04  0.00000000000E+00 0. -1.
          6    1    1    2  502    0 -0.73136907097E+02  0.24925929202E+03 -0.50927154474E+03  0.59729867581E+03  0.17300000000E+03 0.  1.
         -6    1    1    2    0  501  0.73136907097E+02 -0.24925929202E+03 -0.11761861688E+04  0.12168903424E+04  0.17300000000E+03 0. -1.
</event>
<event>
 4    1  0.1082663E+000  0.1000000E+03  0.7546771E-02  0.1280296E+00
         -1   -1    0    0    0  501 -0.00000000000E+00  0.00000000000E+00  0.42638834176E+02  0.42638834176E+02  0.00000000000E+00 0.  1.
          1   -1    0    0  502    0  0.00000000000E+00 -0.00000000000E+00 -0.10679752227E+04  0.10679752227E+04  0.00000000000E+00 0. -1.
          6    1    1    2  502    0 -0.11439245634E+03  0.43150811559E+02 -0.57955131317E+03  0.61705457717E+03  0.17300000000E+03 0.  1.
         -6    1    1    2    0  501  0.11439245634E+03 -0.43150811559E+02 -0.44578507537E+03  0.49355947973E+03  0.17300000000E+03 0. -1.
</event>
<event>
 4    1  0.1082663E+000  0.1000000E+03  0.7546771E-02  0.1280296E+00
         -2   -1    0    0    0  501 -0.00000000000E+00  0.00000000000E+00  0.13555049459E+03  0.13555049459E+03  0.00000000000E+00 0.  1.
          2   -1    0    0  502    0  0.00000000000E+00 -0.00000000000E+00 -0.72907961322E+03  0.72907961322E+03  0.00000000000E+00 0. -1.
          6    1    1    2  502    0  0.67908414233E+01 -0.25998127977E+03 -0.34561224144E+03  0.46584675892E+03  0.17300000000E+03 0.  1.
         -6    1    1    2    0  501 -0.67908414233E+01  0.25998127977E+03 -0.24791687719E+03  0.39878334889E+03  0.17300000000E+03 0. -1.
</event>
<event>
 4    1  0.1082663E+000  0.1000000E+03  0.7546771E-02  0.1280296E+00
          2   -1    0    0  502    0  0.00000000000E+00  0.00000000000E+00  0.45187485629E+03  0.45187485629E+03  0.00000000000E+00 0.  1.
         -2   -1    0    0    0  501 -0.00000000000E+00 -0.00000000000E+00 -0.15073816049E+03  0.15073816049E+03  0.00000000000E+00 0. -1.
          6    1    1    2  502    0 -0.75779743092E+02 -0.12509849026E+00  0.35851391060E+03  0.40522069197E+03  0.17300000000E+03 0.  1.
         -6    1    1    2    0  501  0.75779743092E+02  0.12509849026E+00 -0.57377214796E+02  0.19739232480E+03  0.17300000000E+03 0. -1.
</event>
<event>
 4    1  0.1082663E+000  0.1000000E+03  0.7546771E-02  0.1280296E+00
          2   -1    0    0  502    0  0.00000000000E+00  0.00000000000E+00  0.11726386872E+04  0.11726386872E+04  0.00000000000E+00 0.  1.
         -2   -1    0    0    0  501 -0.00000000000E+00 -0.00000000000E+00 -0.18365260172E+03  0.18365260172E+03  0.00000000000E+00 0. -1.
          6    1    1    2  502    0 -0.26986023838E+03  0.33548089614E+03  0.50554172938E+03  0.68620217143E+03  0.17300000000E+03 0.  1.
         -6    1    1    2    0  501  0.26986023838E+03 -0.33548089614E+03  0.48344435611E+03  0.67008911750E+03  0.17300000000E+03 0. -1.
</event>
<event>
 4    1  0.1082663E+000  0.1000000E+03  0.7546771E-02  0.1280296E+00
          2   -1    0    0  502    0  0.00000000000E+00  0.00000000000E+00  0.53696022118E+03  0.53696022118E+03  0.00000000000E+00 0. -1.
         -2   -1    0    0    0  501 -0.00000000000E+00 -0.00000000000E+00 -0.13012888714E+03  0.13012888714E+03  0.00000000000E+00 0.  1.
          6    1    1    2  502    0  0.16345278688E+03  0.11242855676E+03  0.23401416801E+03  0.35220537296E+03  0.17300000000E+03 0.  1.
         -6    1    1    2    0  501 -0.16345278688E+03 -0.11242855676E+03  0.17281716604E+03  0.31488373536E+03  0.17300000000E+03 0. -1.
</event>
<event>
 4    1  0.1082663E+000  0.1000000E+03  0.7546771E-02  0.1280296E+00
          1   -1    0    0  502    0  0.00000000000E+00  0.00000000000E+00  0.15656367506E+04  0.15656367506E+04  0.00000000000E+00 0.  1.
         -1   -1    0    0    0  501 -0.00000000000E+00 -0.00000000000E+00 -0.57646929651E+02  0.57646929651E+02  0.00000000000E+00 0. -1.
          6    1    1    2  502    0  0.14607852229E+03 -0.12290439464E+03  0.11714931054E+04  0.11994871908E+04  0.17300000000E+03 0.  1.
         -6    1    1    2    0  501 -0.14607852229E+03  0.12290439464E+03  0.33649671557E+03  0.42379648947E+03  0.17300000000E+03 0. -1.
</event>
<event>
 4    1  0.1082663E+000  0.1000000E+03  0.7546771E-02  0.1280296E+00
          2   -1    0    0  502    0  0.00000000000E+00  0.00000000000E+00  0.43478742069E+03  0.43478742069E+03  0.00000000000E+00 0.  1.
         -2   -1    0    0    0  501 -0.00000000000E+00 -0.00000000000E+00 -0.95363611422E+02  0.95363611422E+02  0.00000000000E+00 0. -1.
          6    1    1    2  502    0  0.85214548590E+02 -0.65033842738E+02  0.17824617007E+03  0.27053949275E+03  0.17300000000E+03 0.  1.
         -6    1    1    2    0  501 -0.85214548590E+02  0.65033842738E+02  0.16117763920E+03  0.25961153936E+03  0.17300000000E+03 0. -1.
</event>
<event>
 4    1  0.1082663E+000  0.1000000E+03  0.7546771E-02  0.1280296E+00
          1   -1    0    0  502    0  0.00000000000E+00  0.00000000000E+00  0.13174460444E+04  0.13174460444E+04  0.00000000000E+00 0.  1.
         -1   -1    0    0    0  501 -0.00000000000E+00 -0.00000000000E+00 -0.43154925388E+03  0.43154925388E+03  0.00000000000E+00 0. -1.
          6    1    1    2  502    0  0.11841247463E+03 -0.79362929702E+02 -0.39201046571E+03  0.45157634347E+03  0.17300000000E+03 0.  1.
         -6    1    1    2    0  501 -0.11841247463E+03  0.79362929702E+02  0.12779072562E+04  0.12974189548E+04  0.17300000000E+03 0. -1.
</event>
<event>
 4    1  0.1082663E+000  0.1000000E+03  0.7546771E-02  0.1280296E+00
          1   -1    0    0  502    0  0.00000000000E+00  0.00000000000E+00  0.23422757785E+04  0.23422757785E+04  0.00000000000E+00 0.  1.
         -1   -1    0    0    0  501 -0.00000000000E+00 -0.00000000000E+00 -0.13434980606E+02  0.13434980606E+02  0.00000000000E+00 0. -1.
          6    1    1    2  502    0  0.30722264241E+00 -0.28531942980E+02  0.98560605846E+03  0.10010806504E+04  0.17300000000E+03 0.  1.
         -6    1    1    2    0  501 -0.30722264241E+00  0.28531942980E+02  0.13432347394E+04  0.13546301087E+04  0.17300000000E+03 0. -1.
</event>
<event>
 4    1  0.1082663E+000  0.1000000E+03  0.7546771E-02  0.1280296E+00
          2   -1    0    0  502    0  0.00000000000E+00  0.00000000000E+00  0.10188192972E+04  0.10188192972E+04  0.00000000000E+00 0.  1.
         -2   -1    0    0    0  501 -0.00000000000E+00 -0.00000000000E+00 -0.41355728490E+02  0.41355728490E+02  0.00000000000E+00 0. -1.
          6    1    1    2  502    0 -0.13084989644E+02 -0.10278323189E+03  0.58772418158E+03  0.62135684057E+03  0.17300000000E+03 0.  1.
         -6    1    1    2    0  501  0.13084989644E+02  0.10278323189E+03  0.38973938715E+03  0.43881818514E+03  0.17300000000E+03 0. -1.
</event>
<event>
 4    1  0.1082663E+000  0.1000000E+03  0.7546771E-02  0.1280296E+00
          3   -1    0    0  502    0  0.00000000000E+00  0.00000000000E+00  0.32156330027E+03  0.32156330027E+03  0.00000000000E+00 0. -1.
         -3   -1    0    0    0  501 -0.00000000000E+00 -0.00000000000E+00 -0.19416250728E+03  0.19416250728E+03  0.00000000000E+00 0.  1.
          6    1    1    2  502    0  0.14972366320E+02  0.13623661649E+03  0.18458774393E+03  0.28772595058E+03  0.17300000000E+03 0. -1.
         -6    1    1    2    0  501 -0.14972366320E+02 -0.13623661649E+03 -0.57186950942E+02  0.22799985698E+03  0.17300000000E+03 0.  1.
</event>
<event>
 4    1  0.1082663E+000  0.1000000E+03  0.7546771E-02  0.1280296E+00
          3   -1    0    0  502    0  0.00000000000E+00  0.00000000000E+00  0.34755518260E+03  0.34755518260E+03  0.00000000000E+00 0. -1.
         -3   -1    0    0    0  501 -0.00000000000E+00 -0.00000000000E+00 -0.34145912289E+03  0.34145912289E+03  0.00000000000E+00 0.  1.
          6    1    1    2  502    0  0.26443825924E+03  0.30492891588E+02 -0.13070876021E+03  0.34332373845E+03  0.17300000000E+03 0. -1.
         -6    1    1    2    0  501 -0.26443825924E+03 -0.30492891588E+02  0.13680481992E+03  0.34569056704E+03  0.17300000000E+03 0.  1.
</event>
<event>
 4    1  0.1082663E+000  0.1000000E+03  0.7546771E-02  0.1280296E+00
         -1   -1    0    0    0  501 -0.00000000000E+00  0.00000000000E+00  0.18578436948E+03  0.18578436948E+03  0.00000000000E+00 0.  1.
          1   -1    0    0  502    0  0.00000000000E+00 -0.00000000000E+00 -0.26524061313E+03  0.26524061313E+03  0.00000000000E+00 0. -1.
          6    1    1    2  502    0  0.11896518979E+02  0.12117978325E+03  0.28589848963E+02  0.21347703974E+03  0.17300000000E+03 0. -1.
         -6    1    1    2    0  501 -0.11896518979E+02 -0.12117978325E+03 -0.10804609261E+03  0.23754794287E+03  0.17300000000E+03 0.  1.
</event>
<event>
 4    1  0.1082663E+000  0.1000000E+03  0.7546771E-02  0.1280296E+00
          2   -1    0    0  502    0  0.00000000000E+00  0.00000000000E+00  0.34019267341E+03  0.34019267341E+03  0.00000000000E+00 0. -1.
         -2   -1    0    0    0  501 -0.00000000000E+00 -0.00000000000E+00 -0.13365309005E+03  0.13365309005E+03  0.00000000000E+00 0.  1.
          6    1    1    2  502    0  0.42853953642E+02 -0.14867338924E+02 -0.25739490767E+02  0.18069039956E+03  0.17300000000E+03 0. -1.
         -6    1    1    2    0  501 -0.42853953642E+02  0.14867338924E+02  0.23227907412E+03  0.29315536390E+03  0.17300000000E+03 0.  1.
</event>
<event>
 4    1  0.1082663E+000  0.1000000E+03  0.7546771E-02  0.1280296E+00
          2   -1    0    0  502    0  0.00000000000E+00  0.00000000000E+00  0.73372423923E+03  0.73372423923E+03  0.00000000000E+00 0. -1.
         -2   -1    0    0    0  501 -0.00000000000E+00 -0.00000000000E+00 -0.57414973933E+02  0.57414973933E+02  0.00000000000E+00 0.  1.
          6    1    1    2  502    0 -0.15595801148E+02 -0.36409512266E+02  0.13945934104E+03  0.22571395482E+03  0.17300000000E+03 0. -1.
         -6    1    1    2    0  501  0.15595801148E+02  0.36409512266E+02  0.53684992426E+03  0.56542525834E+03  0.17300000000E+03 0.  1.
</event>
<event>
 4    1  0.1082663E+000  0.1000000E+03  0.7546771E-02  0.1280296E+00
          2   -1    0    0  502    0  0.00000000000E+00  0.00000000000E+00  0.13072906040E+04  0.13072906040E+04  0.00000000000E+00 0. -1.
         -2   -1    0    0    0  501 -0.00000000000E+00 -0.00000000000E+00 -0.57056077482E+02  0.57056077482E+02  0.00000000000E+00 0.  1.
          6    1    1    2  502    0  0.12523172853E+03  0.84621274022E+02  0.99404945825E+03  0.10202485341E+04  0.17300000000E+03 0. -1.
         -6    1    1    2    0  501 -0.12523172853E+03 -0.84621274022E+02  0.25618506831E+03  0.34409814744E+03  0.17300000000E+03 0.  1.
</event>
<event>
 4    1  0.1082663E+000  0.1000000E+03  0.7546771E-02  0.1280296E+00
         -2   -1    0    0    0  501 -0.00000000000E+00  0.00000000000E+00  0.54509096054E+02  0.54509096054E+02  0.00000000000E+00 0.  1.
          2   -1    0    0  502    0  0.00000000000E+00 -0.00000000000E+00 -0.11377905368E+04  0.11377905368E+04  0.00000000000E+00 0. -1.
          6    1    1    2  502    0 -0.90071560590E+02 -0.89561801516E+02 -0.23925468399E+03  0.32141251707E+03  0.17300000000E+03 0. -1.
         -6    1    1    2    0  501  0.90071560590E+02  0.89561801516E+02 -0.84402675676E+03  0.87088711579E+03  0.17300000000E+03 0.  1.
</event>
<event>
 4    1  0.1082663E+000  0.1000000E+03  0.7546771E-02  0.1280296E+00
         -2   -1    0    0    0  501 -0.00000000000E+00  0.00000000000E+00  0.35790370725E+02  0.35790370725E+02  0.00000000000E+00 0.  1.
          2   -1    0    0  502    0  0.00000000000E+00 -0.00000000000E+00 -0.11434012662E+04  0.11434012662E+04  0.00000000000E+00 0. -1.
          6    1    1    2  502    0 -0.19197548809E+02  0.10214855796E+03 -0.51353802782E+03  0.55177276101E+03  0.17300000000E+03 0. -1.
         -6    1    1    2    0  501  0.19197548809E+02 -0.10214855796E+03 -0.59407286768E+03  0.62741887594E+03  0.17300000000E+03 0.  1.
</event>
<event>
 4    1  0.1082663E+000  0.1000000E+03  0.7546771E-02  0.1280296E+00
          1   -1    0    0  502    0  0.00000000000E+00  0.00000000000E+00  0.12041900555E+03  0.12041900555E+03  0.00000000000E+00 0. -1.
         -1   -1    0    0    0  501 -0.00000000000E+00 -0.00000000000E+00 -0.32254041860E+03  0.32254041860E+03  0.00000000000E+00 0.  1.
          6    1    1    2  502    0 -0.34574092157E+02  0.87466929838E+02 -0.91988751817E+02  0.21734019905E+03  0.17300000000E+03 0.  1.
         -6    1    1    2    0  501  0.34574092157E+02 -0.87466929838E+02 -0.11013266123E+03  0.22561922510E+03  0.17300000000E+03 0. -1.
</event>
<event>
 4    1  0.1082663E+000  0.1000000E+03  0.7546771E-02  0.1280296E+00
          2   -1    0    0  502    0  0.00000000000E+00  0.00000000000E+00  0.15739722849E+04  0.15739722849E+04  0.00000000000E+00 0.  1.
         -2   -1    0    0    0  501 -0.00000000000E+00 -0.00000000000E+00 -0.49167862965E+02  0.49167862965E+02  0.00000000000E+00 0. -1.
          6    1    1    2  502    0  0.33672673293E+02 -0.20676889117E+03  0.58802856099E+03  0.64776061305E+03  0.17300000000E+03 0. -1.
         -6    1    1    2    0  501 -0.33672673293E+02  0.20676889117E+03  0.93677586091E+03  0.97537953478E+03  0.17300000000E+03 0.  1.
</event>
<event>
 4    1  0.1082663E+000  0.1000000E+03  0.7546771E-02  0.1280296E+00
          1   -1    0    0  502    0  0.00000000000E+00  0.00000000000E+00  0.12182308759E+04  0.12182308759E+04  0.00000000000E+00 0.  1.
         -1   -1    0    0    0  501 -0.00000000000E+00 -0.00000000000E+00 -0.13516408848E+03  0.13516408848E+03  0.00000000000E+00 0. -1.
          6    1    1    2  502    0  0.10065162980E+03  0.29424774093E+03  0.21636915975E+03  0.41648180862E+03  0.17300000000E+03 0. -1.
         -6    1    1    2    0  501 -0.10065162980E+03 -0.29424774093E+03  0.86669762762E+03  0.93691315572E+03  0.17300000000E+03 0.  1.
</event>
<event>
 4    1  0.1082663E+000  0.1000000E+03  0.7546771E-02  0.1280296E+00
          2   -1    0    0  502    0  0.00000000000E+00  0.00000000000E+00  0.11311717492E+04  0.11311717492E+04  0.00000000000E+00 0.  1.
         -2   -1    0    0    0  501 -0.00000000000E+00 -0.00000000000E+00 -0.37948618938E+02  0.37948618938E+02  0.00000000000E+00 0. -1.
          6    1    1    2  502    0 -0.18954605065E+02  0.77997498771E+02  0.31818985694E+03  0.37096721139E+03  0.17300000000E+03 0. -1.
         -6    1    1    2    0  501  0.18954605065E+02 -0.77997498771E+02  0.77503327333E+03  0.79815315676E+03  0.17300000000E+03 0.  1.
</event>
<event>
 4    1  0.1082663E+000  0.1000000E+03  0.7546771E-02  0.1280296E+00
         -2   -1    0    0    0  501 -0.00000000000E+00  0.00000000000E+00  0.37814557291E+02  0.37814557291E+02  0.00000000000E+00 0.  1.
          2   -1    0    0  502    0  0.00000000000E+00 -0.00000000000E+00 -0.12784021347E+04  0.12784021347E+04  0.00000000000E+00 0. -1.
          6    1    1    2  502    0 -0.53537325042E+02  0.79602245489E+02 -0.33303420640E+03  0.38735454727E+03  0.17300000000E+03 0. -1.
         -6    1    1    2    0  501  0.53537325042E+02 -0.79602245489E+02 -0.90755337097E+03  0.92886214468E+03  0.17300000000E+03 0. -1.
</event>
<event>
 4    1  0.1082663E+000  0.1000000E+03  0.7546771E-02  0.1280296E+00
          1   -1    0    0  502    0  0.00000000000E+00  0.00000000000E+00  0.20248868180E+04  0.20248868180E+04  0.00000000000E+00 0.  1.
         -1   -1    0    0    0  501 -0.00000000000E+00 -0.00000000000E+00 -0.20857008472E+02  0.20857008472E+02  0.00000000000E+00 0. -1.
          6    1    1    2  502    0  0.11048488535E+03  0.22803050759E+01  0.10497482966E+04  0.10696319909E+04  0.17300000000E+03 0.  1.
         -6    1    1    2    0  501 -0.11048488535E+03 -0.22803050759E+01  0.95428151288E+03  0.97611183555E+03  0.17300000000E+03 0. -1.
</event>
<event>
 4    1  0.1082663E+000  0.1000000E+03  0.7546771E-02  0.1280296E+00
          1   -1    0    0  502    0  0.00000000000E+00  0.00000000000E+00  0.14203466116E+04  0.14203466116E+04  0.00000000000E+00 0.  1.
         -1   -1    0    0    0  501 -0.00000000000E+00 -0.00000000000E+00 -0.28594199000E+02  0.28594199000E+02  0.00000000000E+00 0. -1.
          6    1    1    2  502    0  0.25732857368E+02 -0.97078239931E+02  0.78380827597E+03  0.80893187481E+03  0.17300000000E+03 0.  1.
         -6    1    1    2    0  501 -0.25732857368E+02  0.97078239931E+02  0.60794413659E+03  0.64000893574E+03  0.17300000000E+03 0. -1.
</event>
<event>
 4    1  0.1082663E+000  0.1000000E+03  0.7546771E-02  0.1280296E+00
          2   -1    0    0  502    0  0.00000000000E+00  0.00000000000E+00  0.10178925586E+04  0.10178925586E+04  0.00000000000E+00 0.  1.
         -2   -1    0    0    0  501 -0.00000000000E+00 -0.00000000000E+00 -0.79750401470E+03  0.79750401470E+03  0.00000000000E+00 0. -1.
          6    1    1    2  502    0 -0.67230907977E+03 -0.54368418646E+03  0.29664739652E+03  0.93033363435E+03  0.17300000000E+03 0.  1.
         -6    1    1    2    0  501  0.67230907977E+03  0.54368418646E+03 -0.76258852595E+02  0.88506293898E+03  0.17300000000E+03 0. -1.
</event>
<event>
 4    1  0.1082663E+000  0.1000000E+03  0.7546771E-02  0.1280296E+00
          1   -1    0    0  502    0  0.00000000000E+00  0.00000000000E+00  0.16638973772E+03  0.16638973772E+03  0.00000000000E+00 0. -1.
         -1   -1    0    0    0  501 -0.00000000000E+00 -0.00000000000E+00 -0.28586788550E+03  0.28586788550E+03  0.00000000000E+00 0.  1.
          6    1    1    2  502    0  0.43073348749E+02 -0.28197344598E+02 -0.18666605602E+03  0.25966058631E+03  0.17300000000E+03 0.  1.
         -6    1    1    2    0  501 -0.43073348749E+02  0.28197344598E+02  0.67187908239E+02  0.19259703691E+03  0.17300000000E+03 0. -1.
</event>
<event>
 4    1  0.1082663E+000  0.1000000E+03  0.7546771E-02  0.1280296E+00
          1   -1    0    0  502    0  0.00000000000E+00  0.00000000000E+00  0.13452269764E+04  0.13452269764E+04  0.00000000000E+00 0. -1.
         -1   -1    0    0    0  501 -0.00000000000E+00 -0.00000000000E+00 -0.12616590787E+03  0.12616590787E+03  0.00000000000E+00 0.  1.
          6    1    1    2  502    0 -0.33233707149E+03  0.91147802273E+02  0.35051783188E+03  0.52110229457E+03  0.17300000000E+03 0.  1.
         -6    1    1    2    0  501  0.33233707149E+03 -0.91147802273E+02  0.86854323669E+03  0.95029058974E+03  0.17300000000E+03 0. -1.
</event>
<event>
 4    1  0.1082663E+000  0.1000000E+03  0.7546771E-02  0.1280296E+00
          2   -1    0    0  502    0  0.00000000000E+00  0.00000000000E+00  0.31444663813E+03  0.31444663813E+03  0.00000000000E+00 0. -1.
         -2   -1    0    0    0  501 -0.00000000000E+00 -0.00000000000E+00 -0.12353636084E+03  0.12353636084E+03  0.00000000000E+00 0.  1.
          6    1    1    2  502    0  0.81428167546E+02  0.10673364442E+02  0.14723953311E+03  0.24156354710E+03  0.17300000000E+03 0.  1.
         -6    1    1    2    0  501 -0.81428167546E+02 -0.10673364442E+02  0.43670744183E+02  0.19641945188E+03  0.17300000000E+03 0. -1.
</event>
<event>
 4    1  0.1082663E+000  0.1000000E+03  0.7546771E-02  0.1280296E+00
         -1   -1    0    0    0  501 -0.00000000000E+00  0.00000000000E+00  0.16140438637E+02  0.16140438637E+02  0.00000000000E+00 0.  1.
          1   -1    0    0  502    0  0.00000000000E+00 -0.00000000000E+00 -0.21598110827E+04  0.21598110827E+04  0.00000000000E+00 0. -1.
          6    1    1    2  502    0 -0.50799602317E+02 -0.48445917342E+02 -0.10830314913E+04  0.10990058315E+04  0.17300000000E+03 0. -1.
         -6    1    1    2    0  501  0.50799602317E+02  0.48445917342E+02 -0.10606391527E+04  0.10769456898E+04  0.17300000000E+03 0.  1.
</event>
<event>
 4    1  0.1082663E+000  0.1000000E+03  0.7546771E-02  0.1280296E+00
         -1   -1    0    0    0  501 -0.00000000000E+00  0.00000000000E+00  0.33587355008E+03  0.33587355008E+03  0.00000000000E+00 0.  1.
          1   -1    0    0  502    0  0.00000000000E+00 -0.00000000000E+00 -0.22137441070E+03  0.22137441070E+03  0.00000000000E+00 0. -1.
          6    1    1    2  502    0 -0.90002693590E+01 -0.21056335854E+03  0.54570107138E+02  0.27807342448E+03  0.17300000000E+03 0. -1.
         -6    1    1    2    0  501  0.90002693590E+01  0.21056335854E+03  0.59929032241E+02  0.27917453629E+03  0.17300000000E+03 0.  1.
</event>
<event>
 4    1  0.1082663E+000  0.1000000E+03  0.7546771E-02  0.1280296E+00
         -2   -1    0    0    0  501 -0.00000000000E+00  0.00000000000E+00  0.28772293308E+02  0.28772293308E+02  0.00000000000E+00 0. -1.
          2   -1    0    0  502    0  0.00000000000E+00 -0.00000000000E+00 -0.24417128961E+04  0.24417128961E+04  0.00000000000E+00 0.  1.
          6    1    1    2  502    0 -0.17890372372E+03 -0.21710178607E+02 -0.16192935644E+04  0.16384500365E+04  0.17300000000E+03 0.  1.
         -6    1    1    2    0  501  0.17890372372E+03  0.21710178607E+02 -0.79364703835E+03  0.83203515293E+03  0.17300000000E+03 0.  1.
</event>
<event>
 4    1  0.1082663E+000  0.1000000E+03  0.7546771E-02  0.1280296E+00
         -2   -1    0    0    0  501 -0.00000000000E+00  0.00000000000E+00  0.42987367306E+02  0.42987367306E+02  0.00000000000E+00 0. -1.
          2   -1    0    0  502    0  0.00000000000E+00 -0.00000000000E+00 -0.11419645855E+04  0.11419645855E+04  0.00000000000E+00 0.  1.
          6    1    1    2  502    0 -0.86862643982E+02  0.90405087537E+02 -0.70639231459E+03  0.73799546129E+03  0.17300000000E+03 0.  1.
         -6    1    1    2    0  501  0.86862643982E+02 -0.90405087537E+02 -0.39258490362E+03  0.44695649153E+03  0.17300000000E+03 0.  1.
</event>
<event>
 4    1  0.1082663E+000  0.1000000E+03  0.7546771E-02  0.1280296E+00
         -2   -1    0    0    0  501 -0.00000000000E+00  0.00000000000E+00  0.60117170055E+02  0.60117170055E+02  0.00000000000E+00 0. -1.
          2   -1    0    0  502    0  0.00000000000E+00 -0.00000000000E+00 -0.93997626027E+03  0.93997626027E+03  0.00000000000E+00 0.  1.
          6    1    1    2  502    0  0.15508902996E+03  0.16974547780E+02 -0.53946482193E+03  0.58761555168E+03  0.17300000000E+03 0.  1.
         -6    1    1    2    0  501 -0.15508902996E+03 -0.16974547780E+02 -0.34039426828E+03  0.41247787864E+03  0.17300000000E+03 0.  1.
</event>
<event>
 4    1  0.1082663E+000  0.1000000E+03  0.7546771E-02  0.1280296E+00
          2   -1    0    0  502    0  0.00000000000E+00  0.00000000000E+00  0.10586132450E+04  0.10586132450E+04  0.00000000000E+00 0. -1.
         -2   -1    0    0    0  501 -0.00000000000E+00 -0.00000000000E+00 -0.12903585352E+03  0.12903585352E+03  0.00000000000E+00 0.  1.
          6    1    1    2  502    0  0.25519365425E+03 -0.20351210135E+03  0.48304343493E+03  0.60811260191E+03  0.17300000000E+03 0. -1.
         -6    1    1    2    0  501 -0.25519365425E+03  0.20351210135E+03  0.44653395657E+03  0.57953649664E+03  0.17300000000E+03 0. -1.
</event>
<event>
 4    1  0.1082663E+000  0.1000000E+03  0.7546771E-02  0.1280296E+00
          2   -1    0    0  502    0  0.00000000000E+00  0.00000000000E+00  0.29802486528E+04  0.29802486528E+04  0.00000000000E+00 0.  1.
         -2   -1    0    0    0  501 -0.00000000000E+00 -0.00000000000E+00 -0.12326081213E+02  0.12326081213E+02  0.00000000000E+00 0. -1.
          6    1    1    2  502    0  0.42393458224E+02 -0.10625602483E+02  0.20302002532E+04  0.20380265397E+04  0.17300000000E+03 0. -1.
         -6    1    1    2    0  501 -0.42393458224E+02  0.10625602483E+02  0.93772231845E+03  0.95454819430E+03  0.17300000000E+03 0.  1.
</event>
<event>
 4    1  0.1082663E+000  0.1000000E+03  0.7546771E-02  0.1280296E+00
          2   -1    0    0  502    0  0.00000000000E+00  0.00000000000E+00  0.43716844815E+03  0.43716844815E+03  0.00000000000E+00 0.  1.
         -2   -1    0    0    0  501 -0.00000000000E+00 -0.00000000000E+00 -0.98460328839E+02  0.98460328839E+02  0.00000000000E+00 0. -1.
          6    1    1    2  502    0  0.63364291144E+02 -0.28399332909E+02  0.28690869635E+03  0.34215077896E+03  0.17300000000E+03 0. -1.
         -6    1    1    2    0  501 -0.63364291144E+02  0.28399332909E+02  0.51799422960E+02  0.19347799803E+03  0.17300000000E+03 0.  1.
</event>
<event>
 4    1  0.1082663E+000  0.1000000E+03  0.7546771E-02  0.1280296E+00
          2   -1    0    0  502    0  0.00000000000E+00  0.00000000000E+00  0.31672835124E+03  0.31672835124E+03  0.00000000000E+00 0.  1.
         -2   -1    0    0    0  501 -0.00000000000E+00 -0.00000000000E+00 -0.24989454073E+03  0.24989454073E+03  0.00000000000E+00 0. -1.
          6    1    1    2  502    0  0.35510682409E+02 -0.10594621402E+03 -0.15959177123E+03  0.26054585446E+03  0.17300000000E+03 0. -1.
         -6    1    1    2    0  501 -0.35510682409E+02  0.10594621402E+03  0.22642558173E+03  0.30607703751E+03  0.17300000000E+03 0.  1.
</event>
<event>
 4    1  0.1082663E+000  0.1000000E+03  0.7546771E-02  0.1280296E+00
          1   -1    0    0  502    0  0.00000000000E+00  0.00000000000E+00  0.34024125292E+03  0.34024125292E+03  0.00000000000E+00 0.  1.
         -1   -1    0    0    0  501 -0.00000000000E+00 -0.00000000000E+00 -0.98907554236E+02  0.98907554236E+02  0.00000000000E+00 0. -1.
          6    1    1    2  502    0 -0.11247830262E+02  0.11480451068E+02  0.19112518303E+03  0.25829469609E+03  0.17300000000E+03 0.  1.
         -6    1    1    2    0  501  0.11247830262E+02 -0.11480451068E+02  0.50208515650E+02  0.18085411106E+03  0.17300000000E+03 0. -1.
</event>
<event>
 4    1  0.1082663E+000  0.1000000E+03  0.7546771E-02  0.1280296E+00
         -2   -1    0    0    0  501 -0.00000000000E+00  0.00000000000E+00  0.38551540234E+03  0.38551540234E+03  0.00000000000E+00 0.  1.
          2   -1    0    0  502    0  0.00000000000E+00 -0.00000000000E+00 -0.10301171575E+03  0.10301171575E+03  0.00000000000E+00 0. -1.
          6    1    1    2  502    0  0.97878780143E+02  0.51362496420E+01  0.12494612673E+03  0.23483434852E+03  0.17300000000E+03 0. -1.
         -6    1    1    2    0  501 -0.97878780143E+02 -0.51362496420E+01  0.15755755986E+03  0.25369276957E+03  0.17300000000E+03 0.  1.
</event>
<event>
 4    1  0.1082663E+000  0.1000000E+03  0.7546771E-02  0.1280296E+00
         -1   -1    0    0    0  501 -0.00000000000E+00  0.00000000000E+00  0.18549699840E+03  0.18549699840E+03  0.00000000000E+00 0.  1.
          1   -1    0    0  502    0  0.00000000000E+00 -0.00000000000E+00 -0.36275057105E+03  0.36275057105E+03  0.00000000000E+00 0. -1.
          6    1    1    2  502    0  0.37489442432E+02  0.10141480590E+03  0.80684066571E+02  0.21938400066E+03  0.17300000000E+03 0. -1.
         -6    1    1    2    0  501 -0.37489442432E+02 -0.10141480590E+03 -0.25793763922E+03  0.32886356879E+03  0.17300000000E+03 0.  1.
</event>
<event>
 4    1  0.1082663E+000  0.1000000E+03  0.7546771E-02  0.1280296E+00
          1   -1    0    0  502    0  0.00000000000E+00  0.00000000000E+00  0.64815137791E+03  0.64815137791E+03  0.00000000000E+00 0. -1.
         -1   -1    0    0    0  501 -0.00000000000E+00 -0.00000000000E+00 -0.97955209910E+02  0.97955209910E+02  0.00000000000E+00 0.  1.
          6    1    1    2  502    0 -0.11268386127E+03  0.14430235163E+03  0.28445982399E+03  0.37995685642E+03  0.17300000000E+03 0. -1.
         -6    1    1    2    0  501  0.11268386127E+03 -0.14430235163E+03  0.26573634401E+03  0.36614973140E+03  0.17300000000E+03 0.  1.
</event>
<event>
 4    1  0.1082663E+000  0.1000000E+03  0.7546771E-02  0.1280296E+00
         -2   -1    0    0    0  501 -0.00000000000E+00  0.00000000000E+00  0.27917384517E+02  0.27917384517E+02  0.00000000000E+00 0.  1.
          2   -1    0    0  502    0  0.00000000000E+00 -0.00000000000E+00 -0.16711277679E+04  0.16711277679E+04  0.00000000000E+00 0. -1.
          6    1    1    2  502    0  0.39720415260E+02 -0.22186433845E+02 -0.34548211450E+03  0.38904606498E+03  0.17300000000E+03 0.  1.
         -6    1    1    2    0  501 -0.39720415260E+02  0.22186433845E+02 -0.12977282689E+04  0.13099990874E+04  0.17300000000E+03 0. -1.
</event>
<event>
 4    1  0.1082663E+000  0.1000000E+03  0.7546771E-02  0.1280296E+00
          2   -1    0    0  502    0  0.00000000000E+00  0.00000000000E+00  0.10977365075E+04  0.10977365075E+04  0.00000000000E+00 0.  1.
         -2   -1    0    0    0  501 -0.00000000000E+00 -0.00000000000E+00 -0.45942750995E+02  0.45942750995E+02  0.00000000000E+00 0. -1.
          6    1    1    2  502    0 -0.10611391232E+03  0.17566360397E+02  0.28519961093E+03  0.35048046662E+03  0.17300000000E+03 0.  1.
         -6    1    1    2    0  501  0.10611391232E+03 -0.17566360397E+02  0.76659414561E+03  0.79319879191E+03  0.17300000000E+03 0. -1.
</event>
<event>
 4    1  0.1082663E+000  0.1000000E+03  0.7546771E-02  0.1280296E+00
          1   -1    0    0  502    0  0.00000000000E+00  0.00000000000E+00  0.89243045004E+03  0.89243045004E+03  0.00000000000E+00 0.  1.
         -1   -1    0    0    0  501 -0.00000000000E+00 -0.00000000000E+00 -0.18097908859E+03  0.18097908859E+03  0.00000000000E+00 0. -1.
          6    1    1    2  502    0 -0.22456321416E+03  0.17757008325E+03  0.58235052076E+02  0.33952922246E+03  0.17300000000E+03 0. -1.
         -6    1    1    2    0  501  0.22456321416E+03 -0.17757008325E+03  0.65321630938E+03  0.73388031617E+03  0.17300000000E+03 0.  1.
</event>
<event>
 4    1  0.1082663E+000  0.1000000E+03  0.7546771E-02  0.1280296E+00
          2   -1    0    0  502    0  0.00000000000E+00  0.00000000000E+00  0.10388868773E+04  0.10388868773E+04  0.00000000000E+00 0. -1.
         -2   -1    0    0    0  501 -0.00000000000E+00 -0.00000000000E+00 -0.40819896174E+02  0.40819896174E+02  0.00000000000E+00 0.  1.
          6    1    1    2  502    0  0.44675617375E+02 -0.44419176537E+02  0.25720794820E+03  0.31631298211E+03  0.17300000000E+03 0.  1.
         -6    1    1    2    0  501 -0.44675617375E+02  0.44419176537E+02  0.74085903297E+03  0.76339379141E+03  0.17300000000E+03 0. -1.
</event>
<event>
 4    1  0.1082663E+000  0.1000000E+03  0.7546771E-02  0.1280296E+00
          3   -1    0    0  502    0  0.00000000000E+00  0.00000000000E+00  0.55500253456E+02  0.55500253456E+02  0.00000000000E+00 0.  1.
         -3   -1    0    0    0  501 -0.00000000000E+00 -0.00000000000E+00 -0.11067778859E+04  0.11067778859E+04  0.00000000000E+00 0. -1.
          6    1    1    2  502    0 -0.47503917942E+02  0.28500702140E+02 -0.92098690119E+03  0.93873041093E+03  0.17300000000E+03 0. -1.
         -6    1    1    2    0  501  0.47503917942E+02 -0.28500702140E+02 -0.13029073130E+03  0.22354772847E+03  0.17300000000E+03 0.  1.
</event>
<event>
 4    1  0.1082663E+000  0.1000000E+03  0.7546771E-02  0.1280296E+00
          2   -1    0    0  502    0  0.00000000000E+00  0.00000000000E+00  0.96988965249E+03  0.96988965249E+03  0.00000000000E+00 0. -1.
         -2   -1    0    0    0  501 -0.00000000000E+00 -0.00000000000E+00 -0.22596939676E+03  0.22596939676E+03  0.00000000000E+00 0.  1.
          6    1    1    2  502    0 -0.54667875884E+02 -0.13312349463E+03 -0.15236104956E+03  0.27175969330E+03  0.17300000000E+03 0.  1.
         -6    1    1    2    0  501  0.54667875884E+02  0.13312349463E+03  0.89628130529E+03  0.92409935596E+03  0.17300000000E+03 0.  1.
</event>
<event>
 4    1  0.1082663E+000  0.1000000E+03  0.7546771E-02  0.1280296E+00
         -2   -1    0    0    0  501 -0.00000000000E+00  0.00000000000E+00  0.79934101032E+02  0.79934101032E+02  0.00000000000E+00 0. -1.
          2   -1    0    0  502    0  0.00000000000E+00 -0.00000000000E+00 -0.77989597781E+03  0.77989597781E+03  0.00000000000E+00 0.  1.
          6    1    1    2  502    0  0.12027055134E+03  0.12771835498E+03 -0.28037213587E+03  0.37324860119E+03  0.17300000000E+03 0.  1.
         -6    1    1    2    0  501 -0.12027055134E+03 -0.12771835498E+03 -0.41958974091E+03  0.48658147765E+03  0.17300000000E+03 0. -1.
</event>
<event>
 4    1  0.1082663E+000  0.1000000E+03  0.7546771E-02  0.1280296E+00
         -2   -1    0    0    0  501 -0.00000000000E+00  0.00000000000E+00  0.57206856536E+02  0.57206856536E+02  0.00000000000E+00 0. -1.
          2   -1    0    0  502    0  0.00000000000E+00 -0.00000000000E+00 -0.10221684182E+04  0.10221684182E+04  0.00000000000E+00 0.  1.
          6    1    1    2  502    0  0.13183534283E+03 -0.10317797554E+03 -0.43159797226E+03  0.49419840339E+03  0.17300000000E+03 0.  1.
         -6    1    1    2    0  501 -0.13183534283E+03  0.10317797554E+03 -0.53336358942E+03  0.58517687136E+03  0.17300000000E+03 0. -1.
</event>
<event>
 4    1  0.1082663E+000  0.1000000E+03  0.7546771E-02  0.1280296E+00
         -2   -1    0    0    0  501 -0.00000000000E+00  0.00000000000E+00  0.48378535270E+02  0.48378535270E+02  0.00000000000E+00 0. -1.
          2   -1    0    0  502    0  0.00000000000E+00 -0.00000000000E+00 -0.76989766656E+03  0.76989766656E+03  0.00000000000E+00 0.  1.
          6    1    1    2  502    0 -0.56288598143E+02  0.58342880280E+02 -0.41863180978E+03  0.46016724146E+03  0.17300000000E+03 0.  1.
         -6    1    1    2    0  501  0.56288598143E+02 -0.58342880280E+02 -0.30288732151E+03  0.35810896036E+03  0.17300000000E+03 0. -1.
</event>
<event>
 4    1  0.1082663E+000  0.1000000E+03  0.7546771E-02  0.1280296E+00
          1   -1    0    0  502    0  0.00000000000E+00  0.00000000000E+00  0.19905516634E+03  0.19905516634E+03  0.00000000000E+00 0. -1.
         -1   -1    0    0    0  501 -0.00000000000E+00 -0.00000000000E+00 -0.29254784780E+03  0.29254784780E+03  0.00000000000E+00 0.  1.
          6    1    1    2  502    0 -0.86717211500E+02  0.10043514989E+03  0.58602971942E+02  0.22576625617E+03  0.17300000000E+03 0.  1.
         -6    1    1    2    0  501  0.86717211500E+02 -0.10043514989E+03 -0.15209565340E+03  0.26583675797E+03  0.17300000000E+03 0.  1.
</event>
<event>
 4    1  0.1082663E+000  0.1000000E+03  0.7546771E-02  0.1280296E+00
          2   -1    0    0  502    0  0.00000000000E+00  0.00000000000E+00  0.22857219568E+04  0.22857219568E+04  0.00000000000E+00 0. -1.
         -2   -1    0    0    0  501 -0.00000000000E+00 -0.00000000000E+00 -0.32224091290E+02  0.32224091290E+02  0.00000000000E+00 0.  1.
          6    1    1    2  502    0 -0.11453642095E+03  0.14983152818E+03  0.74103140150E+03  0.78397998481E+03  0.17300000000E+03 0.  1.
         -6    1    1    2    0  501  0.11453642095E+03 -0.14983152818E+03  0.15124664640E+04  0.15339660632E+04  0.17300000000E+03 0.  1.
</event>
<event>
 4    1  0.1082663E+000  0.1000000E+03  0.7546771E-02  0.1280296E+00
          2   -1    0    0  502    0  0.00000000000E+00  0.00000000000E+00  0.50407983297E+03  0.50407983297E+03  0.00000000000E+00 0.  1.
         -2   -1    0    0    0  501 -0.00000000000E+00 -0.00000000000E+00 -0.12920951773E+03  0.12920951773E+03  0.00000000000E+00 0. -1.
          6    1    1    2  502    0  0.22140612944E+02  0.44001213337E+01 -0.43663997852E+02  0.17984747015E+03  0.17300000000E+03 0. -1.
         -6    1    1    2    0  501 -0.22140612944E+02 -0.44001213337E+01  0.41853431309E+03  0.45344188055E+03  0.17300000000E+03 0.  1.
</event>
<event>
 4    1  0.1082663E+000  0.1000000E+03  0.7546771E-02  0.1280296E+00
         -1   -1    0    0    0  501 -0.00000000000E+00  0.00000000000E+00  0.17086207955E+02  0.17086207955E+02  0.00000000000E+00 0. -1.
          1   -1    0    0  502    0  0.00000000000E+00 -0.00000000000E+00 -0.19894216788E+04  0.19894216788E+04  0.00000000000E+00 0.  1.
          6    1    1    2  502    0  0.66067469101E-01  0.59834406711E+02 -0.11056982072E+04  0.11207487167E+04  0.17300000000E+03 0.  1.
         -6    1    1    2    0  501 -0.66067469101E-01 -0.59834406711E+02 -0.86663726370E+03  0.88575917011E+03  0.17300000000E+03 0. -1.
</event>
<event>
 4    1  0.1082663E+000  0.1000000E+03  0.7546771E-02  0.1280296E+00
         -2   -1    0    0    0  501 -0.00000000000E+00  0.00000000000E+00  0.63064892680E+02  0.63064892680E+02  0.00000000000E+00 0. -1.
          2   -1    0    0  502    0  0.00000000000E+00 -0.00000000000E+00 -0.11956111733E+04  0.11956111733E+04  0.00000000000E+00 0.  1.
          6    1    1    2  502    0 -0.45459364750E+02 -0.17128746221E+03 -0.83809392427E+03  0.87392011904E+03  0.17300000000E+03 0.  1.
         -6    1    1    2    0  501  0.45459364750E+02  0.17128746221E+03 -0.29445235636E+03  0.38475594696E+03  0.17300000000E+03 0. -1.
</event>
<event>
 4    1  0.1082663E+000  0.1000000E+03  0.7546771E-02  0.1280296E+00
         -2   -1    0    0    0  501 -0.00000000000E+00  0.00000000000E+00  0.18333697391E+03  0.18333697391E+03  0.00000000000E+00 0. -1.
          2   -1    0    0  502    0  0.00000000000E+00 -0.00000000000E+00 -0.19511010863E+03  0.19511010863E+03  0.00000000000E+00 0.  1.
          6    1    1    2  502    0  0.16465748755E+02 -0.70570926337E+02 -0.30198959553E+02  0.18997987705E+03  0.17300000000E+03 0. -1.
         -6    1    1    2    0  501 -0.16465748755E+02  0.70570926337E+02  0.18425824829E+02  0.18846720549E+03  0.17300000000E+03 0.  1.
</event>
<event>
 4    1  0.1082663E+000  0.1000000E+03  0.7546771E-02  0.1280296E+00
         -2   -1    0    0    0  501 -0.00000000000E+00  0.00000000000E+00  0.62016378044E+02  0.62016378044E+02  0.00000000000E+00 0. -1.
          2   -1    0    0  502    0  0.00000000000E+00 -0.00000000000E+00 -0.10279876524E+04  0.10279876524E+04  0.00000000000E+00 0.  1.
          6    1    1    2  502    0 -0.57878608692E+02 -0.85144353466E+02 -0.15404652766E+03  0.25349324834E+03  0.17300000000E+03 0. -1.
         -6    1    1    2    0  501  0.57878608692E+02  0.85144353466E+02 -0.81192474667E+03  0.83651078208E+03  0.17300000000E+03 0.  1.
</event>
<event>
 4    1  0.1082663E+000  0.1000000E+03  0.7546771E-02  0.1280296E+00
          1   -1    0    0  502    0  0.00000000000E+00  0.00000000000E+00  0.34581094295E+03  0.34581094295E+03  0.00000000000E+00 0.  1.
         -1   -1    0    0    0  501 -0.00000000000E+00 -0.00000000000E+00 -0.30387547769E+03  0.30387547769E+03  0.00000000000E+00 0. -1.
          6    1    1    2  502    0  0.13886223839E+03  0.10207694034E+03  0.23460809329E+03  0.33863310593E+03  0.17300000000E+03 0.  1.
         -6    1    1    2    0  501 -0.13886223839E+03 -0.10207694034E+03 -0.19267262803E+03  0.31105331471E+03  0.17300000000E+03 0. -1.
</event>
<event>
 4    1  0.1082663E+000  0.1000000E+03  0.7546771E-02  0.1280296E+00
          2   -1    0    0  502    0  0.00000000000E+00  0.00000000000E+00  0.24095275556E+04  0.24095275556E+04  0.00000000000E+00 0.  1.
         -2   -1    0    0    0  501 -0.00000000000E+00 -0.00000000000E+00 -0.21888928303E+02  0.21888928303E+02  0.00000000000E+00 0. -1.
          6    1    1    2  502    0  0.31107539090E+02  0.80797481869E+02  0.18489665665E+04  0.18590595139E+04  0.17300000000E+03 0.  1.
         -6    1    1    2    0  501 -0.31107539090E+02 -0.80797481869E+02  0.53867206077E+03  0.57235697001E+03  0.17300000000E+03 0. -1.
</event>
<event>
 4    1  0.1082663E+000  0.1000000E+03  0.7546771E-02  0.1280296E+00
          1   -1    0    0  502    0  0.00000000000E+00  0.00000000000E+00  0.24101873760E+04  0.24101873760E+04  0.00000000000E+00 0.  1.
         -1   -1    0    0    0  501 -0.00000000000E+00 -0.00000000000E+00 -0.63000174416E+02  0.63000174416E+02  0.00000000000E+00 0. -1.
          6    1    1    2  502    0  0.28818171726E+03  0.18999277896E+03  0.13405320198E+04  0.13950272594E+04  0.17300000000E+03 0.  1.
         -6    1    1    2    0  501 -0.28818171726E+03 -0.18999277896E+03  0.10066551818E+04  0.10781602910E+04  0.17300000000E+03 0. -1.
</event>
<event>
 4    1  0.1082663E+000  0.1000000E+03  0.7546771E-02  0.1280296E+00
         -1   -1    0    0    0  501 -0.00000000000E+00  0.00000000000E+00  0.55957889821E+02  0.55957889821E+02  0.00000000000E+00 0.  1.
          1   -1    0    0  502    0  0.00000000000E+00 -0.00000000000E+00 -0.29828967113E+04  0.29828967113E+04  0.00000000000E+00 0. -1.
          6    1    1    2  502    0  0.17290263875E+03 -0.22218862256E+03 -0.23570016764E+04  0.23800523122E+04  0.17300000000E+03 0. -1.
         -6    1    1    2    0  501 -0.17290263875E+03  0.22218862256E+03 -0.56993714506E+03  0.65880228886E+03  0.17300000000E+03 0. -1.
</event>
<event>
 4    1  0.1082663E+000  0.1000000E+03  0.7546771E-02  0.1280296E+00
         -2   -1    0    0    0  501 -0.00000000000E+00  0.00000000000E+00  0.20360185400E+03  0.20360185400E+03  0.00000000000E+00 0.  1.
          2   -1    0    0  502    0  0.00000000000E+00 -0.00000000000E+00 -0.20454728741E+03  0.20454728741E+03  0.00000000000E+00 0. -1.
          6    1    1    2  502    0  0.52330916608E+02 -0.66971163794E+02 -0.67506808365E+02  0.20422984794E+03  0.17300000000E+03 0. -1.
         -6    1    1    2    0  501 -0.52330916608E+02  0.66971163794E+02  0.66561374964E+02  0.20391929347E+03  0.17300000000E+03 0. -1.
</event>
<event>
 4    1  0.1082663E+000  0.1000000E+03  0.7546771E-02  0.1280296E+00
          3   -1    0    0  502    0  0.00000000000E+00  0.00000000000E+00  0.16629779930E+03  0.16629779930E+03  0.00000000000E+00 0. -1.
         -3   -1    0    0    0  501 -0.00000000000E+00 -0.00000000000E+00 -0.22402591944E+03  0.22402591944E+03  0.00000000000E+00 0.  1.
          6    1    1    2  502    0  0.31232298736E+02  0.58876002645E+02  0.25437653294E+02  0.18713074140E+03  0.17300000000E+03 0. -1.
         -6    1    1    2    0  501 -0.31232298736E+02 -0.58876002645E+02 -0.83165773436E+02  0.20319297735E+03  0.17300000000E+03 0.  1.
</event>
<event>
 4    1  0.1082663E+000  0.1000000E+03  0.7546771E-02  0.1280296E+00
          2   -1    0    0  502    0  0.00000000000E+00  0.00000000000E+00  0.76216393364E+02  0.76216393364E+02  0.00000000000E+00 0. -1.
         -2   -1    0    0    0  501 -0.00000000000E+00 -0.00000000000E+00 -0.57027900571E+03  0.57027900571E+03  0.00000000000E+00 0.  1.
          6    1    1    2  502    0 -0.33966942550E+02  0.66755545074E+02 -0.38506412041E+03  0.42873468814E+03  0.17300000000E+03 0. -1.
         -6    1    1    2    0  501  0.33966942550E+02 -0.66755545074E+02 -0.10899849194E+03  0.21776071094E+03  0.17300000000E+03 0.  1.
</event>
<event>
 4    1  0.1082663E+000  0.1000000E+03  0.7546771E-02  0.1280296E+00
          2   -1    0    0  502    0  0.00000000000E+00  0.00000000000E+00  0.27447465444E+03  0.27447465444E+03  0.00000000000E+00 0. -1.
         -2   -1    0    0    0  501 -0.00000000000E+00 -0.00000000000E+00 -0.18656178681E+03  0.18656178681E+03  0.00000000000E+00 0.  1.
          6    1    1    2  502    0 -0.10420880531E+03 -0.14214829160E+02  0.14691964348E+03  0.25015179015E+03  0.17300000000E+03 0. -1.
         -6    1    1    2    0  501  0.10420880531E+03  0.14214829160E+02 -0.59006775850E+02  0.21088465110E+03  0.17300000000E+03 0.  1.
</event>
<event>
 4    1  0.1082663E+000  0.1000000E+03  0.7546771E-02  0.1280296E+00
          2   -1    0    0  502    0  0.00000000000E+00  0.00000000000E+00  0.37677709123E+04  0.37677709123E+04  0.00000000000E+00 0. -1.
         -2   -1    0    0    0  501 -0.00000000000E+00 -0.00000000000E+00 -0.98113677170E+01  0.98113677170E+01  0.00000000000E+00 0.  1.
          6    1    1    2  502    0  0.16580091332E+02  0.71610032906E+02  0.22762149499E+04  0.22839628706E+04  0.17300000000E+03 0. -1.
         -6    1    1    2    0  501 -0.16580091332E+02 -0.71610032906E+02  0.14817445946E+04  0.14936194093E+04  0.17300000000E+03 0.  1.
</event>
<event>
 4    1  0.1082663E+000  0.1000000E+03  0.7546771E-02  0.1280296E+00
          2   -1    0    0  502    0  0.00000000000E+00  0.00000000000E+00  0.30838875248E+03  0.30838875248E+03  0.00000000000E+00 0.  1.
         -2   -1    0    0    0  501 -0.00000000000E+00 -0.00000000000E+00 -0.22915617200E+03  0.22915617200E+03  0.00000000000E+00 0. -1.
          6    1    1    2  502    0  0.17804402048E+03  0.15286013854E+02 -0.55264881388E+02  0.25478724961E+03  0.17300000000E+03 0. -1.
         -6    1    1    2    0  501 -0.17804402048E+03 -0.15286013854E+02  0.13449746186E+03  0.28275767487E+03  0.17300000000E+03 0.  1.
</event>
<event>
 4    1  0.1082663E+000  0.1000000E+03  0.7546771E-02  0.1280296E+00
          2   -1    0    0  502    0  0.00000000000E+00  0.00000000000E+00  0.10168412612E+04  0.10168412612E+04  0.00000000000E+00 0.  1.
         -2   -1    0    0    0  501 -0.00000000000E+00 -0.00000000000E+00 -0.87490524096E+02  0.87490524096E+02  0.00000000000E+00 0. -1.
          6    1    1    2  502    0  0.23195262519E+03 -0.29820041905E+02  0.58668479359E+03  0.65484296000E+03  0.17300000000E+03 0. -1.
         -6    1    1    2    0  501 -0.23195262519E+03  0.29820041905E+02  0.34266594355E+03  0.44948882533E+03  0.17300000000E+03 0.  1.
</event>
<event>
 4    1  0.1082663E+000  0.1000000E+03  0.7546771E-02  0.1280296E+00
          2   -1    0    0  502    0  0.00000000000E+00  0.00000000000E+00  0.10705856103E+04  0.10705856103E+04  0.00000000000E+00 0.  1.
         -2   -1    0    0    0  501 -0.00000000000E+00 -0.00000000000E+00 -0.42265963940E+02  0.42265963940E+02  0.00000000000E+00 0. -1.
          6    1    1    2  502    0 -0.31852424511E+01  0.12267343576E+03  0.55645263588E+03  0.59550604832E+03  0.17300000000E+03 0. -1.
         -6    1    1    2    0  501  0.31852424511E+01 -0.12267343576E+03  0.47186701052E+03  0.51734552596E+03  0.17300000000E+03 0.  1.
</event>
<event>
 4    1  0.1082663E+000  0.1000000E+03  0.7546771E-02  0.1280296E+00
          1   -1    0    0  502    0  0.00000000000E+00  0.00000000000E+00  0.81983024333E+03  0.81983024333E+03  0.00000000000E+00 0. -1.
         -1   -1    0    0    0  501 -0.00000000000E+00 -0.00000000000E+00 -0.42618818707E+02  0.42618818707E+02  0.00000000000E+00 0.  1.
          6    1    1    2  502    0 -0.52938897977E+02  0.52173975759E+01  0.28085671071E+03  0.33412458770E+03  0.17300000000E+03 0.  1.
         -6    1    1    2    0  501  0.52938897977E+02 -0.52173975759E+01  0.49635471392E+03  0.52832447434E+03  0.17300000000E+03 0. -1.
</event>
<event>
 4    1  0.1082663E+000  0.1000000E+03  0.7546771E-02  0.1280296E+00
          2   -1    0    0  502    0  0.00000000000E+00  0.00000000000E+00  0.42970220861E+03  0.42970220861E+03  0.00000000000E+00 0. -1.
         -2   -1    0    0    0  501 -0.00000000000E+00 -0.00000000000E+00 -0.24916227970E+03  0.24916227970E+03  0.00000000000E+00 0.  1.
          6    1    1    2  502    0 -0.25153790283E+01  0.84194304506E+02 -0.18427033479E+03  0.26641990227E+03  0.17300000000E+03 0.  1.
         -6    1    1    2    0  501  0.25153790283E+01 -0.84194304506E+02  0.36481026371E+03  0.41244458603E+03  0.17300000000E+03 0. -1.
</event>
<event>
 4    1  0.1082663E+000  0.1000000E+03  0.7546771E-02  0.1280296E+00
         -3   -1    0    0    0  501 -0.00000000000E+00  0.00000000000E+00  0.44762952349E+02  0.44762952349E+02  0.00000000000E+00 0.  1.
          3   -1    0    0  502    0  0.00000000000E+00 -0.00000000000E+00 -0.73326877851E+03  0.73326877851E+03  0.00000000000E+00 0. -1.
          6    1    1    2  502    0  0.11363208899E+02  0.18055357286E+02 -0.23820644017E+03  0.29517185940E+03  0.17300000000E+03 0. -1.
         -6    1    1    2    0  501 -0.11363208899E+02 -0.18055357286E+02 -0.45029938599E+03  0.48285987146E+03  0.17300000000E+03 0.  1.
</event>
<event>
 4    1  0.1082663E+000  0.1000000E+03  0.7546771E-02  0.1280296E+00
          2   -1    0    0  502    0  0.00000000000E+00  0.00000000000E+00  0.85307393119E+03  0.85307393119E+03  0.00000000000E+00 0. -1.
         -2   -1    0    0    0  501 -0.00000000000E+00 -0.00000000000E+00 -0.47662078701E+02  0.47662078701E+02  0.00000000000E+00 0.  1.
          6    1    1    2  502    0  0.72747467665E+02 -0.67399546093E+02  0.33587270948E+03  0.39060769301E+03  0.17300000000E+03 0. -1.
         -6    1    1    2    0  501 -0.72747467665E+02  0.67399546093E+02  0.46953914300E+03  0.51012831688E+03  0.17300000000E+03 0.  1.
</event>
<event>
 4    1  0.1082663E+000  0.1000000E+03  0.7546771E-02  0.1280296E+00
          2   -1    0    0  502    0  0.00000000000E+00  0.00000000000E+00  0.36753998937E+04  0.36753998937E+04  0.00000000000E+00 0. -1.
         -2   -1    0    0    0  501 -0.00000000000E+00 -0.00000000000E+00 -0.11574759071E+02  0.11574759071E+02  0.00000000000E+00 0.  1.
          6    1    1    2  502    0 -0.51719455279E+02  0.26908335039E+02  0.97397871210E+03  0.99094020615E+03  0.17300000000E+03 0. -1.
         -6    1    1    2    0  501  0.51719455279E+02 -0.26908335039E+02  0.26898464226E+04  0.26960344467E+04  0.17300000000E+03 0.  1.
</event>
<event>
 4    1  0.1082663E+000  0.1000000E+03  0.7546771E-02  0.1280296E+00
         -1   -1    0    0    0  501 -0.00000000000E+00  0.00000000000E+00  0.13732462147E+03  0.13732462147E+03  0.00000000000E+00 0.  1.
          1   -1    0    0  502    0  0.00000000000E+00 -0.00000000000E+00 -0.45820894373E+03  0.45820894373E+03  0.00000000000E+00 0. -1.
          6    1    1    2  502    0  0.17418203511E+03  0.45529313048E+02 -0.13180315849E+03  0.28233556682E+03  0.17300000000E+03 0. -1.
         -6    1    1    2    0  501 -0.17418203511E+03 -0.45529313048E+02 -0.18908116377E+03  0.31319799839E+03  0.17300000000E+03 0.  1.
</event>
<event>
 4    1  0.1082663E+000  0.1000000E+03  0.7546771E-02  0.1280296E+00
         -1   -1    0    0    0  501 -0.00000000000E+00  0.00000000000E+00  0.54629506829E+02  0.54629506829E+02  0.00000000000E+00 0. -1.
          1   -1    0    0  502    0  0.00000000000E+00 -0.00000000000E+00 -0.61786575570E+03  0.61786575570E+03  0.00000000000E+00 0.  1.
          6    1    1    2  502    0 -0.26081392862E+02 -0.40192309129E+02 -0.35318434147E+03  0.39618662247E+03  0.17300000000E+03 0. -1.
         -6    1    1    2    0  501  0.26081392862E+02  0.40192309129E+02 -0.21005190740E+03  0.27630864005E+03  0.17300000000E+03 0.  1.
</event>
<event>
 4    1  0.1082663E+000  0.1000000E+03  0.7546771E-02  0.1280296E+00
         -2   -1    0    0    0  501 -0.00000000000E+00  0.00000000000E+00  0.32332140907E+02  0.32332140907E+02  0.00000000000E+00 0. -1.
          2   -1    0    0  502    0  0.00000000000E+00 -0.00000000000E+00 -0.13031058893E+04  0.13031058893E+04  0.00000000000E+00 0.  1.
          6    1    1    2  502    0 -0.66508104403E+02 -0.69074302958E+02 -0.45695598670E+03  0.49792806816E+03  0.17300000000E+03 0.  1.
         -6    1    1    2    0  501  0.66508104403E+02  0.69074302958E+02 -0.81381776166E+03  0.83750996201E+03  0.17300000000E+03 0. -1.
</event>
<event>
 4    1  0.1082663E+000  0.1000000E+03  0.7546771E-02  0.1280296E+00
         -2   -1    0    0    0  501 -0.00000000000E+00  0.00000000000E+00  0.70115624138E+02  0.70115624138E+02  0.00000000000E+00 0. -1.
          2   -1    0    0  502    0  0.00000000000E+00 -0.00000000000E+00 -0.11458434460E+04  0.11458434460E+04  0.00000000000E+00 0.  1.
          6    1    1    2  502    0 -0.13046366797E+03 -0.17782948640E+03 -0.62806531163E+03  0.68777840222E+03  0.17300000000E+03 0.  1.
         -6    1    1    2    0  501  0.13046366797E+03  0.17782948640E+03 -0.44766251022E+03  0.52818066790E+03  0.17300000000E+03 0. -1.
</event>
<event>
 4    1  0.1082663E+000  0.1000000E+03  0.7546771E-02  0.1280296E+00
          1   -1    0    0  502    0  0.00000000000E+00  0.00000000000E+00  0.25419621669E+03  0.25419621669E+03  0.00000000000E+00 0.  1.
         -1   -1    0    0    0  501 -0.00000000000E+00 -0.00000000000E+00 -0.20056908092E+03  0.20056908092E+03  0.00000000000E+00 0. -1.
          6    1    1    2  502    0  0.17534945464E+02 -0.14061706499E+03 -0.46190149250E+01  0.22367603488E+03  0.17300000000E+03 0. -1.
         -6    1    1    2    0  501 -0.17534945464E+02  0.14061706499E+03  0.58246150695E+02  0.23108926273E+03  0.17300000000E+03 0.  1.
</event>
<event>
 4    1  0.1082663E+000  0.1000000E+03  0.7546771E-02  0.1280296E+00
          2   -1    0    0  502    0  0.00000000000E+00  0.00000000000E+00  0.92498546520E+03  0.92498546520E+03  0.00000000000E+00 0.  1.
         -2   -1    0    0    0  501 -0.00000000000E+00 -0.00000000000E+00 -0.47593064923E+02  0.47593064923E+02  0.00000000000E+00 0. -1.
          6    1    1    2  502    0  0.60683200340E+02  0.97568150159E+02  0.50791325636E+03  0.54873205730E+03  0.17300000000E+03 0. -1.
         -6    1    1    2    0  501 -0.60683200340E+02 -0.97568150159E+02  0.36947914392E+03  0.42384647282E+03  0.17300000000E+03 0.  1.
</event>
<event>
 4    1  0.1082663E+000  0.1000000E+03  0.7546771E-02  0.1280296E+00
          2   -1    0    0  502    0  0.00000000000E+00  0.00000000000E+00  0.11208026040E+04  0.11208026040E+04  0.00000000000E+00 0.  1.
         -2   -1    0    0    0  501 -0.00000000000E+00 -0.00000000000E+00 -0.42430106992E+02  0.42430106992E+02  0.00000000000E+00 0. -1.
          6    1    1    2  502    0  0.23990240549E+02 -0.20254443062E+02  0.88323873106E+03  0.90056950323E+03  0.17300000000E+03 0. -1.
         -6    1    1    2    0  501 -0.23990240549E+02  0.20254443062E+02  0.19513376600E+03  0.26266320781E+03  0.17300000000E+03 0.  1.
</event>
<event>
 4    1  0.1082663E+000  0.1000000E+03  0.7546771E-02  0.1280296E+00
         -2   -1    0    0    0  501 -0.00000000000E+00  0.00000000000E+00  0.53970774349E+03  0.53970774349E+03  0.00000000000E+00 0.  1.
          2   -1    0    0  502    0  0.00000000000E+00 -0.00000000000E+00 -0.17638383720E+03  0.17638383720E+03  0.00000000000E+00 0. -1.
          6    1    1    2  502    0  0.61386531905E+02  0.20889956894E+03  0.26579335470E+02  0.27936140979E+03  0.17300000000E+03 0. -1.
         -6    1    1    2    0  501 -0.61386531905E+02 -0.20889956894E+03  0.33674457082E+03  0.43673017090E+03  0.17300000000E+03 0.  1.
</event>
<event>
 4    1  0.1082663E+000  0.1000000E+03  0.7546771E-02  0.1280296E+00
         -2   -1    0    0    0  501 -0.00000000000E+00  0.00000000000E+00  0.34311399759E+03  0.34311399759E+03  0.00000000000E+00 0.  1.
          2   -1    0    0  502    0  0.00000000000E+00 -0.00000000000E+00 -0.16383519541E+03  0.16383519541E+03  0.00000000000E+00 0. -1.
          6    1    1    2  502    0  0.48807040953E+02  0.35841710730E+02  0.25042327829E+03  0.31033461584E+03  0.17300000000E+03 0. -1.
         -6    1    1    2    0  501 -0.48807040953E+02 -0.35841710730E+02 -0.71144476116E+02  0.19661457717E+03  0.17300000000E+03 0.  1.
</event>
<event>
 4    1  0.1082663E+000  0.1000000E+03  0.7546771E-02  0.1280296E+00
         -2   -1    0    0    0  501 -0.00000000000E+00  0.00000000000E+00  0.24068095508E+02  0.24068095508E+02  0.00000000000E+00 0.  1.
          2   -1    0    0  502    0  0.00000000000E+00 -0.00000000000E+00 -0.13523512065E+04  0.13523512065E+04  0.00000000000E+00 0. -1.
          6    1    1    2  502    0 -0.32285856687E+02  0.32362577994E+02 -0.75194532799E+03  0.77294274644E+03  0.17300000000E+03 0. -1.
         -6    1    1    2    0  501  0.32285856687E+02 -0.32362577994E+02 -0.57633778297E+03  0.60347655553E+03  0.17300000000E+03 0.  1.
</event>
<event>
 4    1  0.1082663E+000  0.1000000E+03  0.7546771E-02  0.1280296E+00
          3   -1    0    0  502    0  0.00000000000E+00  0.00000000000E+00  0.96272071651E+03  0.96272071651E+03  0.00000000000E+00 0. -1.
         -3   -1    0    0    0  501 -0.00000000000E+00 -0.00000000000E+00 -0.10781488300E+03  0.10781488300E+03  0.00000000000E+00 0.  1.
          6    1    1    2  502    0 -0.15846010260E+03  0.11254107452E+03  0.11181860283E+03  0.28320928217E+03  0.17300000000E+03 0. -1.
         -6    1    1    2    0  501  0.15846010260E+03 -0.11254107452E+03  0.74308723068E+03  0.78732631733E+03  0.17300000000E+03 0.  1.
</event>
<event>
 4    1  0.1082663E+000  0.1000000E+03  0.7546771E-02  0.1280296E+00
          2   -1    0    0  502    0  0.00000000000E+00  0.00000000000E+00  0.55648090352E+03  0.55648090352E+03  0.00000000000E+00 0. -1.
         -2   -1    0    0    0  501 -0.00000000000E+00 -0.00000000000E+00 -0.25605355092E+03  0.25605355092E+03  0.00000000000E+00 0.  1.
          6    1    1    2  502    0 -0.13896745764E+02 -0.29311111447E+03  0.32526120480E+03  0.47098948641E+03  0.17300000000E+03 0. -1.
         -6    1    1    2    0  501  0.13896745764E+02  0.29311111447E+03 -0.24833852201E+02  0.34154496802E+03  0.17300000000E+03 0.  1.
</event>
<event>
 4    1  0.1082663E+000  0.1000000E+03  0.7546771E-02  0.1280296E+00
          1   -1    0    0  502    0  0.00000000000E+00  0.00000000000E+00  0.20442872156E+03  0.20442872156E+03  0.00000000000E+00 0.  1.
         -1   -1    0    0    0  501 -0.00000000000E+00 -0.00000000000E+00 -0.27194246270E+03  0.27194246270E+03  0.00000000000E+00 0. -1.
          6    1    1    2  502    0 -0.16092213711E+02  0.75852339066E+02  0.10785570053E+03  0.21811554007E+03  0.17300000000E+03 0.  1.
         -6    1    1    2    0  501  0.16092213711E+02 -0.75852339066E+02 -0.17536944167E+03  0.25825564419E+03  0.17300000000E+03 0. -1.
</event>
<event>
 4    1  0.1082663E+000  0.1000000E+03  0.7546771E-02  0.1280296E+00
          2   -1    0    0  502    0  0.00000000000E+00  0.00000000000E+00  0.73897476623E+03  0.73897476623E+03  0.00000000000E+00 0.  1.
         -2   -1    0    0    0  501 -0.00000000000E+00 -0.00000000000E+00 -0.63700112402E+02  0.63700112402E+02  0.00000000000E+00 0. -1.
          6    1    1    2  502    0 -0.11592271782E+03 -0.59826956354E+02  0.35843704729E+03  0.41883583668E+03  0.17300000000E+03 0.  1.
         -6    1    1    2    0  501  0.11592271782E+03  0.59826956354E+02  0.31683760654E+03  0.38383904196E+03  0.17300000000E+03 0. -1.
</event>
<event>
 4    1  0.1082663E+000  0.1000000E+03  0.7546771E-02  0.1280296E+00
         -2   -1    0    0    0  501 -0.00000000000E+00  0.00000000000E+00  0.10620503254E+03  0.10620503254E+03  0.00000000000E+00 0. -1.
          2   -1    0    0  502    0  0.00000000000E+00 -0.00000000000E+00 -0.43061444911E+03  0.43061444911E+03  0.00000000000E+00 0.  1.
          6    1    1    2  502    0  0.34323631843E+02  0.33789414234E+02 -0.30795190952E+03  0.35648732768E+03  0.17300000000E+03 0. -1.
         -6    1    1    2    0  501 -0.34323631843E+02 -0.33789414234E+02 -0.16457507046E+02  0.18033215397E+03  0.17300000000E+03 0.  1.
</event>
<event>
 4    1  0.1082663E+000  0.1000000E+03  0.7546771E-02  0.1280296E+00
         -2   -1    0    0    0  501 -0.00000000000E+00  0.00000000000E+00  0.64665349329E+02  0.64665349329E+02  0.00000000000E+00 0. -1.
          2   -1    0    0  502    0  0.00000000000E+00 -0.00000000000E+00 -0.93981938005E+03  0.93981938005E+03  0.00000000000E+00 0.  1.
          6    1    1    2  502    0  0.84445930000E+02  0.11920183022E+03 -0.63619623575E+03  0.67528870996E+03  0.17300000000E+03 0. -1.
         -6    1    1    2    0  501 -0.84445930000E+02 -0.11920183022E+03 -0.23895779497E+03  0.32919601942E+03  0.17300000000E+03 0.  1.
</event>
<event>
 4    1  0.1082663E+000  0.1000000E+03  0.7546771E-02  0.1280296E+00
         -2   -1    0    0    0  501 -0.00000000000E+00  0.00000000000E+00  0.49099778937E+03  0.49099778937E+03  0.00000000000E+00 0. -1.
          2   -1    0    0  502    0  0.00000000000E+00 -0.00000000000E+00 -0.71728265145E+02  0.71728265145E+02  0.00000000000E+00 0.  1.
          6    1    1    2  502    0 -0.46226271593E+02  0.11750449997E+02  0.29195150569E+03  0.34269464970E+03  0.17300000000E+03 0. -1.
         -6    1    1    2    0  501  0.46226271593E+02 -0.11750449997E+02  0.12731801854E+03  0.22003140482E+03  0.17300000000E+03 0.  1.
</event>
<event>
 4    1  0.1082663E+000  0.1000000E+03  0.7546771E-02  0.1280296E+00
          2   -1    0    0  502    0  0.00000000000E+00  0.00000000000E+00  0.27644143726E+03  0.27644143726E+03  0.00000000000E+00 0.  1.
         -2   -1    0    0    0  501 -0.00000000000E+00 -0.00000000000E+00 -0.15435050292E+03  0.15435050292E+03  0.00000000000E+00 0. -1.
          6    1    1    2  502    0 -0.12096760337E+02  0.11183259317E+03  0.70772434356E+02  0.21815269416E+03  0.17300000000E+03 0. -1.
         -6    1    1    2    0  501  0.12096760337E+02 -0.11183259317E+03  0.51318499992E+02  0.21263924602E+03  0.17300000000E+03 0.  1.
</event>
<event>
 4    1  0.1082663E+000  0.1000000E+03  0.7546771E-02  0.1280296E+00
          2   -1    0    0  502    0  0.00000000000E+00  0.00000000000E+00  0.15084016451E+04  0.15084016451E+04  0.00000000000E+00 0.  1.
         -2   -1    0    0    0  501 -0.00000000000E+00 -0.00000000000E+00 -0.23711084212E+02  0.23711084212E+02  0.00000000000E+00 0. -1.
          6    1    1    2  502    0  0.72352056251E+01  0.73866192595E+02  0.66895374566E+03  0.69493645497E+03  0.17300000000E+03 0. -1.
         -6    1    1    2    0  501 -0.72352056251E+01 -0.73866192595E+02  0.81573681525E+03  0.83717627437E+03  0.17300000000E+03 0.  1.
</event>
<event>
 4    1  0.1082663E+000  0.1000000E+03  0.7546771E-02  0.1280296E+00
          2   -1    0    0  502    0  0.00000000000E+00  0.00000000000E+00  0.11212610462E+04  0.11212610462E+04  0.00000000000E+00 0.  1.
         -2   -1    0    0    0  501 -0.00000000000E+00 -0.00000000000E+00 -0.13129964316E+03  0.13129964316E+03  0.00000000000E+00 0. -1.
          6    1    1    2  502    0  0.23805995435E+03 -0.13895128520E+03  0.16322173826E+03  0.36407463159E+03  0.17300000000E+03 0. -1.
         -6    1    1    2    0  501 -0.23805995435E+03  0.13895128520E+03  0.82673966483E+03  0.88848605781E+03  0.17300000000E+03 0.  1.
</event>
<event>
 4    1  0.1082663E+000  0.1000000E+03  0.7546771E-02  0.1280296E+00
          2   -1    0    0  502    0  0.00000000000E+00  0.00000000000E+00  0.13983255509E+04  0.13983255509E+04  0.00000000000E+00 0.  1.
         -2   -1    0    0    0  501 -0.00000000000E+00 -0.00000000000E+00 -0.13575990903E+03  0.13575990903E+03  0.00000000000E+00 0. -1.
          6    1    1    2  502    0  0.71660989287E+02  0.12847486826E+03 -0.23335362805E+02  0.22828628587E+03  0.17300000000E+03 0. -1.
         -6    1    1    2    0  501 -0.71660989287E+02 -0.12847486826E+03  0.12859010046E+04  0.13057991740E+04  0.17300000000E+03 0.  1.
</event>
<event>
 4    1  0.1082663E+000  0.1000000E+03  0.7546771E-02  0.1280296E+00
         -2   -1    0    0    0  501 -0.00000000000E+00  0.00000000000E+00  0.14334449661E+03  0.14334449661E+03  0.00000000000E+00 0.  1.
          2   -1    0    0  502    0  0.00000000000E+00 -0.00000000000E+00 -0.33283296168E+03  0.33283296168E+03  0.00000000000E+00 0. -1.
          6    1    1    2  502    0  0.11438371896E+03 -0.92091835896E+01 -0.20716353753E+02  0.20863032267E+03  0.17300000000E+03 0. -1.
         -6    1    1    2    0  501 -0.11438371896E+03  0.92091835896E+01 -0.16877211132E+03  0.26754713563E+03  0.17300000000E+03 0.  1.
</event>
<event>
 4    1  0.1082663E+000  0.1000000E+03  0.7546771E-02  0.1280296E+00
          2   -1    0    0  502    0  0.00000000000E+00  0.00000000000E+00  0.19975469653E+03  0.19975469653E+03  0.00000000000E+00 0. -1.
         -2   -1    0    0    0  501 -0.00000000000E+00 -0.00000000000E+00 -0.19318053863E+03  0.19318053863E+03  0.00000000000E+00 0.  1.
          6    1    1    2  502    0 -0.19318672643E+01 -0.87566096441E+02  0.34726595500E+02  0.19699362881E+03  0.17300000000E+03 0. -1.
         -6    1    1    2    0  501  0.19318672643E+01  0.87566096441E+02 -0.28152437600E+02  0.19594160635E+03  0.17300000000E+03 0.  1.
</event>
<event>
 4    1  0.1082663E+000  0.1000000E+03  0.7546771E-02  0.1280296E+00
          2   -1    0    0  502    0  0.00000000000E+00  0.00000000000E+00  0.15031482191E+04  0.15031482191E+04  0.00000000000E+00 0. -1.
         -2   -1    0    0    0  501 -0.00000000000E+00 -0.00000000000E+00 -0.41812029771E+02  0.41812029771E+02  0.00000000000E+00 0.  1.
          6    1    1    2  502    0 -0.13037285397E+03  0.41544409150E+02  0.10978186229E+04  0.11197578969E+04  0.17300000000E+03 0. -1.
         -6    1    1    2    0  501  0.13037285397E+03 -0.41544409150E+02  0.36351756644E+03  0.42520235193E+03  0.17300000000E+03 0.  1.
</event>
<event>
 4    1  0.1082663E+000  0.1000000E+03  0.7546771E-02  0.1280296E+00
          1   -1    0    0  502    0  0.00000000000E+00  0.00000000000E+00  0.19595466436E+03  0.19595466436E+03  0.00000000000E+00 0. -1.
         -1   -1    0    0    0  501 -0.00000000000E+00 -0.00000000000E+00 -0.23307609472E+03  0.23307609472E+03  0.00000000000E+00 0.  1.
          6    1    1    2  502    0 -0.64242973209E+02  0.52364781156E+01 -0.12661708962E+03  0.22386484247E+03  0.17300000000E+03 0.  1.
         -6    1    1    2    0  501  0.64242973209E+02 -0.52364781156E+01  0.89495659266E+02  0.20516591661E+03  0.17300000000E+03 0.  1.
</event>
<event>
 4    1  0.1082663E+000  0.1000000E+03  0.7546771E-02  0.1280296E+00
          3   -1    0    0  502    0  0.00000000000E+00  0.00000000000E+00  0.12509460117E+04  0.12509460117E+04  0.00000000000E+00 0. -1.
         -3   -1    0    0    0  501 -0.00000000000E+00 -0.00000000000E+00 -0.26539536765E+02  0.26539536765E+02  0.00000000000E+00 0.  1.
          6    1    1    2  502    0 -0.30217336476E+02 -0.27871961345E+02  0.47283294405E+03  0.50516326730E+03  0.17300000000E+03 0.  1.
         -6    1    1    2    0  501  0.30217336476E+02  0.27871961345E+02  0.75157353088E+03  0.77232228115E+03  0.17300000000E+03 0.  1.
</event>
<event>
 4    1  0.1082663E+000  0.1000000E+03  0.7546771E-02  0.1280296E+00
          1   -1    0    0  502    0  0.00000000000E+00  0.00000000000E+00  0.36536417305E+03  0.36536417305E+03  0.00000000000E+00 0. -1.
         -1   -1    0    0    0  501 -0.00000000000E+00 -0.00000000000E+00 -0.10082027683E+03  0.10082027683E+03  0.00000000000E+00 0.  1.
          6    1    1    2  502    0  0.18162572042E+02  0.69225904161E+02  0.80960831659E+02  0.20397490310E+03  0.17300000000E+03 0.  1.
         -6    1    1    2    0  501 -0.18162572042E+02 -0.69225904161E+02  0.18358306456E+03  0.26220954678E+03  0.17300000000E+03 0.  1.
</event>
<event>
 4    1  0.1082663E+000  0.1000000E+03  0.7546771E-02  0.1280296E+00
          2   -1    0    0  502    0  0.00000000000E+00  0.00000000000E+00  0.46374936308E+03  0.46374936308E+03  0.00000000000E+00 0. -1.
         -2   -1    0    0    0  501 -0.00000000000E+00 -0.00000000000E+00 -0.26201519848E+03  0.26201519848E+03  0.00000000000E+00 0.  1.
          6    1    1    2  502    0 -0.91688591664E+02  0.24684405090E+03  0.25612145902E+03  0.40603692575E+03  0.17300000000E+03 0.  1.
         -6    1    1    2    0  501  0.91688591664E+02 -0.24684405090E+03 -0.54387294420E+02  0.31972763581E+03  0.17300000000E+03 0.  1.
</event>
<event>
 4    1  0.1082663E+000  0.1000000E+03  0.7546771E-02  0.1280296E+00
          1   -1    0    0  502    0  0.00000000000E+00  0.00000000000E+00  0.21810465729E+04  0.21810465729E+04  0.00000000000E+00 0.  1.
         -1   -1    0    0    0  501 -0.00000000000E+00 -0.00000000000E+00 -0.22304703286E+02  0.22304703286E+02  0.00000000000E+00 0. -1.
          6    1    1    2  502    0 -0.67933504719E+02  0.10347460392E+03  0.13704747752E+04  0.13868857430E+04  0.17300000000E+03 0.  1.
         -6    1    1    2    0  501  0.67933504719E+02 -0.10347460392E+03  0.78826709441E+03  0.81646553317E+03  0.17300000000E+03 0. -1.
</event>
<event>
 4    1  0.1082663E+000  0.1000000E+03  0.7546771E-02  0.1280296E+00
         -1   -1    0    0    0  501 -0.00000000000E+00  0.00000000000E+00  0.15323620759E+03  0.15323620759E+03  0.00000000000E+00 0. -1.
          1   -1    0    0  502    0  0.00000000000E+00 -0.00000000000E+00 -0.43553566204E+03  0.43553566204E+03  0.00000000000E+00 0.  1.
          6    1    1    2  502    0  0.11089610261E+03 -0.28724411087E+02 -0.31653245605E+03  0.37847699150E+03  0.17300000000E+03 0.  1.
         -6    1    1    2    0  501 -0.11089610261E+03  0.28724411087E+02  0.34233001601E+02  0.21029487812E+03  0.17300000000E+03 0.  1.
</event>
<event>
 4    1  0.1082663E+000  0.1000000E+03  0.7546771E-02  0.1280296E+00
          2   -1    0    0  502    0  0.00000000000E+00  0.00000000000E+00  0.12637097295E+04  0.12637097295E+04  0.00000000000E+00 0.  1.
         -2   -1    0    0    0  501 -0.00000000000E+00 -0.00000000000E+00 -0.68983530765E+02  0.68983530765E+02  0.00000000000E+00 0. -1.
          6    1    1    2  502    0  0.34834822273E+02  0.20042526329E+03  0.31312100813E+03  0.41153069963E+03  0.17300000000E+03 0.  1.
         -6    1    1    2    0  501 -0.34834822273E+02 -0.20042526329E+03  0.88160519060E+03  0.92116256062E+03  0.17300000000E+03 0. -1.
</event>
<event>
 4    1  0.1082663E+000  0.1000000E+03  0.7546771E-02  0.1280296E+00
          1   -1    0    0  502    0  0.00000000000E+00  0.00000000000E+00  0.28014202159E+03  0.28014202159E+03  0.00000000000E+00 0. -1.
         -1   -1    0    0    0  501 -0.00000000000E+00 -0.00000000000E+00 -0.87564358069E+03  0.87564358069E+03  0.00000000000E+00 0.  1.
          6    1    1    2  502    0 -0.21377955953E+03  0.43394609261E+02 -0.77569642114E+03  0.82414727444E+03  0.17300000000E+03 0. -1.
         -6    1    1    2    0  501  0.21377955953E+03 -0.43394609261E+02  0.18019486204E+03  0.33163832784E+03  0.17300000000E+03 0.  1.
</event>
<event>
 4    1  0.1082663E+000  0.1000000E+03  0.7546771E-02  0.1280296E+00
          2   -1    0    0  502    0  0.00000000000E+00  0.00000000000E+00  0.96400413071E+03  0.96400413071E+03  0.00000000000E+00 0. -1.
         -2   -1    0    0    0  501 -0.00000000000E+00 -0.00000000000E+00 -0.14842350249E+03  0.14842350249E+03  0.00000000000E+00 0.  1.
          6    1    1    2  502    0 -0.19128843123E+03 -0.11213389033E+03  0.35830954297E+02  0.28351037119E+03  0.17300000000E+03 0. -1.
         -6    1    1    2    0  501  0.19128843123E+03  0.11213389033E+03  0.77974967392E+03  0.82891726202E+03  0.17300000000E+03 0.  1.
</event>
<event>
 4    1  0.1082663E+000  0.1000000E+03  0.7546771E-02  0.1280296E+00
          1   -1    0    0  502    0  0.00000000000E+00  0.00000000000E+00  0.53735150263E+03  0.53735150263E+03  0.00000000000E+00 0. -1.
         -1   -1    0    0    0  501 -0.00000000000E+00 -0.00000000000E+00 -0.24502006309E+03  0.24502006309E+03  0.00000000000E+00 0.  1.
          6    1    1    2  502    0 -0.20180498896E+03  0.80038588851E+02 -0.10574994378E+03  0.29705804127E+03  0.17300000000E+03 0. -1.
         -6    1    1    2    0  501  0.20180498896E+03 -0.80038588851E+02  0.39808138332E+03  0.48531352446E+03  0.17300000000E+03 0.  1.
</event>
<event>
 4    1  0.1082663E+000  0.1000000E+03  0.7546771E-02  0.1280296E+00
          1   -1    0    0  502    0  0.00000000000E+00  0.00000000000E+00  0.14029513219E+04  0.14029513219E+04  0.00000000000E+00 0. -1.
         -1   -1    0    0    0  501 -0.00000000000E+00 -0.00000000000E+00 -0.59003156344E+02  0.59003156344E+02  0.00000000000E+00 0.  1.
          6    1    1    2  502    0 -0.91275395853E+02 -0.33979292036E+02  0.12010383456E+04  0.12173363947E+04  0.17300000000E+03 0. -1.
         -6    1    1    2    0  501  0.91275395853E+02  0.33979292036E+02  0.14290981996E+03  0.24461808358E+03  0.17300000000E+03 0.  1.
</event>
<event>
 4    1  0.1082663E+000  0.1000000E+03  0.7546771E-02  0.1280296E+00
         -2   -1    0    0    0  501 -0.00000000000E+00  0.00000000000E+00  0.13113501524E+03  0.13113501524E+03  0.00000000000E+00 0. -1.
          2   -1    0    0  502    0  0.00000000000E+00 -0.00000000000E+00 -0.96837703265E+03  0.96837703265E+03  0.00000000000E+00 0.  1.
          6    1    1    2  502    0 -0.16159322770E+03  0.21205783012E+03 -0.16996823777E+03  0.36041517228E+03  0.17300000000E+03 0.  1.
         -6    1    1    2    0  501  0.16159322770E+03 -0.21205783012E+03 -0.66727377963E+03  0.73909687561E+03  0.17300000000E+03 0. -1.
</event>
<event>
 4    1  0.1082663E+000  0.1000000E+03  0.7546771E-02  0.1280296E+00
         -1   -1    0    0    0  501 -0.00000000000E+00  0.00000000000E+00  0.55010874435E+02  0.55010874435E+02  0.00000000000E+00 0. -1.
          1   -1    0    0  502    0  0.00000000000E+00 -0.00000000000E+00 -0.22779144260E+04  0.22779144260E+04  0.00000000000E+00 0.  1.
          6    1    1    2  502    0 -0.15227393944E+03  0.16567658030E+02 -0.19951426267E+04  0.20084782650E+04  0.17300000000E+03 0.  1.
         -6    1    1    2    0  501  0.15227393944E+03 -0.16567658030E+02 -0.22776092481E+03  0.32444703543E+03  0.17300000000E+03 0. -1.
</event>
<event>
 4    1  0.1082663E+000  0.1000000E+03  0.7546771E-02  0.1280296E+00
         -2   -1    0    0    0  501 -0.00000000000E+00  0.00000000000E+00  0.39748184613E+02  0.39748184613E+02  0.00000000000E+00 0. -1.
          2   -1    0    0  502    0  0.00000000000E+00 -0.00000000000E+00 -0.79815782351E+03  0.79815782351E+03  0.00000000000E+00 0.  1.
          6    1    1    2  502    0  0.30715847117E+02  0.26905629409E+02 -0.35249504714E+03  0.39477732257E+03  0.17300000000E+03 0.  1.
         -6    1    1    2    0  501 -0.30715847117E+02 -0.26905629409E+02 -0.40591459175E+03  0.44312868555E+03  0.17300000000E+03 0. -1.
</event>
<event>
 4    1  0.1082663E+000  0.1000000E+03  0.7546771E-02  0.1280296E+00
          2   -1    0    0  502    0  0.00000000000E+00  0.00000000000E+00  0.29438550294E+04  0.29438550294E+04  0.00000000000E+00 0.  1.
         -2   -1    0    0    0  501 -0.00000000000E+00 -0.00000000000E+00 -0.37668608817E+02  0.37668608817E+02  0.00000000000E+00 0. -1.
          6    1    1    2  502    0 -0.94413936097E+02  0.14801534379E+03  0.24555133530E+04  0.24678527833E+04  0.17300000000E+03 0.  1.
         -6    1    1    2    0  501  0.94413936097E+02 -0.14801534379E+03  0.45067306752E+03  0.51367085484E+03  0.17300000000E+03 0. -1.
</event>
<event>
 4    1  0.1082663E+000  0.1000000E+03  0.7546771E-02  0.1280296E+00
         -1   -1    0    0    0  501 -0.00000000000E+00  0.00000000000E+00  0.34578601565E+02  0.34578601565E+02  0.00000000000E+00 0.  1.
          1   -1    0    0  502    0  0.00000000000E+00 -0.00000000000E+00 -0.12616635603E+04  0.12616635603E+04  0.00000000000E+00 0. -1.
          6    1    1    2  502    0 -0.11225961872E+03  0.18766109362E+02 -0.69813374652E+03  0.72819922884E+03  0.17300000000E+03 0.  1.
         -6    1    1    2    0  501  0.11225961872E+03 -0.18766109362E+02 -0.52895121226E+03  0.56804293307E+03  0.17300000000E+03 0.  1.
</event>
<event>
 4    1  0.1082663E+000  0.1000000E+03  0.7546771E-02  0.1280296E+00
          2   -1    0    0  502    0  0.00000000000E+00  0.00000000000E+00  0.55652714498E+03  0.55652714498E+03  0.00000000000E+00 0. -1.
         -2   -1    0    0    0  501 -0.00000000000E+00 -0.00000000000E+00 -0.19119047467E+03  0.19119047467E+03  0.00000000000E+00 0.  1.
          6    1    1    2  502    0 -0.11732830832E+03 -0.24899596440E+03  0.21318120091E+03  0.38876747117E+03  0.17300000000E+03 0. -1.
         -6    1    1    2    0  501  0.11732830832E+03  0.24899596440E+03  0.15215546940E+03  0.35895014847E+03  0.17300000000E+03 0. -1.
</event>
<event>
 4    1  0.1082663E+000  0.1000000E+03  0.7546771E-02  0.1280296E+00
          2   -1    0    0  502    0  0.00000000000E+00  0.00000000000E+00  0.64194520075E+03  0.64194520075E+03  0.00000000000E+00 0. -1.
         -2   -1    0    0    0  501 -0.00000000000E+00 -0.00000000000E+00 -0.50961637229E+02  0.50961637229E+02  0.00000000000E+00 0.  1.
          6    1    1    2  502    0  0.32416198420E+02  0.41605331327E+02  0.29920843844E+03  0.34962337329E+03  0.17300000000E+03 0. -1.
         -6    1    1    2    0  501 -0.32416198420E+02 -0.41605331327E+02  0.29177512509E+03  0.34328346470E+03  0.17300000000E+03 0. -1.
</event>
<event>
 4    1  0.1082663E+000  0.1000000E+03  0.7546771E-02  0.1280296E+00
          2   -1    0    0  502    0  0.00000000000E+00  0.00000000000E+00  0.68878873559E+02  0.68878873559E+02  0.00000000000E+00 0.  1.
         -2   -1    0    0    0  501 -0.00000000000E+00 -0.00000000000E+00 -0.63064125857E+03  0.63064125857E+03  0.00000000000E+00 0. -1.
          6    1    1    2  502    0  0.22595483220E+02 -0.86194593923E+02 -0.40611357818E+03  0.45033021470E+03  0.17300000000E+03 0.  1.
         -6    1    1    2    0  501 -0.22595483220E+02  0.86194593923E+02 -0.15564880683E+03  0.24918991743E+03  0.17300000000E+03 0.  1.
</event>
<event>
 4    1  0.1082663E+000  0.1000000E+03  0.7546771E-02  0.1280296E+00
          1   -1    0    0  502    0  0.00000000000E+00  0.00000000000E+00  0.46700181063E+03  0.46700181063E+03  0.00000000000E+00 0.  1.
         -1   -1    0    0    0  501 -0.00000000000E+00 -0.00000000000E+00 -0.91164081271E+02  0.91164081271E+02  0.00000000000E+00 0. -1.
          6    1    1    2  502    0  0.10612140855E+03 -0.37152449858E+02  0.19015497176E+03  0.28058861554E+03  0.17300000000E+03 0.  1.
         -6    1    1    2    0  501 -0.10612140855E+03  0.37152449858E+02  0.18568275760E+03  0.27757727636E+03  0.17300000000E+03 0.  1.
</event>
<event>
 4    1  0.1082663E+000  0.1000000E+03  0.7546771E-02  0.1280296E+00
          1   -1    0    0  502    0  0.00000000000E+00  0.00000000000E+00  0.55294896685E+03  0.55294896685E+03  0.00000000000E+00 0.  1.
         -1   -1    0    0    0  501 -0.00000000000E+00 -0.00000000000E+00 -0.14883273915E+03  0.14883273915E+03  0.00000000000E+00 0. -1.
          6    1    1    2  502    0 -0.18004102329E+02  0.82810499884E+02  0.46206395915E+03  0.50061345261E+03  0.17300000000E+03 0.  1.
         -6    1    1    2    0  501  0.18004102329E+02 -0.82810499884E+02 -0.57947731452E+02  0.20116825339E+03  0.17300000000E+03 0.  1.
</event>
<event>
 4    1  0.1082663E+000  0.1000000E+03  0.7546771E-02  0.1280296E+00
          2   -1    0    0  502    0  0.00000000000E+00  0.00000000000E+00  0.16248048885E+04  0.16248048885E+04  0.00000000000E+00 0. -1.
         -2   -1    0    0    0  501 -0.00000000000E+00 -0.00000000000E+00 -0.29993228223E+02  0.29993228223E+02  0.00000000000E+00 0.  1.
          6    1    1    2  502    0 -0.71392633065E+02  0.10821116332E+03  0.96492128822E+03  0.98884207859E+03  0.17300000000E+03 0. -1.
         -6    1    1    2    0  501  0.71392633065E+02 -0.10821116332E+03  0.62989037206E+03  0.66595603814E+03  0.17300000000E+03 0. -1.
</event>
<event>
 4    1  0.1082663E+000  0.1000000E+03  0.7546771E-02  0.1280296E+00
          1   -1    0    0  502    0  0.00000000000E+00  0.00000000000E+00  0.11888179212E+04  0.11888179212E+04  0.00000000000E+00 0. -1.
         -1   -1    0    0    0  501 -0.00000000000E+00 -0.00000000000E+00 -0.35560766810E+02  0.35560766810E+02  0.00000000000E+00 0.  1.
          6    1    1    2  502    0 -0.31075700509E+02 -0.50745404286E+02  0.29723327863E+03  0.34902351947E+03  0.17300000000E+03 0. -1.
         -6    1    1    2    0  501  0.31075700509E+02  0.50745404286E+02  0.85602387572E+03  0.87535516850E+03  0.17300000000E+03 0. -1.
</event>
<event>
 4    1  0.1082663E+000  0.1000000E+03  0.7546771E-02  0.1280296E+00
          1   -1    0    0  502    0  0.00000000000E+00  0.00000000000E+00  0.25429203468E+04  0.25429203468E+04  0.00000000000E+00 0.  1.
         -1   -1    0    0    0  501 -0.00000000000E+00 -0.00000000000E+00 -0.18131266435E+02  0.18131266435E+02  0.00000000000E+00 0. -1.
          6    1    1    2  502    0  0.68412875626E+02 -0.99510708611E+02  0.10242490101E+04  0.10457522352E+04  0.17300000000E+03 0.  1.
         -6    1    1    2    0  501 -0.68412875626E+02  0.99510708611E+02  0.15005400702E+04  0.15152993780E+04  0.17300000000E+03 0. -1.
</event>
<event>
 4    1  0.1082663E+000  0.1000000E+03  0.7546771E-02  0.1280296E+00
          2   -1    0    0  502    0  0.00000000000E+00  0.00000000000E+00  0.17946685384E+04  0.17946685384E+04  0.00000000000E+00 0.  1.
         -2   -1    0    0    0  501 -0.00000000000E+00 -0.00000000000E+00 -0.21830209454E+02  0.21830209454E+02  0.00000000000E+00 0. -1.
          6    1    1    2  502    0 -0.11443624048E+02 -0.96369132494E+01  0.13223439569E+04  0.13336965048E+04  0.17300000000E+03 0.  1.
         -6    1    1    2    0  501  0.11443624048E+02  0.96369132494E+01  0.45049437203E+03  0.48280224301E+03  0.17300000000E+03 0. -1.
</event>
<event>
 4    1  0.1082663E+000  0.1000000E+03  0.7546771E-02  0.1280296E+00
          1   -1    0    0  502    0  0.00000000000E+00  0.00000000000E+00  0.17554769871E+04  0.17554769871E+04  0.00000000000E+00 0.  1.
         -1   -1    0    0    0  501 -0.00000000000E+00 -0.00000000000E+00 -0.28491761537E+02  0.28491761537E+02  0.00000000000E+00 0. -1.
          6    1    1    2  502    0  0.13701403934E+03 -0.23169756451E+02  0.97473621982E+03  0.99967463848E+03  0.17300000000E+03 0.  1.
         -6    1    1    2    0  501 -0.13701403934E+03  0.23169756451E+02  0.75224900578E+03  0.78429411019E+03  0.17300000000E+03 0. -1.
</event>
<event>
 4    1  0.1082663E+000  0.1000000E+03  0.7546771E-02  0.1280296E+00
         -2   -1    0    0    0  501 -0.00000000000E+00  0.00000000000E+00  0.15893415147E+03  0.15893415147E+03  0.00000000000E+00 0.  1.
          2   -1    0    0  502    0  0.00000000000E+00 -0.00000000000E+00 -0.59786113852E+03  0.59786113852E+03  0.00000000000E+00 0. -1.
          6    1    1    2  502    0  0.35848770502E+02 -0.25003295725E+03 -0.17537510925E+03  0.35282721409E+03  0.17300000000E+03 0. -1.
         -6    1    1    2    0  501 -0.35848770502E+02  0.25003295725E+03 -0.26355187780E+03  0.40396807590E+03  0.17300000000E+03 0.  1.
</event>
<event>
 4    1  0.1082663E+000  0.1000000E+03  0.7546771E-02  0.1280296E+00
         -2   -1    0    0    0  501 -0.00000000000E+00  0.00000000000E+00  0.23655473424E+02  0.23655473424E+02  0.00000000000E+00 0.  1.
          2   -1    0    0  502    0  0.00000000000E+00 -0.00000000000E+00 -0.19572398543E+04  0.19572398543E+04  0.00000000000E+00 0. -1.
          6    1    1    2  502    0 -0.65054031674E+01  0.57010652188E+02 -0.14931883367E+04  0.15042715658E+04  0.17300000000E+03 0. -1.
         -6    1    1    2    0  501  0.65054031674E+01 -0.57010652188E+02 -0.44039604421E+03  0.47662376198E+03  0.17300000000E+03 0.  1.
</event>
<event>
 4    1  0.1082663E+000  0.1000000E+03  0.7546771E-02  0.1280296E+00
         -2   -1    0    0    0  501 -0.00000000000E+00  0.00000000000E+00  0.16743827915E+02  0.16743827915E+02  0.00000000000E+00 0. -1.
          2   -1    0    0  502    0  0.00000000000E+00 -0.00000000000E+00 -0.29013700638E+04  0.29013700638E+04  0.00000000000E+00 0.  1.
          6    1    1    2  502    0  0.11403808234E+03  0.73765012568E+02 -0.13475139107E+04  0.13653456342E+04  0.17300000000E+03 0. -1.
         -6    1    1    2    0  501 -0.11403808234E+03 -0.73765012568E+02 -0.15371123252E+04  0.15527682575E+04  0.17300000000E+03 0.  1.
</event>
<event>
 4    1  0.1082663E+000  0.1000000E+03  0.7546771E-02  0.1280296E+00
         -2   -1    0    0    0  501 -0.00000000000E+00  0.00000000000E+00  0.89679876185E+02  0.89679876185E+02  0.00000000000E+00 0. -1.
          2   -1    0    0  502    0  0.00000000000E+00 -0.00000000000E+00 -0.19555621332E+04  0.19555621332E+04  0.00000000000E+00 0.  1.
          6    1    1    2  502    0 -0.36032367871E+03 -0.53247171096E+02 -0.65691608551E+03  0.77080228208E+03  0.17300000000E+03 0. -1.
         -6    1    1    2    0  501  0.36032367871E+03  0.53247171096E+02 -0.12089661715E+04  0.12744397273E+04  0.17300000000E+03 0.  1.
</event>
<event>
 4    1  0.1082663E+000  0.1000000E+03  0.7546771E-02  0.1280296E+00
         -2   -1    0    0    0  501 -0.00000000000E+00  0.00000000000E+00  0.21024827383E+02  0.21024827383E+02  0.00000000000E+00 0. -1.
          2   -1    0    0  502    0  0.00000000000E+00 -0.00000000000E+00 -0.26417903984E+04  0.26417903984E+04  0.00000000000E+00 0.  1.
          6    1    1    2  502    0 -0.35205414825E+02  0.13422223028E+03 -0.85988208361E+03  0.88802096036E+03  0.17300000000E+03 0. -1.
         -6    1    1    2    0  501  0.35205414825E+02 -0.13422223028E+03 -0.17608834874E+04  0.17747942654E+04  0.17300000000E+03 0.  1.
</event>
<event>
 4    1  0.1082663E+000  0.1000000E+03  0.7546771E-02  0.1280296E+00
         -2   -1    0    0    0  501 -0.00000000000E+00  0.00000000000E+00  0.80052506517E+02  0.80052506517E+02  0.00000000000E+00 0. -1.
          2   -1    0    0  502    0  0.00000000000E+00 -0.00000000000E+00 -0.50453455649E+03  0.50453455649E+03  0.00000000000E+00 0.  1.
          6    1    1    2  502    0 -0.77415641365E+02 -0.64431823544E+02 -0.18640267814E+03  0.27353171632E+03  0.17300000000E+03 0. -1.
         -6    1    1    2    0  501  0.77415641365E+02  0.64431823544E+02 -0.23807937183E+03  0.31105534669E+03  0.17300000000E+03 0.  1.
</event>
<event>
 4    1  0.1082663E+000  0.1000000E+03  0.7546771E-02  0.1280296E+00
         -2   -1    0    0    0  501 -0.00000000000E+00  0.00000000000E+00  0.26715855005E+02  0.26715855005E+02  0.00000000000E+00 0. -1.
          2   -1    0    0  502    0  0.00000000000E+00 -0.00000000000E+00 -0.21135033272E+04  0.21135033272E+04  0.00000000000E+00 0.  1.
          6    1    1    2  502    0  0.46944940918E+02 -0.54440527669E+01 -0.17454299804E+04  0.17546191273E+04  0.17300000000E+03 0.  1.
         -6    1    1    2    0  501 -0.46944940918E+02  0.54440527669E+01 -0.34135749181E+03  0.38560005498E+03  0.17300000000E+03 0.  1.
</event>
<event>
 4    1  0.1082663E+000  0.1000000E+03  0.7546771E-02  0.1280296E+00
         -2   -1    0    0    0  501 -0.00000000000E+00  0.00000000000E+00  0.66850608361E+02  0.66850608361E+02  0.00000000000E+00 0. -1.
          2   -1    0    0  502    0  0.00000000000E+00 -0.00000000000E+00 -0.17357907827E+04  0.17357907827E+04  0.00000000000E+00 0.  1.
          6    1    1    2  502    0  0.12470663675E+03 -0.19242263801E+03 -0.13189816639E+04  0.13498962355E+04  0.17300000000E+03 0.  1.
         -6    1    1    2    0  501 -0.12470663675E+03  0.19242263801E+03 -0.34995851042E+03  0.45274515556E+03  0.17300000000E+03 0.  1.
</event>
<event>
 4    1  0.1082663E+000  0.1000000E+03  0.7546771E-02  0.1280296E+00
         -2   -1    0    0    0  501 -0.00000000000E+00  0.00000000000E+00  0.17134638187E+03  0.17134638187E+03  0.00000000000E+00 0. -1.
          2   -1    0    0  502    0  0.00000000000E+00 -0.00000000000E+00 -0.37752344424E+03  0.37752344424E+03  0.00000000000E+00 0.  1.
          6    1    1    2  502    0 -0.38799429612E+02  0.17797431327E+03 -0.60225115687E+02  0.25833373083E+03  0.17300000000E+03 0.  1.
         -6    1    1    2    0  501  0.38799429612E+02 -0.17797431327E+03 -0.14595194668E+03  0.29053609528E+03  0.17300000000E+03 0.  1.
</event>
<event>
 4    1  0.1082663E+000  0.1000000E+03  0.7546771E-02  0.1280296E+00
          2   -1    0    0  502    0  0.00000000000E+00  0.00000000000E+00  0.61166066192E+03  0.61166066192E+03  0.00000000000E+00 0.  1.
         -2   -1    0    0    0  501 -0.00000000000E+00 -0.00000000000E+00 -0.77400141639E+02  0.77400141639E+02  0.00000000000E+00 0. -1.
          6    1    1    2  502    0 -0.81744915498E+02 -0.42079815914E+02  0.41701998963E+03  0.46074680017E+03  0.17300000000E+03 0. -1.
         -6    1    1    2    0  501  0.81744915498E+02  0.42079815914E+02  0.11724053066E+03  0.22831400339E+03  0.17300000000E+03 0.  1.
</event>
<event>
 4    1  0.1082663E+000  0.1000000E+03  0.7546771E-02  0.1280296E+00
         -2   -1    0    0    0  501 -0.00000000000E+00  0.00000000000E+00  0.25477156407E+02  0.25477156407E+02  0.00000000000E+00 0.  1.
          2   -1    0    0  502    0  0.00000000000E+00 -0.00000000000E+00 -0.18779880954E+04  0.18779880954E+04  0.00000000000E+00 0. -1.
          6    1    1    2  502    0  0.10041166628E+03  0.46064715815E+02 -0.59740389687E+03  0.63168415903E+03  0.17300000000E+03 0. -1.
         -6    1    1    2    0  501 -0.10041166628E+03 -0.46064715815E+02 -0.12551070421E+04  0.12717810927E+04  0.17300000000E+03 0. -1.
</event>
<event>
 4    1  0.1082663E+000  0.1000000E+03  0.7546771E-02  0.1280296E+00
         -1   -1    0    0    0  501 -0.00000000000E+00  0.00000000000E+00  0.10580982089E+03  0.10580982089E+03  0.00000000000E+00 0.  1.
          1   -1    0    0  502    0  0.00000000000E+00 -0.00000000000E+00 -0.32992679562E+03  0.32992679562E+03  0.00000000000E+00 0. -1.
          6    1    1    2  502    0 -0.63576163176E+02  0.30610625084E+02 -0.11351315298E+03  0.21861650165E+03  0.17300000000E+03 0. -1.
         -6    1    1    2    0  501  0.63576163176E+02 -0.30610625084E+02 -0.11060382175E+03  0.21712011486E+03  0.17300000000E+03 0. -1.
</event>
<event>
 4    1  0.1082663E+000  0.1000000E+03  0.7546771E-02  0.1280296E+00
         -3   -1    0    0    0  501 -0.00000000000E+00  0.00000000000E+00  0.71539822486E+03  0.71539822486E+03  0.00000000000E+00 0.  1.
          3   -1    0    0  502    0  0.00000000000E+00 -0.00000000000E+00 -0.64111308277E+02  0.64111308277E+02  0.00000000000E+00 0. -1.
          6    1    1    2  502    0 -0.88008437975E+02 -0.34242739097E+02  0.17318240906E+03  0.26237224918E+03  0.17300000000E+03 0. -1.
         -6    1    1    2    0  501  0.88008437975E+02  0.34242739097E+02  0.47810450753E+03  0.51713728395E+03  0.17300000000E+03 0. -1.
</event>
<event>
 4    1  0.1082663E+000  0.1000000E+03  0.7546771E-02  0.1280296E+00
         -1   -1    0    0    0  501 -0.00000000000E+00  0.00000000000E+00  0.16664919520E+03  0.16664919520E+03  0.00000000000E+00 0.  1.
          1   -1    0    0  502    0  0.00000000000E+00 -0.00000000000E+00 -0.24948982789E+03  0.24948982789E+03  0.00000000000E+00 0. -1.
          6    1    1    2  502    0  0.88891737248E+01 -0.10751466340E+03 -0.38216321374E+02  0.20743169352E+03  0.17300000000E+03 0. -1.
         -6    1    1    2    0  501 -0.88891737248E+01  0.10751466340E+03 -0.44624311310E+02  0.20870732957E+03  0.17300000000E+03 0. -1.
</event>
<event>
 4    1  0.1082663E+000  0.1000000E+03  0.7546771E-02  0.1280296E+00
          1   -1    0    0  502    0  0.00000000000E+00  0.00000000000E+00  0.71995445235E+03  0.71995445235E+03  0.00000000000E+00 0. -1.
         -1   -1    0    0    0  501 -0.00000000000E+00 -0.00000000000E+00 -0.89287097423E+02  0.89287097423E+02  0.00000000000E+00 0.  1.
          6    1    1    2  502    0 -0.37231156354E+02  0.57828343860E+02  0.59000829176E+03  0.61868332829E+03  0.17300000000E+03 0.  1.
         -6    1    1    2    0  501  0.37231156354E+02 -0.57828343860E+02  0.40659063164E+02  0.19055822148E+03  0.17300000000E+03 0. -1.
</event>
<event>
 4    1  0.1082663E+000  0.1000000E+03  0.7546771E-02  0.1280296E+00
          1   -1    0    0  502    0  0.00000000000E+00  0.00000000000E+00  0.12433482038E+04  0.12433482038E+04  0.00000000000E+00 0. -1.
         -1   -1    0    0    0  501 -0.00000000000E+00 -0.00000000000E+00 -0.58546362242E+02  0.58546362242E+02  0.00000000000E+00 0.  1.
          6    1    1    2  502    0  0.20511574121E+03  0.25293297937E+02  0.56262646066E+03  0.62385074533E+03  0.17300000000E+03 0.  1.
         -6    1    1    2    0  501 -0.20511574121E+03 -0.25293297937E+02  0.62217538093E+03  0.67804382074E+03  0.17300000000E+03 0. -1.
</event>
<event>
 4    1  0.1082663E+000  0.1000000E+03  0.7546771E-02  0.1280296E+00
          2   -1    0    0  502    0  0.00000000000E+00  0.00000000000E+00  0.13046373673E+03  0.13046373673E+03  0.00000000000E+00 0. -1.
         -2   -1    0    0    0  501 -0.00000000000E+00 -0.00000000000E+00 -0.29845208762E+03  0.29845208762E+03  0.00000000000E+00 0.  1.
          6    1    1    2  502    0 -0.73293085002E+02  0.10380512936E+02 -0.19435059049E+02  0.18917281221E+03  0.17300000000E+03 0.  1.
         -6    1    1    2    0  501  0.73293085002E+02 -0.10380512936E+02 -0.14855329183E+03  0.23974301214E+03  0.17300000000E+03 0.  1.
</event>
<event>
 4    1  0.1082663E+000  0.1000000E+03  0.7546771E-02  0.1280296E+00
          2   -1    0    0  502    0  0.00000000000E+00  0.00000000000E+00  0.89366773330E+02  0.89366773330E+02  0.00000000000E+00 0. -1.
         -2   -1    0    0    0  501 -0.00000000000E+00 -0.00000000000E+00 -0.54217226355E+03  0.54217226355E+03  0.00000000000E+00 0.  1.
          6    1    1    2  502    0  0.46023568001E+02 -0.47508190577E+02 -0.39703489847E+03  0.43811061113E+03  0.17300000000E+03 0.  1.
         -6    1    1    2    0  501 -0.46023568001E+02  0.47508190577E+02 -0.55770591752E+02  0.19342842575E+03  0.17300000000E+03 0.  1.
</event>
<event>
 4    1  0.1082663E+000  0.1000000E+03  0.7546771E-02  0.1280296E+00
          1   -1    0    0  502    0  0.00000000000E+00  0.00000000000E+00  0.86862700866E+03  0.86862700866E+03  0.00000000000E+00 0. -1.
         -1   -1    0    0    0  501 -0.00000000000E+00 -0.00000000000E+00 -0.43113910163E+02  0.43113910163E+02  0.00000000000E+00 0.  1.
          6    1    1    2  502    0  0.11417248893E+02  0.23221906379E+02  0.21777098697E+03  0.27932564020E+03  0.17300000000E+03 0.  1.
         -6    1    1    2    0  501 -0.11417248893E+02 -0.23221906379E+02  0.60774211153E+03  0.63241527863E+03  0.17300000000E+03 0.  1.
</event>
<event>
 4    1  0.1082663E+000  0.1000000E+03  0.7546771E-02  0.1280296E+00
          1   -1    0    0  502    0  0.00000000000E+00  0.00000000000E+00  0.10220339492E+04  0.10220339492E+04  0.00000000000E+00 0.  1.
         -1   -1    0    0    0  501 -0.00000000000E+00 -0.00000000000E+00 -0.15725728478E+03  0.15725728478E+03  0.00000000000E+00 0. -1.
          6    1    1    2  502    0  0.35035123022E+03  0.33425571231E+02  0.55482756502E+03  0.67943055586E+03  0.17300000000E+03 0. -1.
         -6    1    1    2    0  501 -0.35035123022E+03 -0.33425571231E+02  0.30994909944E+03  0.49986067816E+03  0.17300000000E+03 0. -1.
</event>
<event>
 4    1  0.1082663E+000  0.1000000E+03  0.7546771E-02  0.1280296E+00
          2   -1    0    0  502    0  0.00000000000E+00  0.00000000000E+00  0.43459639640E+02  0.43459639640E+02  0.00000000000E+00 0.  1.
         -2   -1    0    0    0  501 -0.00000000000E+00 -0.00000000000E+00 -0.70292023842E+03  0.70292023842E+03  0.00000000000E+00 0. -1.
          6    1    1    2  502    0 -0.20071331050E+02 -0.14580740733E+02 -0.32535244382E+03  0.36932190435E+03  0.17300000000E+03 0. -1.
         -6    1    1    2    0  501  0.20071331050E+02  0.14580740733E+02 -0.33410815496E+03  0.37705797372E+03  0.17300000000E+03 0. -1.
</event>
<event>
 4    1  0.1082663E+000  0.1000000E+03  0.7546771E-02  0.1280296E+00
          1   -1    0    0  502    0  0.00000000000E+00  0.00000000000E+00  0.21017479003E+03  0.21017479003E+03  0.00000000000E+00 0.  1.
         -1   -1    0    0    0  501 -0.00000000000E+00 -0.00000000000E+00 -0.17521185998E+03  0.17521185998E+03  0.00000000000E+00 0. -1.
          6    1    1    2  502    0 -0.77666799752E+02 -0.29201226876E+02  0.14110115953E+02  0.19238747050E+03  0.17300000000E+03 0. -1.
         -6    1    1    2    0  501  0.77666799752E+02  0.29201226876E+02  0.20852814095E+02  0.19299917951E+03  0.17300000000E+03 0. -1.
</event>
<event>
 4    1  0.1082663E+000  0.1000000E+03  0.7546771E-02  0.1280296E+00
          2   -1    0    0  502    0  0.00000000000E+00  0.00000000000E+00  0.31216605752E+04  0.31216605752E+04  0.00000000000E+00 0.  1.
         -2   -1    0    0    0  501 -0.00000000000E+00 -0.00000000000E+00 -0.78533965175E+02  0.78533965175E+02  0.00000000000E+00 0. -1.
          6    1    1    2  502    0 -0.30109191732E+03 -0.34471276841E+03  0.12766357911E+04  0.13671909810E+04  0.17300000000E+03 0. -1.
         -6    1    1    2    0  501  0.30109191732E+03  0.34471276841E+03  0.17664908189E+04  0.18330035594E+04  0.17300000000E+03 0. -1.
</event>
<event>
 4    1  0.1082663E+000  0.1000000E+03  0.7546771E-02  0.1280296E+00
          1   -1    0    0  502    0  0.00000000000E+00  0.00000000000E+00  0.51301971138E+03  0.51301971138E+03  0.00000000000E+00 0.  1.
         -1   -1    0    0    0  501 -0.00000000000E+00 -0.00000000000E+00 -0.27267355145E+03  0.27267355145E+03  0.00000000000E+00 0. -1.
          6    1    1    2  502    0 -0.99445008755E+02  0.27492715493E+02  0.45117994310E+03  0.49410272234E+03  0.17300000000E+03 0. -1.
         -6    1    1    2    0  501  0.99445008755E+02 -0.27492715493E+02 -0.21083378317E+03  0.29159054048E+03  0.17300000000E+03 0. -1.
</event>
<event>
 4    1  0.1082663E+000  0.1000000E+03  0.7546771E-02  0.1280296E+00
          1   -1    0    0  502    0  0.00000000000E+00  0.00000000000E+00  0.44838719301E+03  0.44838719301E+03  0.00000000000E+00 0.  1.
         -1   -1    0    0    0  501 -0.00000000000E+00 -0.00000000000E+00 -0.14247603361E+03  0.14247603361E+03  0.00000000000E+00 0. -1.
          6    1    1    2  502    0  0.11669017004E+03  0.89748739953E+01 -0.13408971423E+02  0.20929869723E+03  0.17300000000E+03 0. -1.
         -6    1    1    2    0  501 -0.11669017004E+03 -0.89748739953E+01  0.31932013082E+03  0.38156452939E+03  0.17300000000E+03 0.  1.
</event>
<event>
 4    1  0.1082663E+000  0.1000000E+03  0.7546771E-02  0.1280296E+00
          1   -1    0    0  502    0  0.00000000000E+00  0.00000000000E+00  0.53365163983E+03  0.53365163983E+03  0.00000000000E+00 0.  1.
         -1   -1    0    0    0  501 -0.00000000000E+00 -0.00000000000E+00 -0.15861423796E+03  0.15861423796E+03  0.00000000000E+00 0. -1.
          6    1    1    2  502    0 -0.35633668888E+02 -0.79303126277E+02 -0.70835795154E+02  0.20616850892E+03  0.17300000000E+03 0.  1.
         -6    1    1    2    0  501  0.35633668888E+02  0.79303126277E+02  0.44587319702E+03  0.48609736886E+03  0.17300000000E+03 0.  1.
</event>
<event>
 4    1  0.1082663E+000  0.1000000E+03  0.7546771E-02  0.1280296E+00
          2   -1    0    0  502    0  0.00000000000E+00  0.00000000000E+00  0.15075775630E+04  0.15075775630E+04  0.00000000000E+00 0.  1.
         -2   -1    0    0    0  501 -0.00000000000E+00 -0.00000000000E+00 -0.11388899766E+03  0.11388899766E+03  0.00000000000E+00 0. -1.
          6    1    1    2  502    0 -0.11641466927E+03  0.23119067381E+03  0.16184975378E+03  0.35089292623E+03  0.17300000000E+03 0.  1.
         -6    1    1    2    0  501  0.11641466927E+03 -0.23119067381E+03  0.12318388115E+04  0.12705736344E+04  0.17300000000E+03 0.  1.
</event>
<event>
 4    1  0.1082663E+000  0.1000000E+03  0.7546771E-02  0.1280296E+00
          2   -1    0    0  502    0  0.00000000000E+00  0.00000000000E+00  0.34288272355E+02  0.34288272355E+02  0.00000000000E+00 0.  1.
         -2   -1    0    0    0  501 -0.00000000000E+00 -0.00000000000E+00 -0.95376627919E+03  0.95376627919E+03  0.00000000000E+00 0. -1.
          6    1    1    2  502    0  0.42615864808E+02  0.40231559735E+01 -0.54357170877E+03  0.57204151973E+03  0.17300000000E+03 0.  1.
         -6    1    1    2    0  501 -0.42615864808E+02 -0.40231559735E+01 -0.37590629807E+03  0.41601303182E+03  0.17300000000E+03 0.  1.
</event>
<event>
 4    1  0.1082663E+000  0.1000000E+03  0.7546771E-02  0.1280296E+00
          1   -1    0    0  502    0  0.00000000000E+00  0.00000000000E+00  0.34850062499E+03  0.34850062499E+03  0.00000000000E+00 0. -1.
         -1   -1    0    0    0  501 -0.00000000000E+00 -0.00000000000E+00 -0.25721350149E+03  0.25721350149E+03  0.00000000000E+00 0.  1.
          6    1    1    2  502    0  0.94823245391E+02 -0.96356726908E+02  0.25154883672E+03  0.33388902938E+03  0.17300000000E+03 0.  1.
         -6    1    1    2    0  501 -0.94823245391E+02  0.96356726908E+02 -0.16026171322E+03  0.27182509709E+03  0.17300000000E+03 0. -1.
</event>
<event>
 4    1  0.1082663E+000  0.1000000E+03  0.7546771E-02  0.1280296E+00
          1   -1    0    0  502    0  0.00000000000E+00  0.00000000000E+00  0.42378814929E+03  0.42378814929E+03  0.00000000000E+00 0.  1.
         -1   -1    0    0    0  501 -0.00000000000E+00 -0.00000000000E+00 -0.95671745368E+02  0.95671745368E+02  0.00000000000E+00 0. -1.
          6    1    1    2  502    0 -0.89891216697E+02  0.15682793452E+02  0.22577379383E+03  0.29871254883E+03  0.17300000000E+03 0. -1.
         -6    1    1    2    0  501  0.89891216697E+02 -0.15682793452E+02  0.10234261010E+03  0.22074734583E+03  0.17300000000E+03 0.  1.
</event>
<event>
 4    1  0.1082663E+000  0.1000000E+03  0.7546771E-02  0.1280296E+00
          2   -1    0    0  502    0  0.00000000000E+00  0.00000000000E+00  0.26746864500E+03  0.26746864500E+03  0.00000000000E+00 0.  1.
         -2   -1    0    0    0  501 -0.00000000000E+00 -0.00000000000E+00 -0.12950518258E+03  0.12950518258E+03  0.00000000000E+00 0. -1.
          6    1    1    2  502    0 -0.26893806265E+01  0.64410200705E+02  0.94076139710E+02  0.20720817258E+03  0.17300000000E+03 0. -1.
         -6    1    1    2    0  501  0.26893806265E+01 -0.64410200705E+02  0.43887322714E+02  0.18976565500E+03  0.17300000000E+03 0.  1.
</event>
<event>
 4    1  0.1082663E+000  0.1000000E+03  0.7546771E-02  0.1280296E+00
         -1   -1    0    0    0  501 -0.00000000000E+00  0.00000000000E+00  0.49893163502E+02  0.49893163502E+02  0.00000000000E+00 0.  1.
          1   -1    0    0  502    0  0.00000000000E+00 -0.00000000000E+00 -0.13081572305E+04  0.13081572305E+04  0.00000000000E+00 0. -1.
          6    1    1    2  502    0  0.16037307050E+03  0.25060001033E+02 -0.88116266929E+03  0.91253721850E+03  0.17300000000E+03 0. -1.
         -6    1    1    2    0  501 -0.16037307050E+03 -0.25060001033E+02 -0.37710139772E+03  0.44551317551E+03  0.17300000000E+03 0.  1.
</event>
<event>
 4    1  0.1082663E+000  0.1000000E+03  0.7546771E-02  0.1280296E+00
         -2   -1    0    0    0  501 -0.00000000000E+00  0.00000000000E+00  0.14677824177E+03  0.14677824177E+03  0.00000000000E+00 0.  1.
          2   -1    0    0  502    0  0.00000000000E+00 -0.00000000000E+00 -0.44005630796E+03  0.44005630796E+03  0.00000000000E+00 0. -1.
          6    1    1    2  502    0 -0.90231752658E+02  0.31466313917E+02  0.37830377693E+02  0.20122632923E+03  0.17300000000E+03 0. -1.
         -6    1    1    2    0  501  0.90231752658E+02 -0.31466313917E+02 -0.33110844389E+03  0.38560822049E+03  0.17300000000E+03 0.  1.
</event>
<event>
 4    1  0.1082663E+000  0.1000000E+03  0.7546771E-02  0.1280296E+00
         -1   -1    0    0    0  501 -0.00000000000E+00  0.00000000000E+00  0.19811396748E+03  0.19811396748E+03  0.00000000000E+00 0.  1.
          1   -1    0    0  502    0  0.00000000000E+00 -0.00000000000E+00 -0.71924277608E+03  0.71924277608E+03  0.00000000000E+00 0. -1.
          6    1    1    2  502    0 -0.29103322843E+03 -0.16674798302E+03 -0.25132562309E+03  0.45343003728E+03  0.17300000000E+03 0. -1.
         -6    1    1    2    0  501  0.29103322843E+03  0.16674798302E+03 -0.26980318551E+03  0.46392670628E+03  0.17300000000E+03 0.  1.
</event>
<event>
 4    1  0.1082663E+000  0.1000000E+03  0.7546771E-02  0.1280296E+00
         -1   -1    0    0    0  501 -0.00000000000E+00  0.00000000000E+00  0.59233434669E+02  0.59233434669E+02  0.00000000000E+00 0.  1.
          1   -1    0    0  502    0  0.00000000000E+00 -0.00000000000E+00 -0.17661084526E+04  0.17661084526E+04  0.00000000000E+00 0. -1.
          6    1    1    2  502    0  0.82959681085E+02  0.15832699692E+03 -0.14367596529E+04  0.14581347835E+04  0.17300000000E+03 0. -1.
         -6    1    1    2    0  501 -0.82959681085E+02 -0.15832699692E+03 -0.27011536506E+03  0.36720710380E+03  0.17300000000E+03 0.  1.
</event>
<event>
 4    1  0.1082663E+000  0.1000000E+03  0.7546771E-02  0.1280296E+00
          1   -1    0    0  502    0  0.00000000000E+00  0.00000000000E+00  0.88494838486E+02  0.88494838486E+02  0.00000000000E+00 0.  1.
         -1   -1    0    0    0  501 -0.00000000000E+00 -0.00000000000E+00 -0.41815076901E+03  0.41815076901E+03  0.00000000000E+00 0. -1.
          6    1    1    2  502    0 -0.18586994103E+02  0.10400346317E+02 -0.57669025267E+02  0.18359836608E+03  0.17300000000E+03 0.  1.
         -6    1    1    2    0  501  0.18586994103E+02 -0.10400346317E+02 -0.27198690526E+03  0.32304724141E+03  0.17300000000E+03 0. -1.
</event>
<event>
 4    1  0.1082663E+000  0.1000000E+03  0.7546771E-02  0.1280296E+00
          1   -1    0    0  502    0  0.00000000000E+00  0.00000000000E+00  0.19118745820E+04  0.19118745820E+04  0.00000000000E+00 0.  1.
         -1   -1    0    0    0  501 -0.00000000000E+00 -0.00000000000E+00 -0.61018659431E+02  0.61018659431E+02  0.00000000000E+00 0. -1.
          6    1    1    2  502    0 -0.20227379151E+03  0.10998325872E+03  0.14557705093E+04  0.14839837532E+04  0.17300000000E+03 0.  1.
         -6    1    1    2    0  501  0.20227379151E+03 -0.10998325872E+03  0.39508541328E+03  0.48890948827E+03  0.17300000000E+03 0. -1.
</event>
<event>
 4    1  0.1082663E+000  0.1000000E+03  0.7546771E-02  0.1280296E+00
          2   -1    0    0  502    0  0.00000000000E+00  0.00000000000E+00  0.29802052797E+03  0.29802052797E+03  0.00000000000E+00 0.  1.
         -2   -1    0    0    0  501 -0.00000000000E+00 -0.00000000000E+00 -0.15791578161E+03  0.15791578161E+03  0.00000000000E+00 0. -1.
          6    1    1    2  502    0 -0.11527425833E+03 -0.60210010620E+02  0.54474885072E+02  0.22318134581E+03  0.17300000000E+03 0.  1.
         -6    1    1    2    0  501  0.11527425833E+03  0.60210010620E+02  0.85629861291E+02  0.23275496377E+03  0.17300000000E+03 0. -1.
</event>
<event>
 4    1  0.1082663E+000  0.1000000E+03  0.7546771E-02  0.1280296E+00
          2   -1    0    0  502    0  0.00000000000E+00  0.00000000000E+00  0.99092147974E+03  0.99092147974E+03  0.00000000000E+00 0.  1.
         -2   -1    0    0    0  501 -0.00000000000E+00 -0.00000000000E+00 -0.35495927663E+02  0.35495927663E+02  0.00000000000E+00 0. -1.
          6    1    1    2  502    0  0.46043508963E+02 -0.53786903996E+02  0.43606486505E+03  0.47444135811E+03  0.17300000000E+03 0.  1.
         -6    1    1    2    0  501 -0.46043508963E+02  0.53786903996E+02  0.51936068703E+03  0.55197604930E+03  0.17300000000E+03 0. -1.
</event>
<event>
 4    1  0.1082663E+000  0.1000000E+03  0.7546771E-02  0.1280296E+00
          3   -1    0    0  502    0  0.00000000000E+00  0.00000000000E+00  0.87716797309E+02  0.87716797309E+02  0.00000000000E+00 0. -1.
         -3   -1    0    0    0  501 -0.00000000000E+00 -0.00000000000E+00 -0.42045736995E+03  0.42045736995E+03  0.00000000000E+00 0.  1.
          6    1    1    2  502    0  0.37682979390E+02 -0.34209145012E+02 -0.25375151371E+03  0.31130226990E+03  0.17300000000E+03 0. -1.
         -6    1    1    2    0  501 -0.37682979390E+02  0.34209145012E+02 -0.78989058936E+02  0.19687189736E+03  0.17300000000E+03 0.  1.
</event>
<event>
 4    1  0.1082663E+000  0.1000000E+03  0.7546771E-02  0.1280296E+00
          1   -1    0    0  502    0  0.00000000000E+00  0.00000000000E+00  0.18807724087E+03  0.18807724087E+03  0.00000000000E+00 0. -1.
         -1   -1    0    0    0  501 -0.00000000000E+00 -0.00000000000E+00 -0.26503601568E+03  0.26503601568E+03  0.00000000000E+00 0.  1.
          6    1    1    2  502    0  0.13788515488E+03 -0.28252045940E+02 -0.49012624702E+02  0.22834564024E+03  0.17300000000E+03 0.  1.
         -6    1    1    2    0  501 -0.13788515488E+03  0.28252045940E+02 -0.27946150104E+02  0.22476761631E+03  0.17300000000E+03 0. -1.
</event>
<event>
 4    1  0.1082663E+000  0.1000000E+03  0.7546771E-02  0.1280296E+00
          2   -1    0    0  502    0  0.00000000000E+00  0.00000000000E+00  0.11957565056E+04  0.11957565056E+04  0.00000000000E+00 0.  1.
         -2   -1    0    0    0  501 -0.00000000000E+00 -0.00000000000E+00 -0.47137528909E+02  0.47137528909E+02  0.00000000000E+00 0. -1.
          6    1    1    2  502    0  0.11251717486E+02 -0.16151276622E+03  0.61340104515E+03  0.65757343087E+03  0.17300000000E+03 0. -1.
         -6    1    1    2    0  501 -0.11251717486E+02  0.16151276622E+03  0.53521793152E+03  0.58532060362E+03  0.17300000000E+03 0.  1.
</event>
<event>
 4    1  0.1082663E+000  0.1000000E+03  0.7546771E-02  0.1280296E+00
          1   -1    0    0  502    0  0.00000000000E+00  0.00000000000E+00  0.11246959497E+03  0.11246959497E+03  0.00000000000E+00 0. -1.
         -1   -1    0    0    0  501 -0.00000000000E+00 -0.00000000000E+00 -0.45952155860E+03  0.45952155860E+03  0.00000000000E+00 0.  1.
          6    1    1    2  502    0  0.10442853570E+03 -0.31267580426E+02 -0.48542595899E+02  0.21016270904E+03  0.17300000000E+03 0. -1.
         -6    1    1    2    0  501 -0.10442853570E+03  0.31267580426E+02 -0.29850936773E+03  0.36182844454E+03  0.17300000000E+03 0.  1.
</event>
<event>
 4    1  0.1082663E+000  0.1000000E+03  0.7546771E-02  0.1280296E+00
          2   -1    0    0  502    0  0.00000000000E+00  0.00000000000E+00  0.11928610326E+04  0.11928610326E+04  0.00000000000E+00 0. -1.
         -2   -1    0    0    0  501 -0.00000000000E+00 -0.00000000000E+00 -0.81165586184E+02  0.81165586184E+02  0.00000000000E+00 0.  1.
          6    1    1    2  502    0  0.19075002358E+03  0.33106255687E+02  0.20476835954E+03  0.33066701791E+03  0.17300000000E+03 0. -1.
         -6    1    1    2    0  501 -0.19075002358E+03 -0.33106255687E+02  0.90692708689E+03  0.94335960089E+03  0.17300000000E+03 0.  1.
</event>
<event>
 4    1  0.1082663E+000  0.1000000E+03  0.7546771E-02  0.1280296E+00
          2   -1    0    0  502    0  0.00000000000E+00  0.00000000000E+00  0.23231804512E+03  0.23231804512E+03  0.00000000000E+00 0. -1.
         -2   -1    0    0    0  501 -0.00000000000E+00 -0.00000000000E+00 -0.51705226453E+03  0.51705226453E+03  0.00000000000E+00 0.  1.
          6    1    1    2  502    0  0.16398483035E+03 -0.15822341561E+03  0.69110183878E+02  0.29433126125E+03  0.17300000000E+03 0. -1.
         -6    1    1    2    0  501 -0.16398483035E+03  0.15822341561E+03 -0.35384440328E+03  0.45503904840E+03  0.17300000000E+03 0.  1.
</event>
<event>
 4    1  0.1082663E+000  0.1000000E+03  0.7546771E-02  0.1280296E+00
         -2   -1    0    0    0  501 -0.00000000000E+00  0.00000000000E+00  0.37593919140E+03  0.37593919140E+03  0.00000000000E+00 0.  1.
          2   -1    0    0  502    0  0.00000000000E+00 -0.00000000000E+00 -0.10596672609E+03  0.10596672609E+03  0.00000000000E+00 0. -1.
          6    1    1    2  502    0  0.75004445063E+02  0.32835287008E+02  0.20332230823E+03  0.27923607195E+03  0.17300000000E+03 0.  1.
         -6    1    1    2    0  501 -0.75004445063E+02 -0.32835287008E+02  0.66650157087E+02  0.20266984554E+03  0.17300000000E+03 0.  1.
</event>
<event>
 4    1  0.1082663E+000  0.1000000E+03  0.7546771E-02  0.1280296E+00
         -2   -1    0    0    0  501 -0.00000000000E+00  0.00000000000E+00  0.26412898483E+02  0.26412898483E+02  0.00000000000E+00 0.  1.
          2   -1    0    0  502    0  0.00000000000E+00 -0.00000000000E+00 -0.16719380399E+04  0.16719380399E+04  0.00000000000E+00 0. -1.
          6    1    1    2  502    0  0.54353343642E+02  0.86322967988E+02 -0.57282023526E+03  0.60700738273E+03  0.17300000000E+03 0.  1.
         -6    1    1    2    0  501 -0.54353343642E+02 -0.86322967988E+02 -0.10727049062E+04  0.10913435557E+04  0.17300000000E+03 0.  1.
</event>
<event>
 4    1  0.1082663E+000  0.1000000E+03  0.7546771E-02  0.1280296E+00
         -2   -1    0    0    0  501 -0.00000000000E+00  0.00000000000E+00  0.19406856140E+02  0.19406856140E+02  0.00000000000E+00 0.  1.
          2   -1    0    0  502    0  0.00000000000E+00 -0.00000000000E+00 -0.29505773279E+04  0.29505773279E+04  0.00000000000E+00 0. -1.
          6    1    1    2  502    0  0.10077775873E+03 -0.10342219963E+02 -0.22763615447E+04  0.22851726413E+04  0.17300000000E+03 0.  1.
         -6    1    1    2    0  501 -0.10077775873E+03  0.10342219963E+02 -0.65480892704E+03  0.68481154276E+03  0.17300000000E+03 0.  1.
</event>
<event>
 4    1  0.1082663E+000  0.1000000E+03  0.7546771E-02  0.1280296E+00
         -2   -1    0    0    0  501 -0.00000000000E+00  0.00000000000E+00  0.30631879420E+02  0.30631879420E+02  0.00000000000E+00 0.  1.
          2   -1    0    0  502    0  0.00000000000E+00 -0.00000000000E+00 -0.10604140295E+04  0.10604140295E+04  0.00000000000E+00 0. -1.
          6    1    1    2  502    0  0.44816480190E+02 -0.20846734499E+02 -0.48309182703E+03  0.51550927885E+03  0.17300000000E+03 0.  1.
         -6    1    1    2    0  501 -0.44816480190E+02  0.20846734499E+02 -0.54669032303E+03  0.57553663005E+03  0.17300000000E+03 0.  1.
</event>
<event>
 4    1  0.1082663E+000  0.1000000E+03  0.7546771E-02  0.1280296E+00
          1   -1    0    0  502    0  0.00000000000E+00  0.00000000000E+00  0.34736755716E+03  0.34736755716E+03  0.00000000000E+00 0.  1.
         -1   -1    0    0    0  501 -0.00000000000E+00 -0.00000000000E+00 -0.15257456914E+03  0.15257456914E+03  0.00000000000E+00 0. -1.
          6    1    1    2  502    0 -0.14325394153E+03 -0.32302806782E+02  0.55269113962E+02  0.23355692678E+03  0.17300000000E+03 0.  1.
         -6    1    1    2    0  501  0.14325394153E+03  0.32302806782E+02  0.13952387407E+03  0.26638519952E+03  0.17300000000E+03 0.  1.
</event>
<event>
 4    1  0.1082663E+000  0.1000000E+03  0.7546771E-02  0.1280296E+00
          2   -1    0    0  502    0  0.00000000000E+00  0.00000000000E+00  0.72039712609E+03  0.72039712609E+03  0.00000000000E+00 0.  1.
         -2   -1    0    0    0  501 -0.00000000000E+00 -0.00000000000E+00 -0.62352049147E+02  0.62352049147E+02  0.00000000000E+00 0. -1.
          6    1    1    2  502    0 -0.11620619809E+02  0.17902842217E+01  0.10398290085E+03  0.20218725872E+03  0.17300000000E+03 0.  1.
         -6    1    1    2    0  501  0.11620619809E+02 -0.17902842217E+01  0.55406217610E+03  0.58056191651E+03  0.17300000000E+03 0.  1.
</event>
<event>
 4    1  0.1082663E+000  0.1000000E+03  0.7546771E-02  0.1280296E+00
          1   -1    0    0  502    0  0.00000000000E+00  0.00000000000E+00  0.18550730051E+03  0.18550730051E+03  0.00000000000E+00 0.  1.
         -1   -1    0    0    0  501 -0.00000000000E+00 -0.00000000000E+00 -0.38516058013E+03  0.38516058013E+03  0.00000000000E+00 0. -1.
          6    1    1    2  502    0  0.83594388059E+02 -0.85119911645E+02  0.76507055573E+02  0.22364201445E+03  0.17300000000E+03 0.  1.
         -6    1    1    2    0  501 -0.83594388059E+02  0.85119911645E+02 -0.27616033519E+03  0.34702586619E+03  0.17300000000E+03 0.  1.
</event>
<event>
 4    1  0.1082663E+000  0.1000000E+03  0.7546771E-02  0.1280296E+00
          4   -1    0    0  502    0  0.00000000000E+00  0.00000000000E+00  0.70439103000E+03  0.70439103000E+03  0.00000000000E+00 0.  1.
         -4   -1    0    0    0  501 -0.00000000000E+00 -0.00000000000E+00 -0.79286115097E+02  0.79286115097E+02  0.00000000000E+00 0. -1.
          6    1    1    2  502    0 -0.23544413261E+02 -0.13457352944E+03  0.17132405899E+03  0.27918686826E+03  0.17300000000E+03 0.  1.
         -6    1    1    2    0  501  0.23544413261E+02  0.13457352944E+03  0.45378085592E+03  0.50449027683E+03  0.17300000000E+03 0.  1.
</event>
<event>
 4    1  0.1082663E+000  0.1000000E+03  0.7546771E-02  0.1280296E+00
         -2   -1    0    0    0  501 -0.00000000000E+00  0.00000000000E+00  0.14965499760E+03  0.14965499760E+03  0.00000000000E+00 0.  1.
          2   -1    0    0  502    0  0.00000000000E+00 -0.00000000000E+00 -0.26590950043E+03  0.26590950043E+03  0.00000000000E+00 0. -1.
          6    1    1    2  502    0 -0.85425175986E+02  0.12936121437E+02 -0.70907041326E+01  0.19350473383E+03  0.17300000000E+03 0. -1.
         -6    1    1    2    0  501  0.85425175986E+02 -0.12936121437E+02 -0.10916379870E+03  0.22205976420E+03  0.17300000000E+03 0.  1.
</event>
<event>
 4    1  0.1082663E+000  0.1000000E+03  0.7546771E-02  0.1280296E+00
         -2   -1    0    0    0  501 -0.00000000000E+00  0.00000000000E+00  0.35016752193E+02  0.35016752193E+02  0.00000000000E+00 0.  1.
          2   -1    0    0  502    0  0.00000000000E+00 -0.00000000000E+00 -0.13269932852E+04  0.13269932852E+04  0.00000000000E+00 0. -1.
          6    1    1    2  502    0  0.44095158292E+02 -0.85566041691E+02 -0.37658250382E+03  0.42545189230E+03  0.17300000000E+03 0. -1.
         -6    1    1    2    0  501 -0.44095158292E+02  0.85566041691E+02 -0.91539402921E+03  0.93655814512E+03  0.17300000000E+03 0.  1.
</event>
<event>
 4    1  0.1082663E+000  0.1000000E+03  0.7546771E-02  0.1280296E+00
         -1   -1    0    0    0  501 -0.00000000000E+00  0.00000000000E+00  0.17171625497E+03  0.17171625497E+03  0.00000000000E+00 0.  1.
          1   -1    0    0  502    0  0.00000000000E+00 -0.00000000000E+00 -0.43497454348E+03  0.43497454348E+03  0.00000000000E+00 0. -1.
          6    1    1    2  502    0 -0.12050422373E+03  0.16733865759E+03 -0.18415767235E+03  0.32613883937E+03  0.17300000000E+03 0. -1.
         -6    1    1    2    0  501  0.12050422373E+03 -0.16733865759E+03 -0.79100616160E+02  0.28055195907E+03  0.17300000000E+03 0.  1.
</event>
<event>
 4    1  0.1082663E+000  0.1000000E+03  0.7546771E-02  0.1280296E+00
         -2   -1    0    0    0  501 -0.00000000000E+00  0.00000000000E+00  0.24340720954E+02  0.24340720954E+02  0.00000000000E+00 0.  1.
          2   -1    0    0  502    0  0.00000000000E+00 -0.00000000000E+00 -0.16771651048E+04  0.16771651048E+04  0.00000000000E+00 0. -1.
          6    1    1    2  502    0  0.48588342883E+00 -0.91716877380E+02 -0.10361931137E+04  0.10545318348E+04  0.17300000000E+03 0. -1.
         -6    1    1    2    0  501 -0.48588342883E+00  0.91716877380E+02 -0.61663127013E+03  0.64697399096E+03  0.17300000000E+03 0.  1.
</event>
<event>
 4    1  0.1082663E+000  0.1000000E+03  0.7546771E-02  0.1280296E+00
          2   -1    0    0  502    0  0.00000000000E+00  0.00000000000E+00  0.18180618330E+04  0.18180618330E+04  0.00000000000E+00 0.  1.
         -2   -1    0    0    0  501 -0.00000000000E+00 -0.00000000000E+00 -0.17108748108E+02  0.17108748108E+02  0.00000000000E+00 0. -1.
          6    1    1    2  502    0 -0.16942396727E+01  0.30671133712E+02  0.82120105700E+03  0.83978792853E+03  0.17300000000E+03 0.  1.
         -6    1    1    2    0  501  0.16942396727E+01 -0.30671133712E+02  0.97975202791E+03  0.99538265260E+03  0.17300000000E+03 0. -1.
</event>
<event>
 4    1  0.1082663E+000  0.1000000E+03  0.7546771E-02  0.1280296E+00
          2   -1    0    0  502    0  0.00000000000E+00  0.00000000000E+00  0.57784181762E+03  0.57784181762E+03  0.00000000000E+00 0.  1.
         -2   -1    0    0    0  501 -0.00000000000E+00 -0.00000000000E+00 -0.86817936297E+02  0.86817936297E+02  0.00000000000E+00 0. -1.
          6    1    1    2  502    0  0.42133563873E+02  0.13371375664E+03  0.20967310604E+03  0.30585358804E+03  0.17300000000E+03 0.  1.
         -6    1    1    2    0  501 -0.42133563873E+02 -0.13371375664E+03  0.28135077529E+03  0.35880616588E+03  0.17300000000E+03 0. -1.
</event>
<event>
 4    1  0.1082663E+000  0.1000000E+03  0.7546771E-02  0.1280296E+00
          2   -1    0    0  502    0  0.00000000000E+00  0.00000000000E+00  0.23555139503E+03  0.23555139503E+03  0.00000000000E+00 0.  1.
         -2   -1    0    0    0  501 -0.00000000000E+00 -0.00000000000E+00 -0.14856016377E+03  0.14856016377E+03  0.00000000000E+00 0. -1.
          6    1    1    2  502    0 -0.69413093428E+02  0.12561818680E+02  0.33833019529E+02  0.18986745387E+03  0.17300000000E+03 0.  1.
         -6    1    1    2    0  501  0.69413093428E+02 -0.12561818680E+02  0.53158211733E+02  0.19424410494E+03  0.17300000000E+03 0. -1.
</event>
<event>
 4    1  0.1082663E+000  0.1000000E+03  0.7546771E-02  0.1280296E+00
          2   -1    0    0  502    0  0.00000000000E+00  0.00000000000E+00  0.46204174842E+03  0.46204174842E+03  0.00000000000E+00 0.  1.
         -2   -1    0    0    0  501 -0.00000000000E+00 -0.00000000000E+00 -0.11264639936E+03  0.11264639936E+03  0.00000000000E+00 0. -1.
          6    1    1    2  502    0 -0.43790383391E+02 -0.31898295473E+02  0.34914485830E+03  0.39340339476E+03  0.17300000000E+03 0.  1.
         -6    1    1    2    0  501  0.43790383391E+02  0.31898295473E+02  0.25049076409E+00  0.18128475302E+03  0.17300000000E+03 0. -1.
</event>
<event>
 4    1  0.1082663E+000  0.1000000E+03  0.7546771E-02  0.1280296E+00
         -3   -1    0    0    0  501 -0.00000000000E+00  0.00000000000E+00  0.10505750532E+03  0.10505750532E+03  0.00000000000E+00 0. -1.
          3   -1    0    0  502    0  0.00000000000E+00 -0.00000000000E+00 -0.32664628376E+03  0.32664628376E+03  0.00000000000E+00 0.  1.
          6    1    1    2  502    0 -0.18975420422E+02 -0.44960830059E+02 -0.16298349381E+03  0.24263998449E+03  0.17300000000E+03 0. -1.
         -6    1    1    2    0  501  0.18975420422E+02  0.44960830059E+02 -0.58605284637E+02  0.18906380459E+03  0.17300000000E+03 0.  1.
</event>
<event>
 4    1  0.1082663E+000  0.1000000E+03  0.7546771E-02  0.1280296E+00
         -1   -1    0    0    0  501 -0.00000000000E+00  0.00000000000E+00  0.19583996299E+03  0.19583996299E+03  0.00000000000E+00 0. -1.
          1   -1    0    0  502    0  0.00000000000E+00 -0.00000000000E+00 -0.17288022260E+03  0.17288022260E+03  0.00000000000E+00 0.  1.
          6    1    1    2  502    0  0.14596831261E+02 -0.60789604440E+02  0.15894444894E+02  0.18463498279E+03  0.17300000000E+03 0. -1.
         -6    1    1    2    0  501 -0.14596831261E+02  0.60789604440E+02  0.70652954904E+01  0.18408520280E+03  0.17300000000E+03 0.  1.
</event>
<event>
 4    1  0.1082663E+000  0.1000000E+03  0.7546771E-02  0.1280296E+00
          2   -1    0    0  502    0  0.00000000000E+00  0.00000000000E+00  0.18486141416E+04  0.18486141416E+04  0.00000000000E+00 0. -1.
         -2   -1    0    0    0  501 -0.00000000000E+00 -0.00000000000E+00 -0.28797698622E+02  0.28797698622E+02  0.00000000000E+00 0.  1.
          6    1    1    2  502    0 -0.88956354676E+02  0.78161824743E+02  0.13019233179E+04  0.13186947446E+04  0.17300000000E+03 0. -1.
         -6    1    1    2    0  501  0.88956354676E+02 -0.78161824743E+02  0.51789312515E+03  0.55871709565E+03  0.17300000000E+03 0.  1.
</event>
<event>
 4    1  0.1082663E+000  0.1000000E+03  0.7546771E-02  0.1280296E+00
          2   -1    0    0  502    0  0.00000000000E+00  0.00000000000E+00  0.39914155905E+02  0.39914155905E+02  0.00000000000E+00 0. -1.
         -2   -1    0    0    0  501 -0.00000000000E+00 -0.00000000000E+00 -0.77536924246E+03  0.77536924246E+03  0.00000000000E+00 0.  1.
          6    1    1    2  502    0 -0.17411345244E+02 -0.19185004838E+02 -0.41095342867E+03  0.44663513060E+03  0.17300000000E+03 0. -1.
         -6    1    1    2    0  501  0.17411345244E+02  0.19185004838E+02 -0.32450165789E+03  0.36864826777E+03  0.17300000000E+03 0.  1.
</event>
<event>
 4    1  0.1082663E+000  0.1000000E+03  0.7546771E-02  0.1280296E+00
          1   -1    0    0  502    0  0.00000000000E+00  0.00000000000E+00  0.12757671608E+04  0.12757671608E+04  0.00000000000E+00 0.  1.
         -1   -1    0    0    0  501 -0.00000000000E+00 -0.00000000000E+00 -0.28443803469E+02  0.28443803469E+02  0.00000000000E+00 0. -1.
          6    1    1    2  502    0  0.33694093610E+02 -0.13901444518E+02  0.38087333185E+03  0.41990717667E+03  0.17300000000E+03 0.  1.
         -6    1    1    2    0  501 -0.33694093610E+02  0.13901444518E+02  0.86645002544E+03  0.88430378756E+03  0.17300000000E+03 0. -1.
</event>
<event>
 4    1  0.1082663E+000  0.1000000E+03  0.7546771E-02  0.1280296E+00
          2   -1    0    0  502    0  0.00000000000E+00  0.00000000000E+00  0.16808805826E+04  0.16808805826E+04  0.00000000000E+00 0.  1.
         -2   -1    0    0    0  501 -0.00000000000E+00 -0.00000000000E+00 -0.23998005838E+02  0.23998005838E+02  0.00000000000E+00 0. -1.
          6    1    1    2  502    0  0.55539682783E+01 -0.10091533406E+03  0.76932014625E+03  0.79498253983E+03  0.17300000000E+03 0.  1.
         -6    1    1    2    0  501 -0.55539682783E+01  0.10091533406E+03  0.88756243054E+03  0.90989604863E+03  0.17300000000E+03 0. -1.
</event>
<event>
 4    1  0.1082663E+000  0.1000000E+03  0.7546771E-02  0.1280296E+00
          1   -1    0    0  502    0  0.00000000000E+00  0.00000000000E+00  0.15891954330E+04  0.15891954330E+04  0.00000000000E+00 0.  1.
         -1   -1    0    0    0  501 -0.00000000000E+00 -0.00000000000E+00 -0.20118600784E+02  0.20118600784E+02  0.00000000000E+00 0. -1.
          6    1    1    2  502    0  0.15998841405E+02 -0.17671402976E+02  0.61169974299E+03  0.63613977787E+03  0.17300000000E+03 0. -1.
         -6    1    1    2    0  501 -0.15998841405E+02  0.17671402976E+02  0.95737708926E+03  0.97317425596E+03  0.17300000000E+03 0.  1.
</event>
<event>
 4    1  0.1082663E+000  0.1000000E+03  0.7546771E-02  0.1280296E+00
          1   -1    0    0  502    0  0.00000000000E+00  0.00000000000E+00  0.53220111672E+03  0.53220111672E+03  0.00000000000E+00 0.  1.
         -1   -1    0    0    0  501 -0.00000000000E+00 -0.00000000000E+00 -0.67016134368E+02  0.67016134368E+02  0.00000000000E+00 0. -1.
          6    1    1    2  502    0  0.39162324801E+02 -0.63213352113E+02  0.25544212509E+03  0.31734727798E+03  0.17300000000E+03 0. -1.
         -6    1    1    2    0  501 -0.39162324801E+02  0.63213352113E+02  0.20974285727E+03  0.28186997311E+03  0.17300000000E+03 0.  1.
</event>
<event>
 4    1  0.1082663E+000  0.1000000E+03  0.7546771E-02  0.1280296E+00
          2   -1    0    0  502    0  0.00000000000E+00  0.00000000000E+00  0.11605053262E+04  0.11605053262E+04  0.00000000000E+00 0.  1.
         -2   -1    0    0    0  501 -0.00000000000E+00 -0.00000000000E+00 -0.31376259497E+02  0.31376259497E+02  0.00000000000E+00 0. -1.
          6    1    1    2  502    0  0.61344450667E+02 -0.49216395172E+02  0.61846959888E+03  0.64700775878E+03  0.17300000000E+03 0. -1.
         -6    1    1    2    0  501 -0.61344450667E+02  0.49216395172E+02  0.51065946779E+03  0.54487382688E+03  0.17300000000E+03 0.  1.
</event>
<event>
 4    1  0.1082663E+000  0.1000000E+03  0.7546771E-02  0.1280296E+00
          1   -1    0    0  502    0  0.00000000000E+00  0.00000000000E+00  0.66137363070E+03  0.66137363070E+03  0.00000000000E+00 0. -1.
         -1   -1    0    0    0  501 -0.00000000000E+00 -0.00000000000E+00 -0.88945272992E+02  0.88945272992E+02  0.00000000000E+00 0.  1.
          6    1    1    2  502    0  0.67390168980E+02 -0.15070837755E+03  0.34890414154E+03  0.42298646541E+03  0.17300000000E+03 0.  1.
         -6    1    1    2    0  501 -0.67390168980E+02  0.15070837755E+03  0.22352421617E+03  0.32733243829E+03  0.17300000000E+03 0. -1.
</event>
<event>
 4    1  0.1082663E+000  0.1000000E+03  0.7546771E-02  0.1280296E+00
          1   -1    0    0  502    0  0.00000000000E+00  0.00000000000E+00  0.18310033100E+03  0.18310033100E+03  0.00000000000E+00 0. -1.
         -1   -1    0    0    0  501 -0.00000000000E+00 -0.00000000000E+00 -0.45912264805E+03  0.45912264805E+03  0.00000000000E+00 0.  1.
          6    1    1    2  502    0 -0.14183995371E+03 -0.51538875978E+02  0.58119996539E+02  0.23681588250E+03  0.17300000000E+03 0.  1.
         -6    1    1    2    0  501  0.14183995371E+03  0.51538875978E+02 -0.33414231359E+03  0.40540709655E+03  0.17300000000E+03 0. -1.
</event>
<event>
 4    1  0.1082663E+000  0.1000000E+03  0.7546771E-02  0.1280296E+00
         -2   -1    0    0    0  501 -0.00000000000E+00  0.00000000000E+00  0.50721773176E+03  0.50721773176E+03  0.00000000000E+00 0. -1.
          2   -1    0    0  502    0  0.00000000000E+00 -0.00000000000E+00 -0.85770109330E+02  0.85770109330E+02  0.00000000000E+00 0.  1.
          6    1    1    2  502    0 -0.99352664795E+02 -0.20806088337E+02  0.29202728918E+03  0.35427783298E+03  0.17300000000E+03 0.  1.
         -6    1    1    2    0  501  0.99352664795E+02  0.20806088337E+02  0.12942033325E+03  0.23871000811E+03  0.17300000000E+03 0. -1.
</event>
<event>
 4    1  0.1082663E+000  0.1000000E+03  0.7546771E-02  0.1280296E+00
         -1   -1    0    0    0  501 -0.00000000000E+00  0.00000000000E+00  0.78843557029E+02  0.78843557029E+02  0.00000000000E+00 0.  1.
          1   -1    0    0  502    0  0.00000000000E+00 -0.00000000000E+00 -0.78732349158E+03  0.78732349158E+03  0.00000000000E+00 0. -1.
          6    1    1    2  502    0  0.49540377460E+02 -0.17224954886E+03 -0.36243531332E+03  0.43978689433E+03  0.17300000000E+03 0. -1.
         -6    1    1    2    0  501 -0.49540377460E+02  0.17224954886E+03 -0.34604462124E+03  0.42638015428E+03  0.17300000000E+03 0.  1.
</event>
<event>
 4    1  0.1082663E+000  0.1000000E+03  0.7546771E-02  0.1280296E+00
         -2   -1    0    0    0  501 -0.00000000000E+00  0.00000000000E+00  0.19293419108E+03  0.19293419108E+03  0.00000000000E+00 0.  1.
          2   -1    0    0  502    0  0.00000000000E+00 -0.00000000000E+00 -0.40640461098E+03  0.40640461098E+03  0.00000000000E+00 0. -1.
          6    1    1    2  502    0 -0.40676596913E+02  0.19781137698E+03 -0.12848780313E+02  0.26622925751E+03  0.17300000000E+03 0. -1.
         -6    1    1    2    0  501  0.40676596913E+02 -0.19781137698E+03 -0.20062163958E+03  0.33310954455E+03  0.17300000000E+03 0.  1.
</event>
<event>
 4    1  0.1082663E+000  0.1000000E+03  0.7546771E-02  0.1280296E+00
          1   -1    0    0  502    0  0.00000000000E+00  0.00000000000E+00  0.61050709523E+03  0.61050709523E+03  0.00000000000E+00 0.  1.
         -1   -1    0    0    0  501 -0.00000000000E+00 -0.00000000000E+00 -0.70298328795E+02  0.70298328795E+02  0.00000000000E+00 0. -1.
          6    1    1    2  502    0  0.10876688634E+03 -0.25475241770E+01  0.21433663347E+03  0.29615184938E+03  0.17300000000E+03 0.  1.
         -6    1    1    2    0  501 -0.10876688634E+03  0.25475241770E+01  0.32587213297E+03  0.38465357465E+03  0.17300000000E+03 0. -1.
</event>
<event>
 4    1  0.1082663E+000  0.1000000E+03  0.7546771E-02  0.1280296E+00
          1   -1    0    0  502    0  0.00000000000E+00  0.00000000000E+00  0.40334360903E+03  0.40334360903E+03  0.00000000000E+00 0.  1.
         -1   -1    0    0    0  501 -0.00000000000E+00 -0.00000000000E+00 -0.15658486317E+03  0.15658486317E+03  0.00000000000E+00 0. -1.
          6    1    1    2  502    0  0.10204311796E+03  0.15006133275E+03  0.10417105969E+03  0.27149919187E+03  0.17300000000E+03 0.  1.
         -6    1    1    2    0  501 -0.10204311796E+03 -0.15006133275E+03  0.14258768616E+03  0.28842928033E+03  0.17300000000E+03 0. -1.
</event>
<event>
 4    1  0.1082663E+000  0.1000000E+03  0.7546771E-02  0.1280296E+00
          1   -1    0    0  502    0  0.00000000000E+00  0.00000000000E+00  0.13354306358E+03  0.13354306358E+03  0.00000000000E+00 0.  1.
         -1   -1    0    0    0  501 -0.00000000000E+00 -0.00000000000E+00 -0.25355495656E+03  0.25355495656E+03  0.00000000000E+00 0. -1.
          6    1    1    2  502    0  0.32929123800E+02 -0.50401947386E+02 -0.78430103132E+02  0.19926104630E+03  0.17300000000E+03 0.  1.
         -6    1    1    2    0  501 -0.32929123800E+02  0.50401947386E+02 -0.41581789850E+02  0.18783697384E+03  0.17300000000E+03 0. -1.
</event>
<event>
 4    1  0.1082663E+000  0.1000000E+03  0.7546771E-02  0.1280296E+00
          2   -1    0    0  502    0  0.00000000000E+00  0.00000000000E+00  0.48495618107E+03  0.48495618107E+03  0.00000000000E+00 0. -1.
         -2   -1    0    0    0  501 -0.00000000000E+00 -0.00000000000E+00 -0.11011149509E+03  0.11011149509E+03  0.00000000000E+00 0.  1.
          6    1    1    2  502    0 -0.11103443335E+03  0.84443448737E+02  0.10587868778E+03  0.24616790601E+03  0.17300000000E+03 0. -1.
         -6    1    1    2    0  501  0.11103443335E+03 -0.84443448737E+02  0.26896599819E+03  0.34889977015E+03  0.17300000000E+03 0.  1.
</event>
<event>
 4    1  0.1082663E+000  0.1000000E+03  0.7546771E-02  0.1280296E+00
         -1   -1    0    0    0  501 -0.00000000000E+00  0.00000000000E+00  0.11129556435E+03  0.11129556435E+03  0.00000000000E+00 0.  1.
          1   -1    0    0  502    0  0.00000000000E+00 -0.00000000000E+00 -0.51307362966E+03  0.51307362966E+03  0.00000000000E+00 0. -1.
          6    1    1    2  502    0  0.97252739557E+02  0.12171356003E+03 -0.13051758864E+03  0.26690096851E+03  0.17300000000E+03 0. -1.
         -6    1    1    2    0  501 -0.97252739557E+02 -0.12171356003E+03 -0.27126047667E+03  0.35746822551E+03  0.17300000000E+03 0.  1.
</event>
<event>
 4    1  0.1082663E+000  0.1000000E+03  0.7546771E-02  0.1280296E+00
          2   -1    0    0  502    0  0.00000000000E+00  0.00000000000E+00  0.42361683047E+04  0.42361683047E+04  0.00000000000E+00 0.  1.
         -2   -1    0    0    0  501 -0.00000000000E+00 -0.00000000000E+00 -0.35785539796E+02  0.35785539796E+02  0.00000000000E+00 0. -1.
          6    1    1    2  502    0 -0.10982490605E+03 -0.59236375406E+02  0.38870977903E+04  0.38929460168E+04  0.17300000000E+03 0.  1.
         -6    1    1    2    0  501  0.10982490605E+03  0.59236375406E+02  0.31328497458E+03  0.37900782770E+03  0.17300000000E+03 0. -1.
</event>
<event>
 4    1  0.1082663E+000  0.1000000E+03  0.7546771E-02  0.1280296E+00
          2   -1    0    0  502    0  0.00000000000E+00  0.00000000000E+00  0.52426606569E+03  0.52426606569E+03  0.00000000000E+00 0. -1.
         -2   -1    0    0    0  501 -0.00000000000E+00 -0.00000000000E+00 -0.12184794316E+03  0.12184794316E+03  0.00000000000E+00 0.  1.
          6    1    1    2  502    0  0.90224851482E+01 -0.18539174196E+02  0.43524856754E+03  0.46882344413E+03  0.17300000000E+03 0.  1.
         -6    1    1    2    0  501 -0.90224851482E+01  0.18539174196E+02 -0.32830445013E+02  0.17729056472E+03  0.17300000000E+03 0. -1.
</event>
<event>
 4    1  0.1082663E+000  0.1000000E+03  0.7546771E-02  0.1280296E+00
         -2   -1    0    0    0  501 -0.00000000000E+00  0.00000000000E+00  0.62706331759E+02  0.62706331759E+02  0.00000000000E+00 0.  1.
          2   -1    0    0  502    0  0.00000000000E+00 -0.00000000000E+00 -0.11779522158E+04  0.11779522158E+04  0.00000000000E+00 0. -1.
          6    1    1    2  502    0 -0.96766479939E+02  0.92101282021E+02 -0.18895362865E+03  0.28892710425E+03  0.17300000000E+03 0.  1.
         -6    1    1    2    0  501  0.96766479939E+02 -0.92101282021E+02 -0.92629225544E+03  0.95173144336E+03  0.17300000000E+03 0. -1.
</event>
<event>
 4    1  0.1082663E+000  0.1000000E+03  0.7546771E-02  0.1280296E+00
         -3   -1    0    0    0  501 -0.00000000000E+00  0.00000000000E+00  0.24381564248E+03  0.24381564248E+03  0.00000000000E+00 0.  1.
          3   -1    0    0  502    0  0.00000000000E+00 -0.00000000000E+00 -0.27962015053E+03  0.27962015053E+03  0.00000000000E+00 0. -1.
          6    1    1    2  502    0  0.53756120984E+02  0.13882662188E+03  0.10921905110E+03  0.25302243499E+03  0.17300000000E+03 0.  1.
         -6    1    1    2    0  501 -0.53756120984E+02 -0.13882662188E+03 -0.14502355915E+03  0.27041335801E+03  0.17300000000E+03 0.  1.
</event>
<event>
 4    1  0.1082663E+000  0.1000000E+03  0.7546771E-02  0.1280296E+00
          1   -1    0    0  502    0  0.00000000000E+00  0.00000000000E+00  0.16128941148E+03  0.16128941148E+03  0.00000000000E+00 0.  1.
         -1   -1    0    0    0  501 -0.00000000000E+00 -0.00000000000E+00 -0.26699394217E+03  0.26699394217E+03  0.00000000000E+00 0. -1.
          6    1    1    2  502    0 -0.69833409294E+02 -0.43305666576E+02  0.29586809865E+02  0.19379490481E+03  0.17300000000E+03 0.  1.
         -6    1    1    2    0  501  0.69833409294E+02  0.43305666576E+02 -0.13529134055E+03  0.23448844884E+03  0.17300000000E+03 0.  1.
</event>
<event>
 4    1  0.1082663E+000  0.1000000E+03  0.7546771E-02  0.1280296E+00
          2   -1    0    0  502    0  0.00000000000E+00  0.00000000000E+00  0.18952034243E+04  0.18952034243E+04  0.00000000000E+00 0.  1.
         -2   -1    0    0    0  501 -0.00000000000E+00 -0.00000000000E+00 -0.25152792668E+02  0.25152792668E+02  0.00000000000E+00 0. -1.
          6    1    1    2  502    0  0.74133589607E+02  0.66043081209E+02  0.13254897938E+04  0.13404139924E+04  0.17300000000E+03 0.  1.
         -6    1    1    2    0  501 -0.74133589607E+02 -0.66043081209E+02  0.54456083788E+03  0.57994222457E+03  0.17300000000E+03 0.  1.
</event>
<event>
 4    1  0.1082663E+000  0.1000000E+03  0.7546771E-02  0.1280296E+00
         -1   -1    0    0    0  501 -0.00000000000E+00  0.00000000000E+00  0.49097307988E+03  0.49097307988E+03  0.00000000000E+00 0. -1.
          1   -1    0    0  502    0  0.00000000000E+00 -0.00000000000E+00 -0.11936304474E+03  0.11936304474E+03  0.00000000000E+00 0.  1.
          6    1    1    2  502    0  0.10732788262E+03 -0.73001482425E+02  0.48715468477E+02  0.22169954374E+03  0.17300000000E+03 0.  1.
         -6    1    1    2    0  501 -0.10732788262E+03  0.73001482425E+02  0.32289456666E+03  0.38863658089E+03  0.17300000000E+03 0. -1.
</event>
<event>
 4    1  0.1082663E+000  0.1000000E+03  0.7546771E-02  0.1280296E+00
         -2   -1    0    0    0  501 -0.00000000000E+00  0.00000000000E+00  0.26303347762E+03  0.26303347762E+03  0.00000000000E+00 0.  1.
          2   -1    0    0  502    0  0.00000000000E+00 -0.00000000000E+00 -0.13000334056E+03  0.13000334056E+03  0.00000000000E+00 0. -1.
          6    1    1    2  502    0  0.42112509233E+02  0.35609567502E+02  0.29323889546E+02  0.18393040866E+03  0.17300000000E+03 0. -1.
         -6    1    1    2    0  501 -0.42112509233E+02 -0.35609567502E+02  0.10370624751E+03  0.20910640953E+03  0.17300000000E+03 0.  1.
</event>
<event>
 4    1  0.1082663E+000  0.1000000E+03  0.7546771E-02  0.1280296E+00
         -2   -1    0    0    0  501 -0.00000000000E+00  0.00000000000E+00  0.11903633471E+03  0.11903633471E+03  0.00000000000E+00 0.  1.
          2   -1    0    0  502    0  0.00000000000E+00 -0.00000000000E+00 -0.50538815272E+03  0.50538815272E+03  0.00000000000E+00 0. -1.
          6    1    1    2  502    0 -0.18214808954E+01 -0.10504886973E+03 -0.16833238903E+02  0.20310327608E+03  0.17300000000E+03 0. -1.
         -6    1    1    2    0  501  0.18214808954E+01  0.10504886973E+03 -0.36951857910E+03  0.42132121134E+03  0.17300000000E+03 0.  1.
</event>
<event>
 4    1  0.1082663E+000  0.1000000E+03  0.7546771E-02  0.1280296E+00
         -1   -1    0    0    0  501 -0.00000000000E+00  0.00000000000E+00  0.12075768126E+03  0.12075768126E+03  0.00000000000E+00 0.  1.
          1   -1    0    0  502    0  0.00000000000E+00 -0.00000000000E+00 -0.41105202630E+03  0.41105202630E+03  0.00000000000E+00 0. -1.
          6    1    1    2  502    0 -0.30099890502E+02  0.19644236372E+02 -0.30711451456E+03  0.35431655971E+03  0.17300000000E+03 0. -1.
         -6    1    1    2    0  501  0.30099890502E+02 -0.19644236372E+02  0.16820169530E+02  0.17749314785E+03  0.17300000000E+03 0.  1.
</event>
<event>
 4    1  0.1082663E+000  0.1000000E+03  0.7546771E-02  0.1280296E+00
          1   -1    0    0  502    0  0.00000000000E+00  0.00000000000E+00  0.11003352646E+04  0.11003352646E+04  0.00000000000E+00 0. -1.
         -1   -1    0    0    0  501 -0.00000000000E+00 -0.00000000000E+00 -0.46641079821E+02  0.46641079821E+02  0.00000000000E+00 0.  1.
          6    1    1    2  502    0  0.11061586667E+02  0.27944301261E+02  0.16449263777E+03  0.24060355474E+03  0.17300000000E+03 0. -1.
         -6    1    1    2    0  501 -0.11061586667E+02 -0.27944301261E+02  0.88920154698E+03  0.90637278965E+03  0.17300000000E+03 0.  1.
</event>
<event>
 4    1  0.1082663E+000  0.1000000E+03  0.7546771E-02  0.1280296E+00
          2   -1    0    0  502    0  0.00000000000E+00  0.00000000000E+00  0.26218592471E+04  0.26218592471E+04  0.00000000000E+00 0. -1.
         -2   -1    0    0    0  501 -0.00000000000E+00 -0.00000000000E+00 -0.25241694265E+02  0.25241694265E+02  0.00000000000E+00 0.  1.
          6    1    1    2  502    0 -0.14130800092E+02 -0.47578634471E+02  0.22440150986E+04  0.22512210395E+04  0.17300000000E+03 0. -1.
         -6    1    1    2    0  501  0.14130800092E+02  0.47578634471E+02  0.35260245430E+03  0.39587990192E+03  0.17300000000E+03 0.  1.
</event>
<event>
 4    1  0.1082663E+000  0.1000000E+03  0.7546771E-02  0.1280296E+00
          2   -1    0    0  502    0  0.00000000000E+00  0.00000000000E+00  0.69103293398E+03  0.69103293398E+03  0.00000000000E+00 0.  1.
         -2   -1    0    0    0  501 -0.00000000000E+00 -0.00000000000E+00 -0.98071930793E+02  0.98071930793E+02  0.00000000000E+00 0. -1.
          6    1    1    2  502    0  0.10547768181E+03 -0.10165780026E+03  0.49046524219E+03  0.54031935327E+03  0.17300000000E+03 0. -1.
         -6    1    1    2    0  501 -0.10547768181E+03  0.10165780026E+03  0.10249576099E+03  0.24878551151E+03  0.17300000000E+03 0.  1.
</event>
<event>
 4    1  0.1082663E+000  0.1000000E+03  0.7546771E-02  0.1280296E+00
          2   -1    0    0  502    0  0.00000000000E+00  0.00000000000E+00  0.82891294485E+03  0.82891294485E+03  0.00000000000E+00 0.  1.
         -2   -1    0    0    0  501 -0.00000000000E+00 -0.00000000000E+00 -0.98648330879E+02  0.98648330879E+02  0.00000000000E+00 0. -1.
          6    1    1    2  502    0 -0.14970639873E+03 -0.17110790292E+02  0.64197712295E+03  0.68173925467E+03  0.17300000000E+03 0. -1.
         -6    1    1    2    0  501  0.14970639873E+03  0.17110790292E+02  0.88287491014E+02  0.24582202105E+03  0.17300000000E+03 0.  1.
</event>
<event>
 4    1  0.1082663E+000  0.1000000E+03  0.7546771E-02  0.1280296E+00
         -3   -1    0    0    0  501 -0.00000000000E+00  0.00000000000E+00  0.10312419881E+03  0.10312419881E+03  0.00000000000E+00 0. -1.
          3   -1    0    0  502    0  0.00000000000E+00 -0.00000000000E+00 -0.57077385049E+03  0.57077385049E+03  0.00000000000E+00 0.  1.
          6    1    1    2  502    0  0.36032107812E+02  0.14964348005E+03 -0.33436095623E+03  0.40671578893E+03  0.17300000000E+03 0. -1.
         -6    1    1    2    0  501 -0.36032107812E+02 -0.14964348005E+03 -0.13328869545E+03  0.26718226036E+03  0.17300000000E+03 0.  1.
</event>
<event>
 4    1  0.1082663E+000  0.1000000E+03  0.7546771E-02  0.1280296E+00
         -2   -1    0    0    0  501 -0.00000000000E+00  0.00000000000E+00  0.26335506794E+02  0.26335506794E+02  0.00000000000E+00 0. -1.
          2   -1    0    0  502    0  0.00000000000E+00 -0.00000000000E+00 -0.20395109382E+04  0.20395109382E+04  0.00000000000E+00 0.  1.
          6    1    1    2  502    0 -0.77886969127E+02  0.10293837352E+03 -0.13826589155E+04  0.13994060759E+04  0.17300000000E+03 0. -1.
         -6    1    1    2    0  501  0.77886969127E+02 -0.10293837352E+03 -0.63051651587E+03  0.66644036904E+03  0.17300000000E+03 0.  1.
</event>
<event>
 4    1  0.1082663E+000  0.1000000E+03  0.7546771E-02  0.1280296E+00
         -2   -1    0    0    0  501 -0.00000000000E+00  0.00000000000E+00  0.12545662457E+03  0.12545662457E+03  0.00000000000E+00 0.  1.
          2   -1    0    0  502    0  0.00000000000E+00 -0.00000000000E+00 -0.55891379457E+03  0.55891379457E+03  0.00000000000E+00 0. -1.
          6    1    1    2  502    0 -0.62648079499E+02  0.19039692155E+03 -0.22167778266E+03  0.34531986465E+03  0.17300000000E+03 0. -1.
         -6    1    1    2    0  501  0.62648079499E+02 -0.19039692155E+03 -0.21177938734E+03  0.33905055449E+03  0.17300000000E+03 0.  1.
</event>
<event>
 4    1  0.1082663E+000  0.1000000E+03  0.7546771E-02  0.1280296E+00
         -1   -1    0    0    0  501 -0.00000000000E+00  0.00000000000E+00  0.12363664985E+03  0.12363664985E+03  0.00000000000E+00 0. -1.
          1   -1    0    0  502    0  0.00000000000E+00 -0.00000000000E+00 -0.26238100025E+03  0.26238100025E+03  0.00000000000E+00 0.  1.
          6    1    1    2  502    0  0.40641727055E+01  0.28361412800E+02 -0.25318376528E+02  0.17717479343E+03  0.17300000000E+03 0.  1.
         -6    1    1    2    0  501 -0.40641727055E+01 -0.28361412800E+02 -0.11342597387E+03  0.20884285668E+03  0.17300000000E+03 0. -1.
</event>
<event>
 4    1  0.1082663E+000  0.1000000E+03  0.7546771E-02  0.1280296E+00
         -1   -1    0    0    0  501 -0.00000000000E+00  0.00000000000E+00  0.10933166106E+04  0.10933166106E+04  0.00000000000E+00 0. -1.
          1   -1    0    0  502    0  0.00000000000E+00 -0.00000000000E+00 -0.69767903571E+02  0.69767903571E+02  0.00000000000E+00 0.  1.
          6    1    1    2  502    0  0.33523219009E+02  0.56983570202E+01  0.64146935338E+02  0.18761691501E+03  0.17300000000E+03 0.  1.
         -6    1    1    2    0  501 -0.33523219009E+02 -0.56983570202E+01  0.95940177167E+03  0.97546759913E+03  0.17300000000E+03 0. -1.
</event>
<event>
 4    1  0.1082663E+000  0.1000000E+03  0.7546771E-02  0.1280296E+00
          1   -1    0    0  502    0  0.00000000000E+00  0.00000000000E+00  0.27408915129E+03  0.27408915129E+03  0.00000000000E+00 0.  1.
         -1   -1    0    0    0  501 -0.00000000000E+00 -0.00000000000E+00 -0.13301338912E+03  0.13301338912E+03  0.00000000000E+00 0. -1.
          6    1    1    2  502    0 -0.53075659619E+02 -0.28705993246E+02  0.13253167364E+02  0.18370004392E+03  0.17300000000E+03 0.  1.
         -6    1    1    2    0  501  0.53075659619E+02  0.28705993246E+02  0.12782259480E+03  0.22340249648E+03  0.17300000000E+03 0. -1.
</event>
<event>
 4    1  0.1082663E+000  0.1000000E+03  0.7546771E-02  0.1280296E+00
          3   -1    0    0  502    0  0.00000000000E+00  0.00000000000E+00  0.17080161551E+03  0.17080161551E+03  0.00000000000E+00 0.  1.
         -3   -1    0    0    0  501 -0.00000000000E+00 -0.00000000000E+00 -0.24249192852E+03  0.24249192852E+03  0.00000000000E+00 0. -1.
          6    1    1    2  502    0 -0.70751853866E+02  0.15592475448E+02  0.44364837304E+02  0.19273346597E+03  0.17300000000E+03 0.  1.
         -6    1    1    2    0  501  0.70751853866E+02 -0.15592475448E+02 -0.11605515032E+03  0.22056007805E+03  0.17300000000E+03 0. -1.
</event>
<event>
 4    1  0.1082663E+000  0.1000000E+03  0.7546771E-02  0.1280296E+00
         -2   -1    0    0    0  501 -0.00000000000E+00  0.00000000000E+00  0.32577542915E+03  0.32577542915E+03  0.00000000000E+00 0. -1.
          2   -1    0    0  502    0  0.00000000000E+00 -0.00000000000E+00 -0.10508913065E+03  0.10508913065E+03  0.00000000000E+00 0.  1.
          6    1    1    2  502    0 -0.60595480207E+02  0.11041628839E+02  0.13670741884E+03  0.22893590403E+03  0.17300000000E+03 0.  1.
         -6    1    1    2    0  501  0.60595480207E+02 -0.11041628839E+02  0.83978879662E+02  0.20192865576E+03  0.17300000000E+03 0. -1.
</event>
<event>
 4    1  0.1082663E+000  0.1000000E+03  0.7546771E-02  0.1280296E+00
          2   -1    0    0  502    0  0.00000000000E+00  0.00000000000E+00  0.11870457511E+04  0.11870457511E+04  0.00000000000E+00 0.  1.
         -2   -1    0    0    0  501 -0.00000000000E+00 -0.00000000000E+00 -0.36664589436E+02  0.36664589436E+02  0.00000000000E+00 0. -1.
          6    1    1    2  502    0  0.75108545225E+02 -0.89145653234E+02  0.56843604942E+03  0.60550539497E+03  0.17300000000E+03 0.  1.
         -6    1    1    2    0  501 -0.75108545225E+02  0.89145653234E+02  0.58194511220E+03  0.61820494553E+03  0.17300000000E+03 0. -1.
</event>
<event>
 4    1  0.1082663E+000  0.1000000E+03  0.7546771E-02  0.1280296E+00
          1   -1    0    0  502    0  0.00000000000E+00  0.00000000000E+00  0.13333814362E+04  0.13333814362E+04  0.00000000000E+00 0.  1.
         -1   -1    0    0    0  501 -0.00000000000E+00 -0.00000000000E+00 -0.58952377726E+02  0.58952377726E+02  0.00000000000E+00 0. -1.
          6    1    1    2  502    0 -0.11553470177E+03  0.11861853816E+03  0.27517949080E+03  0.36478949692E+03  0.17300000000E+03 0.  1.
         -6    1    1    2    0  501  0.11553470177E+03 -0.11861853816E+03  0.99924956771E+03  0.10275443170E+04  0.17300000000E+03 0. -1.
</event>
<event>
 4    1  0.1082663E+000  0.1000000E+03  0.7546771E-02  0.1280296E+00
          2   -1    0    0  502    0  0.00000000000E+00  0.00000000000E+00  0.28787783311E+03  0.28787783311E+03  0.00000000000E+00 0.  1.
         -2   -1    0    0    0  501 -0.00000000000E+00 -0.00000000000E+00 -0.18410476395E+03  0.18410476395E+03  0.00000000000E+00 0. -1.
          6    1    1    2  502    0 -0.56153512324E+02  0.10470345187E+03 -0.45116135712E+02  0.21466367993E+03  0.17300000000E+03 0.  1.
         -6    1    1    2    0  501  0.56153512324E+02 -0.10470345187E+03  0.14888920487E+03  0.25731891712E+03  0.17300000000E+03 0. -1.
</event>
<event>
 4    1  0.1082663E+000  0.1000000E+03  0.7546771E-02  0.1280296E+00
          2   -1    0    0  502    0  0.00000000000E+00  0.00000000000E+00  0.34795507631E+04  0.34795507631E+04  0.00000000000E+00 0.  1.
         -2   -1    0    0    0  501 -0.00000000000E+00 -0.00000000000E+00 -0.12794841742E+02  0.12794841742E+02  0.00000000000E+00 0. -1.
          6    1    1    2  502    0  0.27263968203E+02  0.35535579487E+02  0.26617845888E+04  0.26677766583E+04  0.17300000000E+03 0.  1.
         -6    1    1    2    0  501 -0.27263968203E+02 -0.35535579487E+02  0.80497133259E+03  0.82456894658E+03  0.17300000000E+03 0. -1.
</event>
<event>
 4    1  0.1082663E+000  0.1000000E+03  0.7546771E-02  0.1280296E+00
          2   -1    0    0  502    0  0.00000000000E+00  0.00000000000E+00  0.17077780612E+04  0.17077780612E+04  0.00000000000E+00 0.  1.
         -2   -1    0    0    0  501 -0.00000000000E+00 -0.00000000000E+00 -0.35319209042E+02  0.35319209042E+02  0.00000000000E+00 0. -1.
          6    1    1    2  502    0  0.11329913423E+02 -0.16539364347E+03  0.64496268111E+03  0.68803290929E+03  0.17300000000E+03 0.  1.
         -6    1    1    2    0  501 -0.11329913423E+02  0.16539364347E+03  0.10274961711E+04  0.10550643610E+04  0.17300000000E+03 0. -1.
</event>
<event>
 4    1  0.1082663E+000  0.1000000E+03  0.7546771E-02  0.1280296E+00
          2   -1    0    0  502    0  0.00000000000E+00  0.00000000000E+00  0.26611629485E+04  0.26611629485E+04  0.00000000000E+00 0. -1.
         -2   -1    0    0    0  501 -0.00000000000E+00 -0.00000000000E+00 -0.31566128775E+02  0.31566128775E+02  0.00000000000E+00 0.  1.
          6    1    1    2  502    0  0.10360337431E+03  0.10185502460E+03  0.21582227866E+04  0.21700144474E+04  0.17300000000E+03 0.  1.
         -6    1    1    2    0  501 -0.10360337431E+03 -0.10185502460E+03  0.47137403308E+03  0.52271462986E+03  0.17300000000E+03 0. -1.
</event>
<event>
 4    1  0.1082663E+000  0.1000000E+03  0.7546771E-02  0.1280296E+00
          1   -1    0    0  502    0  0.00000000000E+00  0.00000000000E+00  0.12962495241E+03  0.12962495241E+03  0.00000000000E+00 0. -1.
         -1   -1    0    0    0  501 -0.00000000000E+00 -0.00000000000E+00 -0.28221894601E+03  0.28221894601E+03  0.00000000000E+00 0.  1.
          6    1    1    2  502    0  0.55641677067E+02  0.58564279467E+02 -0.64123664257E+02  0.20141155720E+03  0.17300000000E+03 0.  1.
         -6    1    1    2    0  501 -0.55641677067E+02 -0.58564279467E+02 -0.88470329349E+02  0.21043234122E+03  0.17300000000E+03 0. -1.
</event>
<event>
 4    1  0.1082663E+000  0.1000000E+03  0.7546771E-02  0.1280296E+00
          2   -1    0    0  502    0  0.00000000000E+00  0.00000000000E+00  0.52551778111E+03  0.52551778111E+03  0.00000000000E+00 0. -1.
         -2   -1    0    0    0  501 -0.00000000000E+00 -0.00000000000E+00 -0.10119110536E+03  0.10119110536E+03  0.00000000000E+00 0.  1.
          6    1    1    2  502    0  0.12389620702E+03  0.41608620666E+02  0.31887557186E+03  0.38560624704E+03  0.17300000000E+03 0.  1.
         -6    1    1    2    0  501 -0.12389620702E+03 -0.41608620666E+02  0.10545110390E+03  0.24110263943E+03  0.17300000000E+03 0. -1.
</event>
<event>
 4    1  0.1082663E+000  0.1000000E+03  0.7546771E-02  0.1280296E+00
          1   -1    0    0  502    0  0.00000000000E+00  0.00000000000E+00  0.85313958573E+03  0.85313958573E+03  0.00000000000E+00 0. -1.
         -1   -1    0    0    0  501 -0.00000000000E+00 -0.00000000000E+00 -0.12103749373E+03  0.12103749373E+03  0.00000000000E+00 0.  1.
          6    1    1    2  502    0 -0.48342596131E+02 -0.94317581955E+02 -0.11681085012E+02  0.20321973480E+03  0.17300000000E+03 0. -1.
         -6    1    1    2    0  501  0.48342596131E+02  0.94317581955E+02  0.74378317701E+03  0.77095734465E+03  0.17300000000E+03 0.  1.
</event>
<event>
 4    1  0.1082663E+000  0.1000000E+03  0.7546771E-02  0.1280296E+00
         -1   -1    0    0    0  501 -0.00000000000E+00  0.00000000000E+00  0.36923151856E+03  0.36923151856E+03  0.00000000000E+00 0. -1.
          1   -1    0    0  502    0  0.00000000000E+00 -0.00000000000E+00 -0.18201862569E+03  0.18201862569E+03  0.00000000000E+00 0.  1.
          6    1    1    2  502    0  0.15380841482E+03  0.11290720611E+03  0.62193723368E+02  0.26495683590E+03  0.17300000000E+03 0. -1.
         -6    1    1    2    0  501 -0.15380841482E+03 -0.11290720611E+03  0.12501916950E+03  0.28629330835E+03  0.17300000000E+03 0.  1.
</event>
<event>
 4    1  0.1082663E+000  0.1000000E+03  0.7546771E-02  0.1280296E+00
         -2   -1    0    0    0  501 -0.00000000000E+00  0.00000000000E+00  0.10430386395E+03  0.10430386395E+03  0.00000000000E+00 0. -1.
          2   -1    0    0  502    0  0.00000000000E+00 -0.00000000000E+00 -0.12072096725E+04  0.12072096725E+04  0.00000000000E+00 0.  1.
          6    1    1    2  502    0 -0.12163854207E+03  0.26614902921E+03 -0.36338898338E+03  0.49760606298E+03  0.17300000000E+03 0. -1.
         -6    1    1    2    0  501  0.12163854207E+03 -0.26614902921E+03 -0.73951682513E+03  0.81390747344E+03  0.17300000000E+03 0.  1.
</event>
<event>
 4    1  0.1082663E+000  0.1000000E+03  0.7546771E-02  0.1280296E+00
          2   -1    0    0  502    0  0.00000000000E+00  0.00000000000E+00  0.28821111659E+04  0.28821111659E+04  0.00000000000E+00 0. -1.
         -2   -1    0    0    0  501 -0.00000000000E+00 -0.00000000000E+00 -0.11126730282E+02  0.11126730282E+02  0.00000000000E+00 0.  1.
          6    1    1    2  502    0  0.19752955158E+02 -0.40757886335E+02  0.15113108545E+04  0.15218544226E+04  0.17300000000E+03 0. -1.
         -6    1    1    2    0  501 -0.19752955158E+02  0.40757886335E+02  0.13596735811E+04  0.13713834737E+04  0.17300000000E+03 0.  1.
</event>
<event>
 4    1  0.1082663E+000  0.1000000E+03  0.7546771E-02  0.1280296E+00
          2   -1    0    0  502    0  0.00000000000E+00  0.00000000000E+00  0.13017801615E+04  0.13017801615E+04  0.00000000000E+00 0. -1.
         -2   -1    0    0    0  501 -0.00000000000E+00 -0.00000000000E+00 -0.99895663365E+02  0.99895663365E+02  0.00000000000E+00 0.  1.
          6    1    1    2  502    0 -0.19214165206E+03  0.12030108115E+03  0.10299250766E+04  0.10686746128E+04  0.17300000000E+03 0. -1.
         -6    1    1    2    0  501  0.19214165206E+03 -0.12030108115E+03  0.17195942149E+03  0.33300121204E+03  0.17300000000E+03 0.  1.
</event>
<event>
 4    1  0.1082663E+000  0.1000000E+03  0.7546771E-02  0.1280296E+00
          2   -1    0    0  502    0  0.00000000000E+00  0.00000000000E+00  0.20709984508E+04  0.20709984508E+04  0.00000000000E+00 0. -1.
         -2   -1    0    0    0  501 -0.00000000000E+00 -0.00000000000E+00 -0.18439701309E+02  0.18439701309E+02  0.00000000000E+00 0.  1.
          6    1    1    2  502    0 -0.81152601375E+02  0.40541543825E+02  0.10556735674E+04  0.10735944497E+04  0.17300000000E+03 0. -1.
         -6    1    1    2    0  501  0.81152601375E+02 -0.40541543825E+02  0.99688518213E+03  0.10158437025E+04  0.17300000000E+03 0.  1.
</event>
<event>
 4    1  0.1082663E+000  0.1000000E+03  0.7546771E-02  0.1280296E+00
          2   -1    0    0  502    0  0.00000000000E+00  0.00000000000E+00  0.22821518234E+02  0.22821518234E+02  0.00000000000E+00 0. -1.
         -2   -1    0    0    0  501 -0.00000000000E+00 -0.00000000000E+00 -0.17789167878E+04  0.17789167878E+04  0.00000000000E+00 0.  1.
          6    1    1    2  502    0  0.63835849367E+02  0.29636145537E+02 -0.54003742097E+03  0.57142167690E+03  0.17300000000E+03 0. -1.
         -6    1    1    2    0  501 -0.63835849367E+02 -0.29636145537E+02 -0.12160578486E+04  0.12303166291E+04  0.17300000000E+03 0.  1.
</event>
<event>
 4    1  0.1082663E+000  0.1000000E+03  0.7546771E-02  0.1280296E+00
          1   -1    0    0  502    0  0.00000000000E+00  0.00000000000E+00  0.11763717183E+04  0.11763717183E+04  0.00000000000E+00 0. -1.
         -1   -1    0    0    0  501 -0.00000000000E+00 -0.00000000000E+00 -0.44106191278E+02  0.44106191278E+02  0.00000000000E+00 0.  1.
          6    1    1    2  502    0  0.89825573161E+02  0.14656792921E+02  0.87939419157E+03  0.90085881210E+03  0.17300000000E+03 0. -1.
         -6    1    1    2    0  501 -0.89825573161E+02 -0.14656792921E+02  0.25287133540E+03  0.31961909743E+03  0.17300000000E+03 0.  1.
</event>
<event>
 4    1  0.1082663E+000  0.1000000E+03  0.7546771E-02  0.1280296E+00
          2   -1    0    0  502    0  0.00000000000E+00  0.00000000000E+00  0.22653539795E+03  0.22653539795E+03  0.00000000000E+00 0. -1.
         -2   -1    0    0    0  501 -0.00000000000E+00 -0.00000000000E+00 -0.31139354697E+03  0.31139354697E+03  0.00000000000E+00 0.  1.
          6    1    1    2  502    0 -0.82140301721E+02 -0.12503155093E+03  0.94311715365E+02  0.24739364897E+03  0.17300000000E+03 0. -1.
         -6    1    1    2    0  501  0.82140301721E+02  0.12503155093E+03 -0.17916986439E+03  0.29053529596E+03  0.17300000000E+03 0.  1.
</event>
<event>
 4    1  0.1082663E+000  0.1000000E+03  0.7546771E-02  0.1280296E+00
          1   -1    0    0  502    0  0.00000000000E+00  0.00000000000E+00  0.13997021795E+04  0.13997021795E+04  0.00000000000E+00 0. -1.
         -1   -1    0    0    0  501 -0.00000000000E+00 -0.00000000000E+00 -0.52523772022E+02  0.52523772022E+02  0.00000000000E+00 0.  1.
          6    1    1    2  502    0 -0.98233040089E+02 -0.16251275494E+03  0.90595008353E+03  0.94166590653E+03  0.17300000000E+03 0. -1.
         -6    1    1    2    0  501  0.98233040089E+02  0.16251275494E+03  0.44122832396E+03  0.51056004500E+03  0.17300000000E+03 0.  1.
</event>
<event>
 4    1  0.1082663E+000  0.1000000E+03  0.7546771E-02  0.1280296E+00
          2   -1    0    0  502    0  0.00000000000E+00  0.00000000000E+00  0.65831590458E+03  0.65831590458E+03  0.00000000000E+00 0. -1.
         -2   -1    0    0    0  501 -0.00000000000E+00 -0.00000000000E+00 -0.64289440173E+02  0.64289440173E+02  0.00000000000E+00 0.  1.
          6    1    1    2  502    0  0.38146982297E+02 -0.55507250213E+02  0.45269105758E+03  0.48927951184E+03  0.17300000000E+03 0. -1.
         -6    1    1    2    0  501 -0.38146982297E+02  0.55507250213E+02  0.14133540682E+03  0.23332583291E+03  0.17300000000E+03 0.  1.
</event>
<event>
 4    1  0.1082663E+000  0.1000000E+03  0.7546771E-02  0.1280296E+00
          1   -1    0    0  502    0  0.00000000000E+00  0.00000000000E+00  0.10054512720E+03  0.10054512720E+03  0.00000000000E+00 0. -1.
         -1   -1    0    0    0  501 -0.00000000000E+00 -0.00000000000E+00 -0.32260789575E+03  0.32260789575E+03  0.00000000000E+00 0.  1.
          6    1    1    2  502    0  0.21296208740E+02 -0.44200307813E+02 -0.12280575777E+03  0.21775548181E+03  0.17300000000E+03 0. -1.
         -6    1    1    2    0  501 -0.21296208740E+02  0.44200307813E+02 -0.99257010782E+02  0.20539754114E+03  0.17300000000E+03 0.  1.
</event>
<event>
 4    1  0.1082663E+000  0.1000000E+03  0.7546771E-02  0.1280296E+00
         -1   -1    0    0    0  501 -0.00000000000E+00  0.00000000000E+00  0.24498204081E+03  0.24498204081E+03  0.00000000000E+00 0. -1.
          1   -1    0    0  502    0  0.00000000000E+00 -0.00000000000E+00 -0.10369044827E+04  0.10369044827E+04  0.00000000000E+00 0.  1.
          6    1    1    2  502    0  0.43110725690E+03 -0.19367361801E+03 -0.36157746098E+03  0.61970170046E+03  0.17300000000E+03 0.  1.
         -6    1    1    2    0  501 -0.43110725690E+03  0.19367361801E+03 -0.43034498091E+03  0.66218482304E+03  0.17300000000E+03 0. -1.
</event>
<event>
 4    1  0.1082663E+000  0.1000000E+03  0.7546771E-02  0.1280296E+00
         -2   -1    0    0    0  501 -0.00000000000E+00  0.00000000000E+00  0.11971841080E+03  0.11971841080E+03  0.00000000000E+00 0. -1.
          2   -1    0    0  502    0  0.00000000000E+00 -0.00000000000E+00 -0.44724529785E+03  0.44724529785E+03  0.00000000000E+00 0.  1.
          6    1    1    2  502    0  0.98093031496E+02 -0.34958134226E+02 -0.25320619207E+02  0.20350539977E+03  0.17300000000E+03 0.  1.
         -6    1    1    2    0  501 -0.98093031496E+02  0.34958134226E+02 -0.30220626784E+03  0.36345830888E+03  0.17300000000E+03 0. -1.
</event>
<event>
 4    1  0.1082663E+000  0.1000000E+03  0.7546771E-02  0.1280296E+00
         -2   -1    0    0    0  501 -0.00000000000E+00  0.00000000000E+00  0.37414430526E+02  0.37414430526E+02  0.00000000000E+00 0.  1.
          2   -1    0    0  502    0  0.00000000000E+00 -0.00000000000E+00 -0.10735738763E+04  0.10735738763E+04  0.00000000000E+00 0. -1.
          6    1    1    2  502    0  0.52665476417E+02  0.71696214494E+02 -0.65170128924E+03  0.68011585041E+03  0.17300000000E+03 0. -1.
         -6    1    1    2    0  501 -0.52665476417E+02 -0.71696214494E+02 -0.38445815658E+03  0.43087245647E+03  0.17300000000E+03 0.  1.
</event>
<event>
 4    1  0.1082663E+000  0.1000000E+03  0.7546771E-02  0.1280296E+00
         -1   -1    0    0    0  501 -0.00000000000E+00  0.00000000000E+00  0.19849431382E+04  0.19849431382E+04  0.00000000000E+00 0. -1.
          1   -1    0    0  502    0  0.00000000000E+00 -0.00000000000E+00 -0.85274920321E+02  0.85274920321E+02  0.00000000000E+00 0.  1.
          6    1    1    2  502    0  0.15824561128E+03  0.32053088221E+02  0.17965829713E+04  0.18121005620E+04  0.17300000000E+03 0.  1.
         -6    1    1    2    0  501 -0.15824561128E+03 -0.32053088221E+02  0.10308524656E+03  0.25811749653E+03  0.17300000000E+03 0. -1.
</event>
<event>
 4    1  0.1082663E+000  0.1000000E+03  0.7546771E-02  0.1280296E+00
         -1   -1    0    0    0  501 -0.00000000000E+00  0.00000000000E+00  0.11648991345E+03  0.11648991345E+03  0.00000000000E+00 0. -1.
          1   -1    0    0  502    0  0.00000000000E+00 -0.00000000000E+00 -0.71980627109E+03  0.71980627109E+03  0.00000000000E+00 0.  1.
          6    1    1    2  502    0 -0.64758137173E+02  0.22134066626E+03 -0.34083026772E+03  0.44640741287E+03  0.17300000000E+03 0.  1.
         -6    1    1    2    0  501  0.64758137173E+02 -0.22134066626E+03 -0.26248608992E+03  0.38988877167E+03  0.17300000000E+03 0. -1.
</event>
<event>
 4    1  0.1082663E+000  0.1000000E+03  0.7546771E-02  0.1280296E+00
         -3   -1    0    0    0  501 -0.00000000000E+00  0.00000000000E+00  0.12536866135E+03  0.12536866135E+03  0.00000000000E+00 0.  1.
          3   -1    0    0  502    0  0.00000000000E+00 -0.00000000000E+00 -0.33604550613E+03  0.33604550613E+03  0.00000000000E+00 0. -1.
          6    1    1    2  502    0  0.10903442027E+03 -0.15472614029E+02 -0.11492008753E+03  0.23508197104E+03  0.17300000000E+03 0. -1.
         -6    1    1    2    0  501 -0.10903442027E+03  0.15472614029E+02 -0.95756757252E+02  0.22633219645E+03  0.17300000000E+03 0.  1.
</event>
<event>
 4    1  0.1082663E+000  0.1000000E+03  0.7546771E-02  0.1280296E+00
         -2   -1    0    0    0  501 -0.00000000000E+00  0.00000000000E+00  0.52320030300E+02  0.52320030300E+02  0.00000000000E+00 0.  1.
          2   -1    0    0  502    0  0.00000000000E+00 -0.00000000000E+00 -0.24118573995E+04  0.24118573995E+04  0.00000000000E+00 0. -1.
          6    1    1    2  502    0 -0.11827818082E+03  0.21447904971E+03 -0.18403050601E+04  0.18645757440E+04  0.17300000000E+03 0. -1.
         -6    1    1    2    0  501  0.11827818082E+03 -0.21447904971E+03 -0.51923230909E+03  0.59960168581E+03  0.17300000000E+03 0.  1.
</event>
<event>
 4    1  0.1082663E+000  0.1000000E+03  0.7546771E-02  0.1280296E+00
         -1   -1    0    0    0  501 -0.00000000000E+00  0.00000000000E+00  0.31899212993E+03  0.31899212993E+03  0.00000000000E+00 0.  1.
          1   -1    0    0  502    0  0.00000000000E+00 -0.00000000000E+00 -0.15171067217E+03  0.15171067217E+03  0.00000000000E+00 0. -1.
          6    1    1    2  502    0 -0.73312415409E+02  0.49991052016E+02  0.19374431616E+03  0.27448073808E+03  0.17300000000E+03 0. -1.
         -6    1    1    2    0  501  0.73312415409E+02 -0.49991052016E+02 -0.26462858388E+02  0.19622206402E+03  0.17300000000E+03 0.  1.
</event>
<event>
 4    1  0.1082663E+000  0.1000000E+03  0.7546771E-02  0.1280296E+00
          2   -1    0    0  502    0  0.00000000000E+00  0.00000000000E+00  0.35786130492E+03  0.35786130492E+03  0.00000000000E+00 0. -1.
         -2   -1    0    0    0  501 -0.00000000000E+00 -0.00000000000E+00 -0.12905838285E+03  0.12905838285E+03  0.00000000000E+00 0.  1.
          6    1    1    2  502    0 -0.30906263722E+02 -0.11614000999E+03  0.16262867486E+03  0.26612174835E+03  0.17300000000E+03 0. -1.
         -6    1    1    2    0  501  0.30906263722E+02  0.11614000999E+03  0.66174247217E+02  0.22079793942E+03  0.17300000000E+03 0.  1.
</event>
<event>
 4    1  0.1082663E+000  0.1000000E+03  0.7546771E-02  0.1280296E+00
          2   -1    0    0  502    0  0.00000000000E+00  0.00000000000E+00  0.21884385205E+03  0.21884385205E+03  0.00000000000E+00 0. -1.
         -2   -1    0    0    0  501 -0.00000000000E+00 -0.00000000000E+00 -0.46623899799E+03  0.46623899799E+03  0.00000000000E+00 0.  1.
          6    1    1    2  502    0  0.14596557548E+03 -0.61361059500E+02 -0.35626284152E+03  0.42652472507E+03  0.17300000000E+03 0. -1.
         -6    1    1    2    0  501 -0.14596557548E+03  0.61361059500E+02  0.10886769558E+03  0.25855812497E+03  0.17300000000E+03 0.  1.
</event>
<event>
 4    1  0.1082663E+000  0.1000000E+03  0.7546771E-02  0.1280296E+00
          2   -1    0    0  502    0  0.00000000000E+00  0.00000000000E+00  0.87858305879E+03  0.87858305879E+03  0.00000000000E+00 0. -1.
         -2   -1    0    0    0  501 -0.00000000000E+00 -0.00000000000E+00 -0.46822189451E+02  0.46822189451E+02  0.00000000000E+00 0.  1.
          6    1    1    2  502    0  0.58293106617E+02 -0.15147645516E+02  0.21725366924E+03  0.28417546383E+03  0.17300000000E+03 0.  1.
         -6    1    1    2    0  501 -0.58293106617E+02  0.15147645516E+02  0.61450720011E+03  0.64122978442E+03  0.17300000000E+03 0.  1.
</event>
<event>
 4    1  0.1082663E+000  0.1000000E+03  0.7546771E-02  0.1280296E+00
          1   -1    0    0  502    0  0.00000000000E+00  0.00000000000E+00  0.45720930712E+03  0.45720930712E+03  0.00000000000E+00 0. -1.
         -1   -1    0    0    0  501 -0.00000000000E+00 -0.00000000000E+00 -0.29006560945E+03  0.29006560945E+03  0.00000000000E+00 0.  1.
          6    1    1    2  502    0 -0.24846797393E+03 -0.91844083446E+02  0.26859249917E+03  0.41502120469E+03  0.17300000000E+03 0.  1.
         -6    1    1    2    0  501  0.24846797393E+03  0.91844083446E+02 -0.10144880150E+03  0.33225371188E+03  0.17300000000E+03 0.  1.
</event>
<event>
 4    1  0.1082663E+000  0.1000000E+03  0.7546771E-02  0.1280296E+00
          1   -1    0    0  502    0  0.00000000000E+00  0.00000000000E+00  0.14175271455E+04  0.14175271455E+04  0.00000000000E+00 0. -1.
         -1   -1    0    0    0  501 -0.00000000000E+00 -0.00000000000E+00 -0.28193808125E+02  0.28193808125E+02  0.00000000000E+00 0.  1.
          6    1    1    2  502    0 -0.52754347098E+02  0.53817747208E+02  0.45598913376E+03  0.49349210851E+03  0.17300000000E+03 0.  1.
         -6    1    1    2    0  501  0.52754347098E+02 -0.53817747208E+02  0.93334420361E+03  0.95222884512E+03  0.17300000000E+03 0.  1.
</event>
<event>
 4    1  0.1082663E+000  0.1000000E+03  0.7546771E-02  0.1280296E+00
          1   -1    0    0  502    0  0.00000000000E+00  0.00000000000E+00  0.13063942529E+03  0.13063942529E+03  0.00000000000E+00 0. -1.
         -1   -1    0    0    0  501 -0.00000000000E+00 -0.00000000000E+00 -0.39144062928E+03  0.39144062928E+03  0.00000000000E+00 0.  1.
          6    1    1    2  502    0 -0.73226454901E+02 -0.93327287871E+02 -0.32883872553E+02  0.21232627118E+03  0.17300000000E+03 0.  1.
         -6    1    1    2    0  501  0.73226454901E+02  0.93327287871E+02 -0.22791733143E+03  0.30975378339E+03  0.17300000000E+03 0.  1.
</event>
<event>
 4    1  0.1082663E+000  0.1000000E+03  0.7546771E-02  0.1280296E+00
          2   -1    0    0  502    0  0.00000000000E+00  0.00000000000E+00  0.34368230069E+03  0.34368230069E+03  0.00000000000E+00 0. -1.
         -2   -1    0    0    0  501 -0.00000000000E+00 -0.00000000000E+00 -0.13252415680E+03  0.13252415680E+03  0.00000000000E+00 0.  1.
          6    1    1    2  502    0  0.10966542045E+03  0.42456562213E+02  0.15275715582E+03  0.25902280358E+03  0.17300000000E+03 0.  1.
         -6    1    1    2    0  501 -0.10966542045E+03 -0.42456562213E+02  0.58400988068E+02  0.21718365391E+03  0.17300000000E+03 0.  1.
</event>
<event>
 4    1  0.1082663E+000  0.1000000E+03  0.7546771E-02  0.1280296E+00
         -2   -1    0    0    0  501 -0.00000000000E+00  0.00000000000E+00  0.16015825028E+03  0.16015825028E+03  0.00000000000E+00 0. -1.
          2   -1    0    0  502    0  0.00000000000E+00 -0.00000000000E+00 -0.62641466286E+03  0.62641466286E+03  0.00000000000E+00 0.  1.
          6    1    1    2  502    0 -0.10059482141E+03 -0.17949099831E+03 -0.44112100124E+03  0.51657823639E+03  0.17300000000E+03 0.  1.
         -6    1    1    2    0  501  0.10059482141E+03  0.17949099831E+03 -0.25135411337E+02  0.26999467675E+03  0.17300000000E+03 0. -1.
</event>
<event>
 4    1  0.1082663E+000  0.1000000E+03  0.7546771E-02  0.1280296E+00
         -4   -1    0    0    0  501 -0.00000000000E+00  0.00000000000E+00  0.49942904691E+02  0.49942904691E+02  0.00000000000E+00 0. -1.
          4   -1    0    0  502    0  0.00000000000E+00 -0.00000000000E+00 -0.17147401231E+04  0.17147401231E+04  0.00000000000E+00 0.  1.
          6    1    1    2  502    0  0.13300175162E+03 -0.81759921227E+02 -0.13661292125E+04  0.13858615284E+04  0.17300000000E+03 0.  1.
         -6    1    1    2    0  501 -0.13300175162E+03  0.81759921227E+02 -0.29866800595E+03  0.37882149943E+03  0.17300000000E+03 0. -1.
</event>
<event>
 4    1  0.1082663E+000  0.1000000E+03  0.7546771E-02  0.1280296E+00
          2   -1    0    0  502    0  0.00000000000E+00  0.00000000000E+00  0.95647389063E+03  0.95647389063E+03  0.00000000000E+00 0.  1.
         -2   -1    0    0    0  501 -0.00000000000E+00 -0.00000000000E+00 -0.41957762243E+02  0.41957762243E+02  0.00000000000E+00 0. -1.
          6    1    1    2  502    0 -0.93330074994E+02 -0.22968632835E+02  0.37986822715E+03  0.42833039933E+03  0.17300000000E+03 0.  1.
         -6    1    1    2    0  501  0.93330074994E+02  0.22968632835E+02  0.53464790124E+03  0.57010125354E+03  0.17300000000E+03 0. -1.
</event>
<event>
 4    1  0.1082663E+000  0.1000000E+03  0.7546771E-02  0.1280296E+00
          2   -1    0    0  502    0  0.00000000000E+00  0.00000000000E+00  0.10621624353E+04  0.10621624353E+04  0.00000000000E+00 0.  1.
         -2   -1    0    0    0  501 -0.00000000000E+00 -0.00000000000E+00 -0.27145657244E+03  0.27145657244E+03  0.00000000000E+00 0. -1.
          6    1    1    2  502    0  0.37563256811E+02  0.49151086595E+02 -0.23120918488E+03  0.29531934368E+03  0.17300000000E+03 0.  1.
         -6    1    1    2    0  501 -0.37563256811E+02 -0.49151086595E+02  0.10219150477E+04  0.10382996640E+04  0.17300000000E+03 0. -1.
</event>
<event>
 4    1  0.1082663E+000  0.1000000E+03  0.7546771E-02  0.1280296E+00
          1   -1    0    0  502    0  0.00000000000E+00  0.00000000000E+00  0.15693869839E+03  0.15693869839E+03  0.00000000000E+00 0.  1.
         -1   -1    0    0    0  501 -0.00000000000E+00 -0.00000000000E+00 -0.19965376353E+03  0.19965376353E+03  0.00000000000E+00 0. -1.
          6    1    1    2  502    0  0.27284453190E+01  0.36850957240E+02 -0.15070120792E+02  0.17754308211E+03  0.17300000000E+03 0.  1.
         -6    1    1    2    0  501 -0.27284453190E+01 -0.36850957240E+02 -0.27644944350E+02  0.17904937981E+03  0.17300000000E+03 0. -1.
</event>
<event>
 4    1  0.1082663E+000  0.1000000E+03  0.7546771E-02  0.1280296E+00
         -2   -1    0    0    0  501 -0.00000000000E+00  0.00000000000E+00  0.36795738085E+02  0.36795738085E+02  0.00000000000E+00 0.  1.
          2   -1    0    0  502    0  0.00000000000E+00 -0.00000000000E+00 -0.12013683375E+04  0.12013683375E+04  0.00000000000E+00 0. -1.
          6    1    1    2  502    0 -0.10951690837E+03  0.11613618448E+02 -0.44583792490E+03  0.49074360376E+03  0.17300000000E+03 0.  1.
         -6    1    1    2    0  501  0.10951690837E+03 -0.11613618448E+02 -0.71873467451E+03  0.74742047182E+03  0.17300000000E+03 0. -1.
</event>
<event>
 4    1  0.1082663E+000  0.1000000E+03  0.7546771E-02  0.1280296E+00
          1   -1    0    0  502    0  0.00000000000E+00  0.00000000000E+00  0.34747380119E+03  0.34747380119E+03  0.00000000000E+00 0. -1.
         -1   -1    0    0    0  501 -0.00000000000E+00 -0.00000000000E+00 -0.23873680450E+03  0.23873680450E+03  0.00000000000E+00 0.  1.
          6    1    1    2  502    0  0.15810070476E+03 -0.10010469770E+03 -0.82199131787E+02  0.26777318875E+03  0.17300000000E+03 0. -1.
         -6    1    1    2    0  501 -0.15810070476E+03  0.10010469770E+03  0.19093612848E+03  0.31843741694E+03  0.17300000000E+03 0.  1.
</event>
<event>
 4    1  0.1082663E+000  0.1000000E+03  0.7546771E-02  0.1280296E+00
         -1   -1    0    0    0  501 -0.00000000000E+00  0.00000000000E+00  0.39440627076E+02  0.39440627076E+02  0.00000000000E+00 0.  1.
          1   -1    0    0  502    0  0.00000000000E+00 -0.00000000000E+00 -0.84192271297E+03  0.84192271297E+03  0.00000000000E+00 0. -1.
          6    1    1    2  502    0 -0.33515745185E+02 -0.21497836110E+02 -0.50070200668E+03  0.53124096380E+03  0.17300000000E+03 0. -1.
         -6    1    1    2    0  501  0.33515745185E+02  0.21497836110E+02 -0.30178007921E+03  0.35012237624E+03  0.17300000000E+03 0.  1.
</event>
<event>
 4    1  0.1082663E+000  0.1000000E+03  0.7546771E-02  0.1280296E+00
         -2   -1    0    0    0  501 -0.00000000000E+00  0.00000000000E+00  0.14976546295E+03  0.14976546295E+03  0.00000000000E+00 0. -1.
          2   -1    0    0  502    0  0.00000000000E+00 -0.00000000000E+00 -0.61905607775E+03  0.61905607775E+03  0.00000000000E+00 0.  1.
          6    1    1    2  502    0  0.15417020632E+02 -0.79738840354E+02  0.64613870683E+02  0.20174221043E+03  0.17300000000E+03 0.  1.
         -6    1    1    2    0  501 -0.15417020632E+02  0.79738840354E+02 -0.53390448549E+03  0.56707933026E+03  0.17300000000E+03 0. -1.
</event>
<event>
 4    1  0.1082663E+000  0.1000000E+03  0.7546771E-02  0.1280296E+00
          2   -1    0    0  502    0  0.00000000000E+00  0.00000000000E+00  0.17963859947E+04  0.17963859947E+04  0.00000000000E+00 0.  1.
         -2   -1    0    0    0  501 -0.00000000000E+00 -0.00000000000E+00 -0.36328595665E+02  0.36328595665E+02  0.00000000000E+00 0. -1.
          6    1    1    2  502    0 -0.81187400820E+02  0.11529912938E+03  0.13258361025E+04  0.13444908531E+04  0.17300000000E+03 0.  1.
         -6    1    1    2    0  501  0.81187400820E+02 -0.11529912938E+03  0.43422129645E+03  0.48822373722E+03  0.17300000000E+03 0. -1.
</event>
<event>
 4    1  0.1082663E+000  0.1000000E+03  0.7546771E-02  0.1280296E+00
          2   -1    0    0  502    0  0.00000000000E+00  0.00000000000E+00  0.17882115363E+04  0.17882115363E+04  0.00000000000E+00 0.  1.
         -2   -1    0    0    0  501 -0.00000000000E+00 -0.00000000000E+00 -0.33088849832E+02  0.33088849832E+02  0.00000000000E+00 0. -1.
          6    1    1    2  502    0  0.37036993575E+02 -0.15578678434E+03  0.65295162666E+03  0.69420176306E+03  0.17300000000E+03 0.  1.
         -6    1    1    2    0  501 -0.37036993575E+02  0.15578678434E+03  0.11021710598E+04  0.11270986231E+04  0.17300000000E+03 0. -1.
</event>
<event>
 4    1  0.1082663E+000  0.1000000E+03  0.7546771E-02  0.1280296E+00
          2   -1    0    0  502    0  0.00000000000E+00  0.00000000000E+00  0.45088627046E+03  0.45088627046E+03  0.00000000000E+00 0.  1.
         -2   -1    0    0    0  501 -0.00000000000E+00 -0.00000000000E+00 -0.17696289504E+03  0.17696289504E+03  0.00000000000E+00 0. -1.
          6    1    1    2  502    0  0.99920432212E+02 -0.13264422510E+03  0.30285665887E+03  0.38630265214E+03  0.17300000000E+03 0.  1.
         -6    1    1    2    0  501 -0.99920432212E+02  0.13264422510E+03 -0.28933283455E+02  0.24154651336E+03  0.17300000000E+03 0. -1.
</event>
<event>
 4    1  0.1082663E+000  0.1000000E+03  0.7546771E-02  0.1280296E+00
          1   -1    0    0  502    0  0.00000000000E+00  0.00000000000E+00  0.26640246225E+03  0.26640246225E+03  0.00000000000E+00 0.  1.
         -1   -1    0    0    0  501 -0.00000000000E+00 -0.00000000000E+00 -0.34168034748E+03  0.34168034748E+03  0.00000000000E+00 0. -1.
          6    1    1    2  502    0 -0.24500010466E+03 -0.24795447950E+02 -0.16128211639E+02  0.30137847424E+03  0.17300000000E+03 0.  1.
         -6    1    1    2    0  501  0.24500010466E+03  0.24795447950E+02 -0.59149673587E+02  0.30670433549E+03  0.17300000000E+03 0. -1.
</event>
<event>
 4    1  0.1082663E+000  0.1000000E+03  0.7546771E-02  0.1280296E+00
         -2   -1    0    0    0  501 -0.00000000000E+00  0.00000000000E+00  0.25925808559E+02  0.25925808559E+02  0.00000000000E+00 0.  1.
          2   -1    0    0  502    0  0.00000000000E+00 -0.00000000000E+00 -0.23119801738E+04  0.23119801738E+04  0.00000000000E+00 0. -1.
          6    1    1    2  502    0  0.12692477526E+03  0.42855655646E+02 -0.16674633024E+04  0.16817578216E+04  0.17300000000E+03 0. -1.
         -6    1    1    2    0  501 -0.12692477526E+03 -0.42855655646E+02 -0.61859106292E+03  0.65614816080E+03  0.17300000000E+03 0.  1.
</event>
<event>
 4    1  0.1082663E+000  0.1000000E+03  0.7546771E-02  0.1280296E+00
         -4   -1    0    0    0  501 -0.00000000000E+00  0.00000000000E+00  0.52323086410E+03  0.52323086410E+03  0.00000000000E+00 0.  1.
          4   -1    0    0  502    0  0.00000000000E+00 -0.00000000000E+00 -0.12796968579E+03  0.12796968579E+03  0.00000000000E+00 0. -1.
          6    1    1    2  502    0  0.91444104136E+02  0.38857333925E+02  0.40498993432E+03  0.45146180734E+03  0.17300000000E+03 0.  1.
         -6    1    1    2    0  501 -0.91444104136E+02 -0.38857333925E+02 -0.97287560150E+01  0.19973874255E+03  0.17300000000E+03 0.  1.
</event>
<event>
 4    1  0.1082663E+000  0.1000000E+03  0.7546771E-02  0.1280296E+00
         -1   -1    0    0    0  501 -0.00000000000E+00  0.00000000000E+00  0.28397010480E+03  0.28397010480E+03  0.00000000000E+00 0.  1.
          1   -1    0    0  502    0  0.00000000000E+00 -0.00000000000E+00 -0.82374897495E+03  0.82374897495E+03  0.00000000000E+00 0. -1.
          6    1    1    2  502    0 -0.30159132526E+03  0.26582049151E+03 -0.50561768291E+03  0.66872722574E+03  0.17300000000E+03 0.  1.
         -6    1    1    2    0  501  0.30159132526E+03 -0.26582049151E+03 -0.34161187233E+02  0.43899185401E+03  0.17300000000E+03 0.  1.
</event>
<event>
 4    1  0.1082663E+000  0.1000000E+03  0.7546771E-02  0.1280296E+00
         -1   -1    0    0    0  501 -0.00000000000E+00  0.00000000000E+00  0.91160713503E+02  0.91160713503E+02  0.00000000000E+00 0.  1.
          1   -1    0    0  502    0  0.00000000000E+00 -0.00000000000E+00 -0.36792558889E+03  0.36792558889E+03  0.00000000000E+00 0. -1.
          6    1    1    2  502    0  0.23595353412E+02 -0.18260644445E+02 -0.73000451236E+02  0.19012695158E+03  0.17300000000E+03 0.  1.
         -6    1    1    2    0  501 -0.23595353412E+02  0.18260644445E+02 -0.20376442415E+03  0.26895935081E+03  0.17300000000E+03 0.  1.
</event>
<event>
 4    1  0.1082663E+000  0.1000000E+03  0.7546771E-02  0.1280296E+00
         -1   -1    0    0    0  501 -0.00000000000E+00  0.00000000000E+00  0.38540417926E+02  0.38540417926E+02  0.00000000000E+00 0.  1.
          1   -1    0    0  502    0  0.00000000000E+00 -0.00000000000E+00 -0.95163596110E+03  0.95163596110E+03  0.00000000000E+00 0. -1.
          6    1    1    2  502    0  0.51915342861E+02  0.33962703688E+02 -0.31736145845E+03  0.36673691303E+03  0.17300000000E+03 0.  1.
         -6    1    1    2    0  501 -0.51915342861E+02 -0.33962703688E+02 -0.59573408472E+03  0.62343946600E+03  0.17300000000E+03 0.  1.
</event>
<event>
 4    1  0.1082663E+000  0.1000000E+03  0.7546771E-02  0.1280296E+00
          2   -1    0    0  502    0  0.00000000000E+00  0.00000000000E+00  0.17601315727E+04  0.17601315727E+04  0.00000000000E+00 0.  1.
         -2   -1    0    0    0  501 -0.00000000000E+00 -0.00000000000E+00 -0.20279419719E+02  0.20279419719E+02  0.00000000000E+00 0. -1.
          6    1    1    2  502    0 -0.64841925793E+02  0.16078784628E+02  0.69987886406E+03  0.72403206214E+03  0.17300000000E+03 0. -1.
         -6    1    1    2    0  501  0.64841925793E+02 -0.16078784628E+02  0.10399732889E+04  0.10563789302E+04  0.17300000000E+03 0.  1.
</event>
<event>
 4    1  0.1082663E+000  0.1000000E+03  0.7546771E-02  0.1280296E+00
          2   -1    0    0  502    0  0.00000000000E+00  0.00000000000E+00  0.35605777670E+03  0.35605777670E+03  0.00000000000E+00 0.  1.
         -2   -1    0    0    0  501 -0.00000000000E+00 -0.00000000000E+00 -0.43069758985E+03  0.43069758985E+03  0.00000000000E+00 0. -1.
          6    1    1    2  502    0  0.17480820754E+03 -0.30060608195E+03 -0.87569549223E+02  0.39814488805E+03  0.17300000000E+03 0. -1.
         -6    1    1    2    0  501 -0.17480820754E+03  0.30060608195E+03  0.12929736070E+02  0.38861047851E+03  0.17300000000E+03 0.  1.
</event>
<event>
 4    1  0.1082663E+000  0.1000000E+03  0.7546771E-02  0.1280296E+00
          1   -1    0    0  502    0  0.00000000000E+00  0.00000000000E+00  0.76096161593E+03  0.76096161593E+03  0.00000000000E+00 0.  1.
         -1   -1    0    0    0  501 -0.00000000000E+00 -0.00000000000E+00 -0.53309938508E+02  0.53309938508E+02  0.00000000000E+00 0. -1.
          6    1    1    2  502    0 -0.94704063679E+02  0.38132352308E+02  0.38345728108E+03  0.43288730911E+03  0.17300000000E+03 0. -1.
         -6    1    1    2    0  501  0.94704063679E+02 -0.38132352308E+02  0.32419439634E+03  0.38138424533E+03  0.17300000000E+03 0.  1.
</event>
<event>
 4    1  0.1082663E+000  0.1000000E+03  0.7546771E-02  0.1280296E+00
          1   -1    0    0  502    0  0.00000000000E+00  0.00000000000E+00  0.42029562916E+03  0.42029562916E+03  0.00000000000E+00 0.  1.
         -1   -1    0    0    0  501 -0.00000000000E+00 -0.00000000000E+00 -0.79028553436E+02  0.79028553436E+02  0.00000000000E+00 0. -1.
          6    1    1    2  502    0  0.52444916801E+02  0.16719839002E+01  0.20226241166E+03  0.27127909614E+03  0.17300000000E+03 0. -1.
         -6    1    1    2    0  501 -0.52444916801E+02 -0.16719839002E+01  0.13900466406E+03  0.22804508646E+03  0.17300000000E+03 0.  1.
</event>
<event>
 4    1  0.1082663E+000  0.1000000E+03  0.7546771E-02  0.1280296E+00
         -2   -1    0    0    0  501 -0.00000000000E+00  0.00000000000E+00  0.43062319907E+03  0.43062319907E+03  0.00000000000E+00 0. -1.
          2   -1    0    0  502    0  0.00000000000E+00 -0.00000000000E+00 -0.16949787108E+04  0.16949787108E+04  0.00000000000E+00 0.  1.
          6    1    1    2  502    0  0.61929881819E+03  0.21107355412E+03  0.16477275614E+02  0.67696644826E+03  0.17300000000E+03 0. -1.
         -6    1    1    2    0  501 -0.61929881819E+03 -0.21107355412E+03 -0.12808327873E+04  0.14486354616E+04  0.17300000000E+03 0. -1.
</event>
<event>
 4    1  0.1082663E+000  0.1000000E+03  0.7546771E-02  0.1280296E+00
          3   -1    0    0  502    0  0.00000000000E+00  0.00000000000E+00  0.19600221299E+03  0.19600221299E+03  0.00000000000E+00 0. -1.
         -3   -1    0    0    0  501 -0.00000000000E+00 -0.00000000000E+00 -0.61965164609E+03  0.61965164609E+03  0.00000000000E+00 0.  1.
          6    1    1    2  502    0 -0.54372777038E+02  0.22592861396E+03 -0.43851135370E+03  0.52556764057E+03  0.17300000000E+03 0.  1.
         -6    1    1    2    0  501  0.54372777038E+02 -0.22592861396E+03  0.14861920601E+02  0.29008621852E+03  0.17300000000E+03 0.  1.
</event>
<event>
 4    1  0.1082663E+000  0.1000000E+03  0.7546771E-02  0.1280296E+00
          1   -1    0    0  502    0  0.00000000000E+00  0.00000000000E+00  0.87893520389E+02  0.87893520389E+02  0.00000000000E+00 0. -1.
         -1   -1    0    0    0  501 -0.00000000000E+00 -0.00000000000E+00 -0.73840891475E+03  0.73840891475E+03  0.00000000000E+00 0.  1.
          6    1    1    2  502    0  0.69764088062E+02  0.14799707748E+03 -0.17838292189E+03  0.29752248612E+03  0.17300000000E+03 0.  1.
         -6    1    1    2    0  501 -0.69764088062E+02 -0.14799707748E+03 -0.47213247247E+03  0.52877994902E+03  0.17300000000E+03 0.  1.
</event>
<event>
 4    1  0.1082663E+000  0.1000000E+03  0.7546771E-02  0.1280296E+00
          2   -1    0    0  502    0  0.00000000000E+00  0.00000000000E+00  0.11299853592E+04  0.11299853592E+04  0.00000000000E+00 0. -1.
         -2   -1    0    0    0  501 -0.00000000000E+00 -0.00000000000E+00 -0.72647211413E+02  0.72647211413E+02  0.00000000000E+00 0.  1.
          6    1    1    2  502    0 -0.48140810694E+02  0.20801015810E+03  0.35848371572E+03  0.45169164035E+03  0.17300000000E+03 0.  1.
         -6    1    1    2    0  501  0.48140810694E+02 -0.20801015810E+03  0.69885443206E+03  0.75094093025E+03  0.17300000000E+03 0.  1.
</event>
<event>
 4    1  0.1082663E+000  0.1000000E+03  0.7546771E-02  0.1280296E+00
         -2   -1    0    0    0  501 -0.00000000000E+00  0.00000000000E+00  0.11154193051E+03  0.11154193051E+03  0.00000000000E+00 0. -1.
          2   -1    0    0  502    0  0.00000000000E+00 -0.00000000000E+00 -0.42646425824E+03  0.42646425824E+03  0.00000000000E+00 0.  1.
          6    1    1    2  502    0 -0.70543102635E+02 -0.11215025775E+03 -0.16887489496E+03  0.27568413046E+03  0.17300000000E+03 0.  1.
         -6    1    1    2    0  501  0.70543102635E+02  0.11215025775E+03 -0.14604743277E+03  0.26232205828E+03  0.17300000000E+03 0. -1.
</event>
<event>
 4    1  0.1082663E+000  0.1000000E+03  0.7546771E-02  0.1280296E+00
         -2   -1    0    0    0  501 -0.00000000000E+00  0.00000000000E+00  0.33188460047E+03  0.33188460047E+03  0.00000000000E+00 0.  1.
          2   -1    0    0  502    0  0.00000000000E+00 -0.00000000000E+00 -0.35255312992E+03  0.35255312992E+03  0.00000000000E+00 0. -1.
          6    1    1    2  502    0 -0.28574956591E+03  0.61779552700E+02 -0.50457764014E+02  0.34343050753E+03  0.17300000000E+03 0. -1.
         -6    1    1    2    0  501  0.28574956591E+03 -0.61779552700E+02  0.29789234565E+02  0.34100722287E+03  0.17300000000E+03 0.  1.
</event>
<event>
 4    1  0.1082663E+000  0.1000000E+03  0.7546771E-02  0.1280296E+00
          1   -1    0    0  502    0  0.00000000000E+00  0.00000000000E+00  0.31005581313E+04  0.31005581313E+04  0.00000000000E+00 0.  1.
         -1   -1    0    0    0  501 -0.00000000000E+00 -0.00000000000E+00 -0.97106361643E+01  0.97106361643E+01  0.00000000000E+00 0. -1.
          6    1    1    2  502    0  0.10439387559E+02  0.65011438137E+01  0.14978755230E+04  0.15078830618E+04  0.17300000000E+03 0. -1.
         -6    1    1    2    0  501 -0.10439387559E+02 -0.65011438137E+01  0.15929719722E+04  0.16023857057E+04  0.17300000000E+03 0.  1.
</event>
<event>
 4    1  0.1082663E+000  0.1000000E+03  0.7546771E-02  0.1280296E+00
          2   -1    0    0  502    0  0.00000000000E+00  0.00000000000E+00  0.10122209821E+04  0.10122209821E+04  0.00000000000E+00 0.  1.
         -2   -1    0    0    0  501 -0.00000000000E+00 -0.00000000000E+00 -0.70506777969E+02  0.70506777969E+02  0.00000000000E+00 0. -1.
          6    1    1    2  502    0  0.12656364744E+03  0.97571742475E+02  0.21532457842E+03  0.31911169808E+03  0.17300000000E+03 0. -1.
         -6    1    1    2    0  501 -0.12656364744E+03 -0.97571742475E+02  0.72638962575E+03  0.76361606202E+03  0.17300000000E+03 0.  1.
</event>
<event>
 4    1  0.1082663E+000  0.1000000E+03  0.7546771E-02  0.1280296E+00
          1   -1    0    0  502    0  0.00000000000E+00  0.00000000000E+00  0.15293649564E+04  0.15293649564E+04  0.00000000000E+00 0.  1.
         -1   -1    0    0    0  501 -0.00000000000E+00 -0.00000000000E+00 -0.38444518409E+02  0.38444518409E+02  0.00000000000E+00 0. -1.
          6    1    1    2  502    0 -0.18232678380E+02 -0.16707430051E+03  0.82598745155E+03  0.86048272648E+03  0.17300000000E+03 0. -1.
         -6    1    1    2    0  501  0.18232678380E+02  0.16707430051E+03  0.66493298648E+03  0.70732674837E+03  0.17300000000E+03 0.  1.
</event>
<event>
 4    1  0.1082663E+000  0.1000000E+03  0.7546771E-02  0.1280296E+00
          2   -1    0    0  502    0  0.00000000000E+00  0.00000000000E+00  0.23155691124E+04  0.23155691124E+04  0.00000000000E+00 0.  1.
         -2   -1    0    0    0  501 -0.00000000000E+00 -0.00000000000E+00 -0.24879724498E+02  0.24879724498E+02  0.00000000000E+00 0. -1.
          6    1    1    2  502    0 -0.14135998591E+03 -0.83504924852E+02  0.10139775221E+04  0.10416501972E+04  0.17300000000E+03 0. -1.
         -6    1    1    2    0  501  0.14135998591E+03  0.83504924852E+02  0.12767118657E+04  0.12987986396E+04  0.17300000000E+03 0.  1.
</event>
<event>
 4    1  0.1082663E+000  0.1000000E+03  0.7546771E-02  0.1280296E+00
          2   -1    0    0  502    0  0.00000000000E+00  0.00000000000E+00  0.81124237580E+03  0.81124237580E+03  0.00000000000E+00 0.  1.
         -2   -1    0    0    0  501 -0.00000000000E+00 -0.00000000000E+00 -0.10125895504E+03  0.10125895504E+03  0.00000000000E+00 0. -1.
          6    1    1    2  502    0  0.54021546796E+02  0.15299242395E+03  0.98844006452E+02  0.25695164315E+03  0.17300000000E+03 0.  1.
         -6    1    1    2    0  501 -0.54021546796E+02 -0.15299242395E+03  0.61113941431E+03  0.65554968769E+03  0.17300000000E+03 0. -1.
</event>
<event>
 4    1  0.1082663E+000  0.1000000E+03  0.7546771E-02  0.1280296E+00
          2   -1    0    0  502    0  0.00000000000E+00  0.00000000000E+00  0.15668189167E+04  0.15668189167E+04  0.00000000000E+00 0.  1.
         -2   -1    0    0    0  501 -0.00000000000E+00 -0.00000000000E+00 -0.22455931939E+02  0.22455931939E+02  0.00000000000E+00 0. -1.
          6    1    1    2  502    0  0.22083169236E+02  0.29707269660E+02  0.10362400467E+04  0.10512338573E+04  0.17300000000E+03 0.  1.
         -6    1    1    2    0  501 -0.22083169236E+02 -0.29707269660E+02  0.50812293804E+03  0.53804099137E+03  0.17300000000E+03 0. -1.
</event>
<event>
 4    1  0.1082663E+000  0.1000000E+03  0.7546771E-02  0.1280296E+00
         -1   -1    0    0    0  501 -0.00000000000E+00  0.00000000000E+00  0.34878282789E+03  0.34878282789E+03  0.00000000000E+00 0. -1.
          1   -1    0    0  502    0  0.00000000000E+00 -0.00000000000E+00 -0.33667781001E+03  0.33667781001E+03  0.00000000000E+00 0.  1.
          6    1    1    2  502    0  0.17920143243E+03 -0.23475266596E+03  0.22682522676E+02  0.34302399973E+03  0.17300000000E+03 0. -1.
         -6    1    1    2    0  501 -0.17920143243E+03  0.23475266596E+03 -0.10577504797E+02  0.34243663817E+03  0.17300000000E+03 0.  1.
</event>
<event>
 4    1  0.1082663E+000  0.1000000E+03  0.7546771E-02  0.1280296E+00
          2   -1    0    0  502    0  0.00000000000E+00  0.00000000000E+00  0.92762950980E+02  0.92762950980E+02  0.00000000000E+00 0. -1.
         -2   -1    0    0    0  501 -0.00000000000E+00 -0.00000000000E+00 -0.35496774651E+03  0.35496774651E+03  0.00000000000E+00 0.  1.
          6    1    1    2  502    0 -0.90335925310E+01 -0.36572050639E+02 -0.82068403757E+02  0.19514954158E+03  0.17300000000E+03 0. -1.
         -6    1    1    2    0  501  0.90335925310E+01  0.36572050639E+02 -0.18013639177E+03  0.25258115591E+03  0.17300000000E+03 0.  1.
</event>
<event>
 4    1  0.1082663E+000  0.1000000E+03  0.7546771E-02  0.1280296E+00
          1   -1    0    0  502    0  0.00000000000E+00  0.00000000000E+00  0.25641907462E+04  0.25641907462E+04  0.00000000000E+00 0. -1.
         -1   -1    0    0    0  501 -0.00000000000E+00 -0.00000000000E+00 -0.18917461629E+02  0.18917461629E+02  0.00000000000E+00 0.  1.
          6    1    1    2  502    0 -0.54553671697E+02 -0.11194333622E+03  0.15976385910E+04  0.16117957318E+04  0.17300000000E+03 0. -1.
         -6    1    1    2    0  501  0.54553671697E+02  0.11194333622E+03  0.94763469365E+03  0.97131247610E+03  0.17300000000E+03 0.  1.
</event>
<event>
 4    1  0.1082663E+000  0.1000000E+03  0.7546771E-02  0.1280296E+00
         -2   -1    0    0    0  501 -0.00000000000E+00  0.00000000000E+00  0.58146056212E+02  0.58146056212E+02  0.00000000000E+00 0. -1.
          2   -1    0    0  502    0  0.00000000000E+00 -0.00000000000E+00 -0.93071479681E+03  0.93071479681E+03  0.00000000000E+00 0.  1.
          6    1    1    2  502    0  0.49934992640E+01  0.12394899369E+03 -0.23690477069E+03  0.31849828641E+03  0.17300000000E+03 0.  1.
         -6    1    1    2    0  501 -0.49934992640E+01 -0.12394899369E+03 -0.63566396991E+03  0.67036256661E+03  0.17300000000E+03 0. -1.
</event>
<event>
 4    1  0.1082663E+000  0.1000000E+03  0.7546771E-02  0.1280296E+00
         -1   -1    0    0    0  501 -0.00000000000E+00  0.00000000000E+00  0.65777108161E+02  0.65777108161E+02  0.00000000000E+00 0. -1.
          1   -1    0    0  502    0  0.00000000000E+00 -0.00000000000E+00 -0.74013661090E+03  0.74013661090E+03  0.00000000000E+00 0.  1.
          6    1    1    2  502    0 -0.81401315366E+02  0.59916975086E+02 -0.16842175875E+03  0.26174626429E+03  0.17300000000E+03 0.  1.
         -6    1    1    2    0  501  0.81401315366E+02 -0.59916975086E+02 -0.50593774398E+03  0.54416745477E+03  0.17300000000E+03 0. -1.
</event>
<event>
 4    1  0.1082663E+000  0.1000000E+03  0.7546771E-02  0.1280296E+00
         -4   -1    0    0    0  501 -0.00000000000E+00  0.00000000000E+00  0.85290014227E+03  0.85290014227E+03  0.00000000000E+00 0. -1.
          4   -1    0    0  502    0  0.00000000000E+00 -0.00000000000E+00 -0.41579522581E+02  0.41579522581E+02  0.00000000000E+00 0.  1.
          6    1    1    2  502    0 -0.42329533363E+02 -0.51873519899E+02  0.48267300372E+03  0.51709271894E+03  0.17300000000E+03 0.  1.
         -6    1    1    2    0  501  0.42329533363E+02  0.51873519899E+02  0.32864761597E+03  0.37738694591E+03  0.17300000000E+03 0. -1.
</event>
<event>
 4    1  0.1082663E+000  0.1000000E+03  0.7546771E-02  0.1280296E+00
         -2   -1    0    0    0  501 -0.00000000000E+00  0.00000000000E+00  0.40666961989E+02  0.40666961989E+02  0.00000000000E+00 0. -1.
          2   -1    0    0  502    0  0.00000000000E+00 -0.00000000000E+00 -0.11585236820E+04  0.11585236820E+04  0.00000000000E+00 0.  1.
          6    1    1    2  502    0 -0.90968486183E+02 -0.92525040636E+02 -0.50736039176E+03  0.55152490039E+03  0.17300000000E+03 0.  1.
         -6    1    1    2    0  501  0.90968486183E+02  0.92525040636E+02 -0.61049632824E+03  0.64766574358E+03  0.17300000000E+03 0. -1.
</event>
<event>
 4    1  0.1082663E+000  0.1000000E+03  0.7546771E-02  0.1280296E+00
         -2   -1    0    0    0  501 -0.00000000000E+00  0.00000000000E+00  0.48462561596E+03  0.48462561596E+03  0.00000000000E+00 0.  1.
          2   -1    0    0  502    0  0.00000000000E+00 -0.00000000000E+00 -0.66548475695E+02  0.66548475695E+02  0.00000000000E+00 0. -1.
          6    1    1    2  502    0 -0.28189170367E+02 -0.38205660938E+02  0.19640335219E+03  0.26600296728E+03  0.17300000000E+03 0. -1.
         -6    1    1    2    0  501  0.28189170367E+02  0.38205660938E+02  0.22167378808E+03  0.28517112437E+03  0.17300000000E+03 0.  1.
</event>
<event>
 4    1  0.1082663E+000  0.1000000E+03  0.7546771E-02  0.1280296E+00
         -1   -1    0    0    0  501 -0.00000000000E+00  0.00000000000E+00  0.16725619996E+03  0.16725619996E+03  0.00000000000E+00 0.  1.
          1   -1    0    0  502    0  0.00000000000E+00 -0.00000000000E+00 -0.24277604009E+03  0.24277604009E+03  0.00000000000E+00 0. -1.
          6    1    1    2  502    0 -0.22849052707E+02  0.68484254966E+02  0.37449837490E+02  0.19116396814E+03  0.17300000000E+03 0. -1.
         -6    1    1    2    0  501  0.22849052707E+02 -0.68484254966E+02 -0.11296967762E+03  0.21886827191E+03  0.17300000000E+03 0.  1.
</event>
<event>
 4    1  0.1082663E+000  0.1000000E+03  0.7546771E-02  0.1280296E+00
         -1   -1    0    0    0  501 -0.00000000000E+00  0.00000000000E+00  0.20733565448E+02  0.20733565448E+02  0.00000000000E+00 0. -1.
          1   -1    0    0  502    0  0.00000000000E+00 -0.00000000000E+00 -0.19703329201E+04  0.19703329201E+04  0.00000000000E+00 0.  1.
          6    1    1    2  502    0  0.20073103333E+02  0.99430403334E+02 -0.85080927621E+03  0.87412513925E+03  0.17300000000E+03 0.  1.
         -6    1    1    2    0  501 -0.20073103333E+02 -0.99430403334E+02 -0.10987900784E+04  0.11169413463E+04  0.17300000000E+03 0. -1.
</event>
<event>
 4    1  0.1082663E+000  0.1000000E+03  0.7546771E-02  0.1280296E+00
         -2   -1    0    0    0  501 -0.00000000000E+00  0.00000000000E+00  0.16052679875E+03  0.16052679875E+03  0.00000000000E+00 0. -1.
          2   -1    0    0  502    0  0.00000000000E+00 -0.00000000000E+00 -0.47051385924E+03  0.47051385924E+03  0.00000000000E+00 0.  1.
          6    1    1    2  502    0  0.83601753239E+01 -0.13532988073E+03  0.34409797579E+02  0.22247944471E+03  0.17300000000E+03 0.  1.
         -6    1    1    2    0  501 -0.83601753239E+01  0.13532988073E+03 -0.34439685807E+03  0.40856121328E+03  0.17300000000E+03 0. -1.
</event>
<event>
 4    1  0.1082663E+000  0.1000000E+03  0.7546771E-02  0.1280296E+00
          2   -1    0    0  502    0  0.00000000000E+00  0.00000000000E+00  0.44229319881E+04  0.44229319881E+04  0.00000000000E+00 0. -1.
         -2   -1    0    0    0  501 -0.00000000000E+00 -0.00000000000E+00 -0.16507773203E+02  0.16507773203E+02  0.00000000000E+00 0.  1.
          6    1    1    2  502    0  0.15652063836E+03  0.13536872089E+03  0.23357633170E+04  0.23512853238E+04  0.17300000000E+03 0. -1.
         -6    1    1    2    0  501 -0.15652063836E+03 -0.13536872089E+03  0.20706608979E+04  0.20881544375E+04  0.17300000000E+03 0.  1.
</event>
<event>
 4    1  0.1082663E+000  0.1000000E+03  0.7546771E-02  0.1280296E+00
          2   -1    0    0  502    0  0.00000000000E+00  0.00000000000E+00  0.14885126726E+03  0.14885126726E+03  0.00000000000E+00 0. -1.
         -2   -1    0    0    0  501 -0.00000000000E+00 -0.00000000000E+00 -0.32009908415E+03  0.32009908415E+03  0.00000000000E+00 0.  1.
          6    1    1    2  502    0 -0.12437725435E+03  0.63065909531E+01 -0.35140953342E+02  0.21604018397E+03  0.17300000000E+03 0. -1.
         -6    1    1    2    0  501  0.12437725435E+03 -0.63065909531E+01 -0.13610686355E+03  0.25291016744E+03  0.17300000000E+03 0.  1.
</event>
<event>
 4    1  0.1082663E+000  0.1000000E+03  0.7546771E-02  0.1280296E+00
          1   -1    0    0  502    0  0.00000000000E+00  0.00000000000E+00  0.43517483462E+03  0.43517483462E+03  0.00000000000E+00 0. -1.
         -1   -1    0    0    0  501 -0.00000000000E+00 -0.00000000000E+00 -0.78063397898E+02  0.78063397898E+02  0.00000000000E+00 0.  1.
          6    1    1    2  502    0  0.49525487773E+02 -0.12034900452E+02  0.12563701091E+03  0.21979825131E+03  0.17300000000E+03 0.  1.
         -6    1    1    2    0  501 -0.49525487773E+02  0.12034900452E+02  0.23147442581E+03  0.29343998121E+03  0.17300000000E+03 0. -1.
</event>
<event>
 4    1  0.1082663E+000  0.1000000E+03  0.7546771E-02  0.1280296E+00
          1   -1    0    0  502    0  0.00000000000E+00  0.00000000000E+00  0.87668077580E+03  0.87668077580E+03  0.00000000000E+00 0. -1.
         -1   -1    0    0    0  501 -0.00000000000E+00 -0.00000000000E+00 -0.41044268346E+02  0.41044268346E+02  0.00000000000E+00 0.  1.
          6    1    1    2  502    0  0.43475921564E+02 -0.58712170972E+02  0.35307009977E+03  0.39990595160E+03  0.17300000000E+03 0. -1.
         -6    1    1    2    0  501 -0.43475921564E+02  0.58712170972E+02  0.48256640769E+03  0.51781909255E+03  0.17300000000E+03 0.  1.
</event>
<event>
 4    1  0.1082663E+000  0.1000000E+03  0.7546771E-02  0.1280296E+00
          2   -1    0    0  502    0  0.00000000000E+00  0.00000000000E+00  0.72883340422E+03  0.72883340422E+03  0.00000000000E+00 0. -1.
         -2   -1    0    0    0  501 -0.00000000000E+00 -0.00000000000E+00 -0.50461381595E+02  0.50461381595E+02  0.00000000000E+00 0.  1.
          6    1    1    2  502    0  0.77846548336E+01 -0.76063726980E+02  0.40352178964E+03  0.44565135042E+03  0.17300000000E+03 0. -1.
         -6    1    1    2    0  501 -0.77846548336E+01  0.76063726980E+02  0.27485023298E+03  0.33364343540E+03  0.17300000000E+03 0.  1.
</event>
<event>
 4    1  0.1082663E+000  0.1000000E+03  0.7546771E-02  0.1280296E+00
          1   -1    0    0  502    0  0.00000000000E+00  0.00000000000E+00  0.48898564766E+03  0.48898564766E+03  0.00000000000E+00 0. -1.
         -1   -1    0    0    0  501 -0.00000000000E+00 -0.00000000000E+00 -0.97444296069E+02  0.97444296069E+02  0.00000000000E+00 0.  1.
          6    1    1    2  502    0  0.14012486614E+02  0.93084196517E+02  0.69341175532E+02  0.20880185834E+03  0.17300000000E+03 0. -1.
         -6    1    1    2    0  501 -0.14012486614E+02 -0.93084196517E+02  0.32220017606E+03  0.37762808539E+03  0.17300000000E+03 0.  1.
</event>
<event>
 4    1  0.1082663E+000  0.1000000E+03  0.7546771E-02  0.1280296E+00
         -2   -1    0    0    0  501 -0.00000000000E+00  0.00000000000E+00  0.20711911924E+02  0.20711911924E+02  0.00000000000E+00 0.  1.
          2   -1    0    0  502    0  0.00000000000E+00 -0.00000000000E+00 -0.22875449205E+04  0.22875449205E+04  0.00000000000E+00 0. -1.
          6    1    1    2  502    0 -0.13055141025E+03  0.19667441148E+02 -0.11097338608E+04  0.11308707799E+04  0.17300000000E+03 0. -1.
         -6    1    1    2    0  501  0.13055141025E+03 -0.19667441148E+02 -0.11570991477E+04  0.11773860525E+04  0.17300000000E+03 0.  1.
</event>
<event>
 4    1  0.1082663E+000  0.1000000E+03  0.7546771E-02  0.1280296E+00
         -2   -1    0    0    0  501 -0.00000000000E+00  0.00000000000E+00  0.77636063263E+02  0.77636063263E+02  0.00000000000E+00 0.  1.
          2   -1    0    0  502    0  0.00000000000E+00 -0.00000000000E+00 -0.46240422718E+03  0.46240422718E+03  0.00000000000E+00 0. -1.
          6    1    1    2  502    0 -0.67664934033E+02 -0.10816737676E+02 -0.24326527565E+03  0.30627200239E+03  0.17300000000E+03 0. -1.
         -6    1    1    2    0  501  0.67664934033E+02  0.10816737676E+02 -0.14150288827E+03  0.23376828806E+03  0.17300000000E+03 0.  1.
</event>
<event>
 4    1  0.1082663E+000  0.1000000E+03  0.7546771E-02  0.1280296E+00
         -2   -1    0    0    0  501 -0.00000000000E+00  0.00000000000E+00  0.76538285491E+03  0.76538285491E+03  0.00000000000E+00 0.  1.
          2   -1    0    0  502    0  0.00000000000E+00 -0.00000000000E+00 -0.17903747830E+03  0.17903747830E+03  0.00000000000E+00 0. -1.
          6    1    1    2  502    0  0.10468416967E+03 -0.20612204967E+02 -0.10148846406E+03  0.22718394906E+03  0.17300000000E+03 0. -1.
         -6    1    1    2    0  501 -0.10468416967E+03  0.20612204967E+02  0.68783384067E+03  0.71723638415E+03  0.17300000000E+03 0.  1.
</event>
<event>
 4    1  0.1082663E+000  0.1000000E+03  0.7546771E-02  0.1280296E+00
         -1   -1    0    0    0  501 -0.00000000000E+00  0.00000000000E+00  0.17073664825E+02  0.17073664825E+02  0.00000000000E+00 0.  1.
          1   -1    0    0  502    0  0.00000000000E+00 -0.00000000000E+00 -0.26750694242E+04  0.26750694242E+04  0.00000000000E+00 0. -1.
          6    1    1    2  502    0 -0.11737213870E+03  0.41508925458E+02 -0.12304049225E+04  0.12487291472E+04  0.17300000000E+03 0. -1.
         -6    1    1    2    0  501  0.11737213870E+03 -0.41508925458E+02 -0.14275908369E+04  0.14434139418E+04  0.17300000000E+03 0.  1.
</event>
<event>
 4    1  0.1082663E+000  0.1000000E+03  0.7546771E-02  0.1280296E+00
         -2   -1    0    0    0  501 -0.00000000000E+00  0.00000000000E+00  0.13463303757E+03  0.13463303757E+03  0.00000000000E+00 0.  1.
          2   -1    0    0  502    0  0.00000000000E+00 -0.00000000000E+00 -0.17070448769E+04  0.17070448769E+04  0.00000000000E+00 0. -1.
          6    1    1    2  502    0  0.12743262152E+03 -0.41611867147E+03 -0.98304783415E+03  0.10889012196E+04  0.17300000000E+03 0. -1.
         -6    1    1    2    0  501 -0.12743262152E+03  0.41611867147E+03 -0.58936400523E+03  0.75277669494E+03  0.17300000000E+03 0.  1.
</event>
<event>
 4    1  0.1082663E+000  0.1000000E+03  0.7546771E-02  0.1280296E+00
         -2   -1    0    0    0  501 -0.00000000000E+00  0.00000000000E+00  0.28549791866E+03  0.28549791866E+03  0.00000000000E+00 0.  1.
          2   -1    0    0  502    0  0.00000000000E+00 -0.00000000000E+00 -0.24372740995E+03  0.24372740995E+03  0.00000000000E+00 0. -1.
          6    1    1    2  502    0 -0.42312188904E+02 -0.61264865937E+02 -0.16438425726E+03  0.24998977811E+03  0.17300000000E+03 0. -1.
         -6    1    1    2    0  501  0.42312188904E+02  0.61264865937E+02  0.20615476597E+03  0.27923555050E+03  0.17300000000E+03 0.  1.
</event>
<event>
 4    1  0.1082663E+000  0.1000000E+03  0.7546771E-02  0.1280296E+00
          1   -1    0    0  502    0  0.00000000000E+00  0.00000000000E+00  0.68409524864E+02  0.68409524864E+02  0.00000000000E+00 0.  1.
         -1   -1    0    0    0  501 -0.00000000000E+00 -0.00000000000E+00 -0.11060316925E+04  0.11060316925E+04  0.00000000000E+00 0. -1.
          6    1    1    2  502    0  0.20369111540E+02  0.76456703188E+02 -0.94667947707E+02  0.21248893734E+03  0.17300000000E+03 0.  1.
         -6    1    1    2    0  501 -0.20369111540E+02 -0.76456703188E+02 -0.94295421992E+03  0.96195228002E+03  0.17300000000E+03 0. -1.
</event>
<event>
 4    1  0.1082663E+000  0.1000000E+03  0.7546771E-02  0.1280296E+00
          1   -1    0    0  502    0  0.00000000000E+00  0.00000000000E+00  0.88631860166E+02  0.88631860166E+02  0.00000000000E+00 0.  1.
         -1   -1    0    0    0  501 -0.00000000000E+00 -0.00000000000E+00 -0.69296580772E+03  0.69296580772E+03  0.00000000000E+00 0. -1.
          6    1    1    2  502    0 -0.95807903931E+02 -0.14935643281E+03 -0.29928074421E+03  0.38856719153E+03  0.17300000000E+03 0.  1.
         -6    1    1    2    0  501  0.95807903931E+02  0.14935643281E+03 -0.30505320334E+03  0.39303047636E+03  0.17300000000E+03 0. -1.
</event>
<event>
 4    1  0.1082663E+000  0.1000000E+03  0.7546771E-02  0.1280296E+00
          2   -1    0    0  502    0  0.00000000000E+00  0.00000000000E+00  0.26636059037E+04  0.26636059037E+04  0.00000000000E+00 0.  1.
         -2   -1    0    0    0  501 -0.00000000000E+00 -0.00000000000E+00 -0.15237510562E+02  0.15237510562E+02  0.00000000000E+00 0. -1.
          6    1    1    2  502    0 -0.49206252171E+02 -0.66877116043E+02  0.17320764750E+04  0.17426737271E+04  0.17300000000E+03 0.  1.
         -6    1    1    2    0  501  0.49206252171E+02  0.66877116043E+02  0.91629191819E+03  0.93616968720E+03  0.17300000000E+03 0. -1.
</event>
<event>
 4    1  0.1082663E+000  0.1000000E+03  0.7546771E-02  0.1280296E+00
          1   -1    0    0  502    0  0.00000000000E+00  0.00000000000E+00  0.23190123758E+03  0.23190123758E+03  0.00000000000E+00 0. -1.
         -1   -1    0    0    0  501 -0.00000000000E+00 -0.00000000000E+00 -0.21061517200E+03  0.21061517200E+03  0.00000000000E+00 0.  1.
          6    1    1    2  502    0 -0.20865563290E+02 -0.53731736278E+02  0.13564945335E+03  0.22727130353E+03  0.17300000000E+03 0. -1.
         -6    1    1    2    0  501  0.20865563290E+02  0.53731736278E+02 -0.11436338777E+03  0.21524510604E+03  0.17300000000E+03 0.  1.
</event>
<event>
 4    1  0.1082663E+000  0.1000000E+03  0.7546771E-02  0.1280296E+00
          2   -1    0    0  502    0  0.00000000000E+00  0.00000000000E+00  0.17557159827E+04  0.17557159827E+04  0.00000000000E+00 0. -1.
         -2   -1    0    0    0  501 -0.00000000000E+00 -0.00000000000E+00 -0.20740547454E+02  0.20740547454E+02  0.00000000000E+00 0.  1.
          6    1    1    2  502    0 -0.42455649946E+01  0.65913281787E+02  0.65302357647E+03  0.67877196242E+03  0.17300000000E+03 0. -1.
         -6    1    1    2    0  501  0.42455649946E+01 -0.65913281787E+02  0.10819518588E+04  0.10976845678E+04  0.17300000000E+03 0.  1.
</event>
<event>
 4    1  0.1082663E+000  0.1000000E+03  0.7546771E-02  0.1280296E+00
          1   -1    0    0  502    0  0.00000000000E+00  0.00000000000E+00  0.23229250366E+04  0.23229250366E+04  0.00000000000E+00 0. -1.
         -1   -1    0    0    0  501 -0.00000000000E+00 -0.00000000000E+00 -0.20993231243E+02  0.20993231243E+02  0.00000000000E+00 0.  1.
          6    1    1    2  502    0 -0.26028453381E+02 -0.12381081739E+03  0.14332954880E+04  0.14492313669E+04  0.17300000000E+03 0. -1.
         -6    1    1    2    0  501  0.26028453381E+02  0.12381081739E+03  0.86863631736E+03  0.89468690095E+03  0.17300000000E+03 0.  1.
</event>
<event>
 4    1  0.1082663E+000  0.1000000E+03  0.7546771E-02  0.1280296E+00
         -2   -1    0    0    0  501 -0.00000000000E+00  0.00000000000E+00  0.51548087311E+02  0.51548087311E+02  0.00000000000E+00 0.  1.
          2   -1    0    0  502    0  0.00000000000E+00 -0.00000000000E+00 -0.13223047652E+04  0.13223047652E+04  0.00000000000E+00 0. -1.
          6    1    1    2  502    0  0.19004958641E+03 -0.37682988682E+02 -0.56604342969E+03  0.62279452248E+03  0.17300000000E+03 0. -1.
         -6    1    1    2    0  501 -0.19004958641E+03  0.37682988682E+02 -0.70471324820E+03  0.75105833004E+03  0.17300000000E+03 0.  1.
</event>
<event>
 4    1  0.1082663E+000  0.1000000E+03  0.7546771E-02  0.1280296E+00
         -2   -1    0    0    0  501 -0.00000000000E+00  0.00000000000E+00  0.12640576617E+03  0.12640576617E+03  0.00000000000E+00 0.  1.
          2   -1    0    0  502    0  0.00000000000E+00 -0.00000000000E+00 -0.58026579123E+03  0.58026579123E+03  0.00000000000E+00 0. -1.
          6    1    1    2  502    0  0.19853449037E+03 -0.79828633212E+01 -0.14503569127E+03  0.30073912568E+03  0.17300000000E+03 0. -1.
         -6    1    1    2    0  501 -0.19853449037E+03  0.79828633212E+01 -0.30882433379E+03  0.40593243171E+03  0.17300000000E+03 0.  1.
</event>
<event>
 4    1  0.1082663E+000  0.1000000E+03  0.7546771E-02  0.1280296E+00
          4   -1    0    0  502    0  0.00000000000E+00  0.00000000000E+00  0.96252139544E+03  0.96252139544E+03  0.00000000000E+00 0.  1.
         -4   -1    0    0    0  501 -0.00000000000E+00 -0.00000000000E+00 -0.68036110234E+02  0.68036110234E+02  0.00000000000E+00 0. -1.
          6    1    1    2  502    0  0.17810517225E+03 -0.60024747136E+02  0.41652070276E+03  0.48861326064E+03  0.17300000000E+03 0.  1.
         -6    1    1    2    0  501 -0.17810517225E+03  0.60024747136E+02  0.47796458245E+03  0.54194424503E+03  0.17300000000E+03 0. -1.
</event>
<event>
 4    1  0.1082663E+000  0.1000000E+03  0.7546771E-02  0.1280296E+00
         -2   -1    0    0    0  501 -0.00000000000E+00  0.00000000000E+00  0.44016538022E+02  0.44016538022E+02  0.00000000000E+00 0.  1.
          2   -1    0    0  502    0  0.00000000000E+00 -0.00000000000E+00 -0.84167023352E+03  0.84167023352E+03  0.00000000000E+00 0. -1.
          6    1    1    2  502    0 -0.64139625236E+01 -0.81333906818E+02 -0.44828336040E+03  0.48738415498E+03  0.17300000000E+03 0. -1.
         -6    1    1    2    0  501  0.64139625236E+01  0.81333906818E+02 -0.34937033510E+03  0.39830261656E+03  0.17300000000E+03 0.  1.
</event>
<event>
 4    1  0.1082663E+000  0.1000000E+03  0.7546771E-02  0.1280296E+00
         -2   -1    0    0    0  501 -0.00000000000E+00  0.00000000000E+00  0.19263829190E+02  0.19263829190E+02  0.00000000000E+00 0.  1.
          2   -1    0    0  502    0  0.00000000000E+00 -0.00000000000E+00 -0.17536579461E+04  0.17536579461E+04  0.00000000000E+00 0. -1.
          6    1    1    2  502    0 -0.19895019671E+02  0.52954594154E+02 -0.99045863089E+03  0.10070438423E+04  0.17300000000E+03 0. -1.
         -6    1    1    2    0  501  0.19895019671E+02 -0.52954594154E+02 -0.74393548598E+03  0.76587793293E+03  0.17300000000E+03 0.  1.
</event>
<event>
 4    1  0.1082663E+000  0.1000000E+03  0.7546771E-02  0.1280296E+00
         -1   -1    0    0    0  501 -0.00000000000E+00  0.00000000000E+00  0.75640313450E+02  0.75640313450E+02  0.00000000000E+00 0.  1.
          1   -1    0    0  502    0  0.00000000000E+00 -0.00000000000E+00 -0.64418018258E+03  0.64418018258E+03  0.00000000000E+00 0. -1.
          6    1    1    2  502    0 -0.47711985618E+02 -0.30572506520E+02 -0.48782388055E+03  0.52068440553E+03  0.17300000000E+03 0. -1.
         -6    1    1    2    0  501  0.47711985618E+02  0.30572506520E+02 -0.80715988578E+02  0.19913609050E+03  0.17300000000E+03 0.  1.
</event>
<event>
 4    1  0.1082663E+000  0.1000000E+03  0.7546771E-02  0.1280296E+00
         -1   -1    0    0    0  501 -0.00000000000E+00  0.00000000000E+00  0.90417250854E+02  0.90417250854E+02  0.00000000000E+00 0. -1.
          1   -1    0    0  502    0  0.00000000000E+00 -0.00000000000E+00 -0.35194383942E+03  0.35194383942E+03  0.00000000000E+00 0.  1.
          6    1    1    2  502    0  0.34611987318E+02  0.42259026528E+01 -0.16302310120E+03  0.24025274076E+03  0.17300000000E+03 0.  1.
         -6    1    1    2    0  501 -0.34611987318E+02 -0.42259026528E+01 -0.98503487371E+02  0.20210834951E+03  0.17300000000E+03 0. -1.
</event>
<event>
 4    1  0.1082663E+000  0.1000000E+03  0.7546771E-02  0.1280296E+00
         -1   -1    0    0    0  501 -0.00000000000E+00  0.00000000000E+00  0.25902329215E+02  0.25902329215E+02  0.00000000000E+00 0. -1.
          1   -1    0    0  502    0  0.00000000000E+00 -0.00000000000E+00 -0.15759208734E+04  0.15759208734E+04  0.00000000000E+00 0.  1.
          6    1    1    2  502    0  0.45569763780E+02 -0.58487842853E+02 -0.10661392599E+04  0.10826261370E+04  0.17300000000E+03 0.  1.
         -6    1    1    2    0  501 -0.45569763780E+02  0.58487842853E+02 -0.48387928438E+03  0.51919706566E+03  0.17300000000E+03 0. -1.
</event>
<event>
 4    1  0.1082663E+000  0.1000000E+03  0.7546771E-02  0.1280296E+00
         -2   -1    0    0    0  501 -0.00000000000E+00  0.00000000000E+00  0.22362126886E+02  0.22362126886E+02  0.00000000000E+00 0.  1.
          2   -1    0    0  502    0  0.00000000000E+00 -0.00000000000E+00 -0.13523613966E+04  0.13523613966E+04  0.00000000000E+00 0. -1.
          6    1    1    2  502    0 -0.72698517438E+01 -0.15702970590E+02 -0.65061570549E+03  0.67344578866E+03  0.17300000000E+03 0.  1.
         -6    1    1    2    0  501  0.72698517438E+01  0.15702970590E+02 -0.67938356425E+03  0.70127773485E+03  0.17300000000E+03 0.  1.
</event>
<event>
 4    1  0.1082663E+000  0.1000000E+03  0.7546771E-02  0.1280296E+00
         -2   -1    0    0    0  501 -0.00000000000E+00  0.00000000000E+00  0.15237676226E+03  0.15237676226E+03  0.00000000000E+00 0.  1.
          2   -1    0    0  502    0  0.00000000000E+00 -0.00000000000E+00 -0.26245948870E+03  0.26245948870E+03  0.00000000000E+00 0. -1.
          6    1    1    2  502    0 -0.90331755897E+02  0.24485859268E+02 -0.92500021274E+02  0.21735831561E+03  0.17300000000E+03 0.  1.
         -6    1    1    2    0  501  0.90331755897E+02 -0.24485859268E+02 -0.17582705166E+02  0.19747793535E+03  0.17300000000E+03 0.  1.
</event>
<event>
 4    1  0.1082663E+000  0.1000000E+03  0.7546771E-02  0.1280296E+00
          2   -1    0    0  502    0  0.00000000000E+00  0.00000000000E+00  0.34801148073E+03  0.34801148073E+03  0.00000000000E+00 0.  1.
         -2   -1    0    0    0  501 -0.00000000000E+00 -0.00000000000E+00 -0.11209892399E+03  0.11209892399E+03  0.00000000000E+00 0. -1.
          6    1    1    2  502    0 -0.64200253807E+02  0.11841094532E+02  0.37084798890E+02  0.18858994251E+03  0.17300000000E+03 0. -1.
         -6    1    1    2    0  501  0.64200253807E+02 -0.11841094532E+02  0.19882775785E+03  0.27152046221E+03  0.17300000000E+03 0. -1.
</event>
<event>
 4    1  0.1082663E+000  0.1000000E+03  0.7546771E-02  0.1280296E+00
          2   -1    0    0  502    0  0.00000000000E+00  0.00000000000E+00  0.93375473596E+03  0.93375473596E+03  0.00000000000E+00 0.  1.
         -2   -1    0    0    0  501 -0.00000000000E+00 -0.00000000000E+00 -0.38590521176E+02  0.38590521176E+02  0.00000000000E+00 0. -1.
          6    1    1    2  502    0 -0.77363447827E+02 -0.99613726670E+01  0.43591557369E+03  0.47543213963E+03  0.17300000000E+03 0. -1.
         -6    1    1    2    0  501  0.77363447827E+02  0.99613726670E+01  0.45924864109E+03  0.49691311751E+03  0.17300000000E+03 0. -1.
</event>
<event>
 4    1  0.1082663E+000  0.1000000E+03  0.7546771E-02  0.1280296E+00
          4   -1    0    0  502    0  0.00000000000E+00  0.00000000000E+00  0.63714632849E+02  0.63714632849E+02  0.00000000000E+00 0.  1.
         -4   -1    0    0    0  501 -0.00000000000E+00 -0.00000000000E+00 -0.69288203894E+03  0.69288203894E+03  0.00000000000E+00 0. -1.
          6    1    1    2  502    0  0.38996379184E+02  0.11145552549E+03 -0.28474409283E+03  0.35348444117E+03  0.17300000000E+03 0. -1.
         -6    1    1    2    0  501 -0.38996379184E+02 -0.11145552549E+03 -0.34442331326E+03  0.40311223061E+03  0.17300000000E+03 0. -1.
</event>
<event>
 4    1  0.1082663E+000  0.1000000E+03  0.7546771E-02  0.1280296E+00
          2   -1    0    0  502    0  0.00000000000E+00  0.00000000000E+00  0.44208144118E+03  0.44208144118E+03  0.00000000000E+00 0.  1.
         -2   -1    0    0    0  501 -0.00000000000E+00 -0.00000000000E+00 -0.16229867497E+03  0.16229867497E+03  0.00000000000E+00 0. -1.
          6    1    1    2  502    0  0.75126284848E+02 -0.16753060107E+03  0.24148720385E+03  0.34922132036E+03  0.17300000000E+03 0. -1.
         -6    1    1    2    0  501 -0.75126284848E+02  0.16753060107E+03  0.38295562361E+02  0.25515879579E+03  0.17300000000E+03 0. -1.
</event>
<event>
 4    1  0.1082663E+000  0.1000000E+03  0.7546771E-02  0.1280296E+00
          2   -1    0    0  502    0  0.00000000000E+00  0.00000000000E+00  0.34504032332E+04  0.34504032332E+04  0.00000000000E+00 0. -1.
         -2   -1    0    0    0  501 -0.00000000000E+00 -0.00000000000E+00 -0.51295649846E+02  0.51295649846E+02  0.00000000000E+00 0.  1.
          6    1    1    2  502    0 -0.10192336765E+03  0.29495048999E+03  0.77196920216E+03  0.85044083480E+03  0.17300000000E+03 0.  1.
         -6    1    1    2    0  501  0.10192336765E+03 -0.29495048999E+03  0.26271383812E+04  0.26512580482E+04  0.17300000000E+03 0. -1.
</event>
<event>
 4    1  0.1082663E+000  0.1000000E+03  0.7546771E-02  0.1280296E+00
          1   -1    0    0  502    0  0.00000000000E+00  0.00000000000E+00  0.11607715448E+04  0.11607715448E+04  0.00000000000E+00 0. -1.
         -1   -1    0    0    0  501 -0.00000000000E+00 -0.00000000000E+00 -0.13321192604E+03  0.13321192604E+03  0.00000000000E+00 0.  1.
          6    1    1    2  502    0  0.27374973878E+03  0.17417292360E+03  0.74309275580E+03  0.82909044773E+03  0.17300000000E+03 0.  1.
         -6    1    1    2    0  501 -0.27374973878E+03 -0.17417292360E+03  0.28446686294E+03  0.46489302308E+03  0.17300000000E+03 0.  1.
</event>
<event>
 4    1  0.1082663E+000  0.1000000E+03  0.7546771E-02  0.1280296E+00
          2   -1    0    0  502    0  0.00000000000E+00  0.00000000000E+00  0.52328404079E+03  0.52328404079E+03  0.00000000000E+00 0. -1.
         -2   -1    0    0    0  501 -0.00000000000E+00 -0.00000000000E+00 -0.13249607125E+03  0.13249607125E+03  0.00000000000E+00 0.  1.
          6    1    1    2  502    0 -0.12246629827E+03 -0.15157063660E+03  0.24252364617E+03  0.35597523937E+03  0.17300000000E+03 0.  1.
         -6    1    1    2    0  501  0.12246629827E+03  0.15157063660E+03  0.14826432336E+03  0.29980487267E+03  0.17300000000E+03 0.  1.
</event>
<event>
 4    1  0.1082663E+000  0.1000000E+03  0.7546771E-02  0.1280296E+00
          2   -1    0    0  502    0  0.00000000000E+00  0.00000000000E+00  0.54880112570E+03  0.54880112570E+03  0.00000000000E+00 0. -1.
         -2   -1    0    0    0  501 -0.00000000000E+00 -0.00000000000E+00 -0.88992808415E+02  0.88992808415E+02  0.00000000000E+00 0.  1.
          6    1    1    2  502    0  0.31255440620E+02 -0.10821330377E+03  0.11606887017E+03  0.23682906136E+03  0.17300000000E+03 0.  1.
         -6    1    1    2    0  501 -0.31255440620E+02  0.10821330377E+03  0.34373944712E+03  0.40096487276E+03  0.17300000000E+03 0.  1.
</event>
<event>
 4    1  0.1082663E+000  0.1000000E+03  0.7546771E-02  0.1280296E+00
          2   -1    0    0  502    0  0.00000000000E+00  0.00000000000E+00  0.28703222903E+04  0.28703222903E+04  0.00000000000E+00 0.  1.
         -2   -1    0    0    0  501 -0.00000000000E+00 -0.00000000000E+00 -0.14754554845E+02  0.14754554845E+02  0.00000000000E+00 0. -1.
          6    1    1    2  502    0 -0.50147667954E+02 -0.51685012838E+02  0.83153958520E+03  0.85239263893E+03  0.17300000000E+03 0.  1.
         -6    1    1    2    0  501  0.50147667954E+02  0.51685012838E+02  0.20240281503E+04  0.20326842062E+04  0.17300000000E+03 0. -1.
</event>
<event>
 4    1  0.1082663E+000  0.1000000E+03  0.7546771E-02  0.1280296E+00
         -1   -1    0    0    0  501 -0.00000000000E+00  0.00000000000E+00  0.24926459776E+03  0.24926459776E+03  0.00000000000E+00 0.  1.
          1   -1    0    0  502    0  0.00000000000E+00 -0.00000000000E+00 -0.21142285515E+03  0.21142285515E+03  0.00000000000E+00 0. -1.
          6    1    1    2  502    0  0.92846621137E+02  0.93614021056E+02  0.92566974825E+02  0.23639315731E+03  0.17300000000E+03 0. -1.
         -6    1    1    2    0  501 -0.92846621137E+02 -0.93614021056E+02 -0.54725232212E+02  0.22429429559E+03  0.17300000000E+03 0.  1.
</event>
<event>
 4    1  0.1082663E+000  0.1000000E+03  0.7546771E-02  0.1280296E+00
         -2   -1    0    0    0  501 -0.00000000000E+00  0.00000000000E+00  0.36394680208E+03  0.36394680208E+03  0.00000000000E+00 0.  1.
          2   -1    0    0  502    0  0.00000000000E+00 -0.00000000000E+00 -0.13493817585E+03  0.13493817585E+03  0.00000000000E+00 0. -1.
          6    1    1    2  502    0  0.33304137017E+02 -0.74416581037E+02  0.24052287728E+03  0.30729016836E+03  0.17300000000E+03 0. -1.
         -6    1    1    2    0  501 -0.33304137017E+02  0.74416581037E+02 -0.11514251058E+02  0.19159480957E+03  0.17300000000E+03 0.  1.
</event>
<event>
 4    1  0.1082663E+000  0.1000000E+03  0.7546771E-02  0.1280296E+00
         -2   -1    0    0    0  501 -0.00000000000E+00  0.00000000000E+00  0.91375926217E+02  0.91375926217E+02  0.00000000000E+00 0.  1.
          2   -1    0    0  502    0  0.00000000000E+00 -0.00000000000E+00 -0.55008383037E+03  0.55008383037E+03  0.00000000000E+00 0. -1.
          6    1    1    2  502    0  0.20521200477E+02 -0.75202432395E+02 -0.40017917806E+03  0.44288700598E+03  0.17300000000E+03 0. -1.
         -6    1    1    2    0  501 -0.20521200477E+02  0.75202432395E+02 -0.58528726090E+02  0.19857275061E+03  0.17300000000E+03 0.  1.
</event>
<event>
 4    1  0.1082663E+000  0.1000000E+03  0.7546771E-02  0.1280296E+00
         -1   -1    0    0    0  501 -0.00000000000E+00  0.00000000000E+00  0.81997368355E+02  0.81997368355E+02  0.00000000000E+00 0.  1.
          1   -1    0    0  502    0  0.00000000000E+00 -0.00000000000E+00 -0.60922169246E+03  0.60922169246E+03  0.00000000000E+00 0. -1.
          6    1    1    2  502    0  0.78424391539E+02  0.50323499637E+02 -0.98926048716E+02  0.21999591569E+03  0.17300000000E+03 0. -1.
         -6    1    1    2    0  501 -0.78424391539E+02 -0.50323499637E+02 -0.42829827539E+03  0.47122314513E+03  0.17300000000E+03 0.  1.
</event>
<event>
 4    1  0.1082663E+000  0.1000000E+03  0.7546771E-02  0.1280296E+00
         -1   -1    0    0    0  501 -0.00000000000E+00  0.00000000000E+00  0.31974455101E+02  0.31974455101E+02  0.00000000000E+00 0. -1.
          1   -1    0    0  502    0  0.00000000000E+00 -0.00000000000E+00 -0.10763301109E+04  0.10763301109E+04  0.00000000000E+00 0.  1.
          6    1    1    2  502    0 -0.35436732640E+02  0.56664477075E+02 -0.53534964296E+03  0.56656408746E+03  0.17300000000E+03 0. -1.
         -6    1    1    2    0  501  0.35436732640E+02 -0.56664477075E+02 -0.50900601284E+03  0.54174047854E+03  0.17300000000E+03 0. -1.
</event>
<event>
 4    1  0.1082663E+000  0.1000000E+03  0.7546771E-02  0.1280296E+00
         -2   -1    0    0    0  501 -0.00000000000E+00  0.00000000000E+00  0.15070437329E+03  0.15070437329E+03  0.00000000000E+00 0. -1.
          2   -1    0    0  502    0  0.00000000000E+00 -0.00000000000E+00 -0.20978298181E+03  0.20978298181E+03  0.00000000000E+00 0.  1.
          6    1    1    2  502    0 -0.78326387927E+00 -0.39809439647E+02 -0.39717225407E+02  0.18191169006E+03  0.17300000000E+03 0. -1.
         -6    1    1    2    0  501  0.78326387927E+00  0.39809439647E+02 -0.19361383121E+02  0.17857566504E+03  0.17300000000E+03 0. -1.
</event>
<event>
 4    1  0.1082663E+000  0.1000000E+03  0.7546771E-02  0.1280296E+00
          2   -1    0    0  502    0  0.00000000000E+00  0.00000000000E+00  0.71973923693E+02  0.71973923693E+02  0.00000000000E+00 0.  1.
         -2   -1    0    0    0  501 -0.00000000000E+00 -0.00000000000E+00 -0.80166610943E+03  0.80166610943E+03  0.00000000000E+00 0. -1.
          6    1    1    2  502    0 -0.13738867762E+03  0.53952436794E+02 -0.22417744183E+03  0.31932904597E+03  0.17300000000E+03 0.  1.
         -6    1    1    2    0  501  0.13738867762E+03 -0.53952436794E+02 -0.50551474390E+03  0.55431098715E+03  0.17300000000E+03 0.  1.
</event>
<event>
 4    1  0.1082663E+000  0.1000000E+03  0.7546771E-02  0.1280296E+00
          1   -1    0    0  502    0  0.00000000000E+00  0.00000000000E+00  0.23901872838E+03  0.23901872838E+03  0.00000000000E+00 0. -1.
         -1   -1    0    0    0  501 -0.00000000000E+00 -0.00000000000E+00 -0.16354167336E+03  0.16354167336E+03  0.00000000000E+00 0.  1.
          6    1    1    2  502    0  0.57519248939E+02  0.48700464466E+02 -0.22320830265E+02  0.19001952190E+03  0.17300000000E+03 0. -1.
         -6    1    1    2    0  501 -0.57519248939E+02 -0.48700464466E+02  0.97797885283E+02  0.21254087984E+03  0.17300000000E+03 0. -1.
</event>
<event>
 4    1  0.1082663E+000  0.1000000E+03  0.7546771E-02  0.1280296E+00
          2   -1    0    0  502    0  0.00000000000E+00  0.00000000000E+00  0.11219173232E+04  0.11219173232E+04  0.00000000000E+00 0. -1.
         -2   -1    0    0    0  501 -0.00000000000E+00 -0.00000000000E+00 -0.45976029731E+02  0.45976029731E+02  0.00000000000E+00 0.  1.
          6    1    1    2  502    0 -0.76328614837E+02  0.12513034524E+03  0.50458100247E+03  0.55318590798E+03  0.17300000000E+03 0. -1.
         -6    1    1    2    0  501  0.76328614837E+02 -0.12513034524E+03  0.57136029104E+03  0.61470744499E+03  0.17300000000E+03 0. -1.
</event>
<event>
 4    1  0.1082663E+000  0.1000000E+03  0.7546771E-02  0.1280296E+00
          2   -1    0    0  502    0  0.00000000000E+00  0.00000000000E+00  0.96447929769E+03  0.96447929769E+03  0.00000000000E+00 0. -1.
         -2   -1    0    0    0  501 -0.00000000000E+00 -0.00000000000E+00 -0.74225789243E+02  0.74225789243E+02  0.00000000000E+00 0.  1.
          6    1    1    2  502    0 -0.69478708651E+02  0.33213941750E+02  0.78221806709E+02  0.20488559717E+03  0.17300000000E+03 0. -1.
         -6    1    1    2    0  501  0.69478708651E+02 -0.33213941750E+02  0.81203170174E+03  0.83381948977E+03  0.17300000000E+03 0. -1.
</event>
<event>
 4    1  0.1082663E+000  0.1000000E+03  0.7546771E-02  0.1280296E+00
          1   -1    0    0  502    0  0.00000000000E+00  0.00000000000E+00  0.13661861503E+03  0.13661861503E+03  0.00000000000E+00 0. -1.
         -1   -1    0    0    0  501 -0.00000000000E+00 -0.00000000000E+00 -0.76258558604E+03  0.76258558604E+03  0.00000000000E+00 0.  1.
          6    1    1    2  502    0 -0.14291719511E+03  0.20241335466E+02  0.89590774463E+01  0.22548680979E+03  0.17300000000E+03 0. -1.
         -6    1    1    2    0  501  0.14291719511E+03 -0.20241335466E+02 -0.63492604845E+03  0.67371739128E+03  0.17300000000E+03 0. -1.
</event>
<event>
 4    1  0.1082663E+000  0.1000000E+03  0.7546771E-02  0.1280296E+00
         -1   -1    0    0    0  501 -0.00000000000E+00  0.00000000000E+00  0.16055556241E+03  0.16055556241E+03  0.00000000000E+00 0.  1.
          1   -1    0    0  502    0  0.00000000000E+00 -0.00000000000E+00 -0.21412400640E+03  0.21412400640E+03  0.00000000000E+00 0. -1.
          6    1    1    2  502    0  0.48223907457E+02  0.45394678659E+02 -0.18727865515E+02  0.18618795624E+03  0.17300000000E+03 0. -1.
         -6    1    1    2    0  501 -0.48223907457E+02 -0.45394678659E+02 -0.34840578473E+02  0.18849161257E+03  0.17300000000E+03 0. -1.
</event>
<event>
 4    1  0.1082663E+000  0.1000000E+03  0.7546771E-02  0.1280296E+00
          2   -1    0    0  502    0  0.00000000000E+00  0.00000000000E+00  0.23882627087E+03  0.23882627087E+03  0.00000000000E+00 0.  1.
         -2   -1    0    0    0  501 -0.00000000000E+00 -0.00000000000E+00 -0.20817124499E+03  0.20817124499E+03  0.00000000000E+00 0. -1.
          6    1    1    2  502    0  0.79631550608E+02  0.11267436454E+03 -0.12142743158E+02  0.22161485169E+03  0.17300000000E+03 0. -1.
         -6    1    1    2    0  501 -0.79631550608E+02 -0.11267436454E+03  0.42797769029E+02  0.22538266417E+03  0.17300000000E+03 0. -1.
</event>
<event>
 4    1  0.1082663E+000  0.1000000E+03  0.7546771E-02  0.1280296E+00
          2   -1    0    0  502    0  0.00000000000E+00  0.00000000000E+00  0.93612465337E+03  0.93612465337E+03  0.00000000000E+00 0.  1.
         -2   -1    0    0    0  501 -0.00000000000E+00 -0.00000000000E+00 -0.80915103942E+02  0.80915103942E+02  0.00000000000E+00 0. -1.
          6    1    1    2  502    0 -0.87429652308E+02 -0.31910772889E+02  0.78375822916E+03  0.80800260105E+03  0.17300000000E+03 0. -1.
         -6    1    1    2    0  501  0.87429652308E+02  0.31910772889E+02  0.71451320267E+02  0.20903715626E+03  0.17300000000E+03 0. -1.
</event>
<event>
 4    1  0.1082663E+000  0.1000000E+03  0.7546771E-02  0.1280296E+00
          2   -1    0    0  502    0  0.00000000000E+00  0.00000000000E+00  0.46549311995E+03  0.46549311995E+03  0.00000000000E+00 0.  1.
         -2   -1    0    0    0  501 -0.00000000000E+00 -0.00000000000E+00 -0.17000366444E+03  0.17000366444E+03  0.00000000000E+00 0. -1.
          6    1    1    2  502    0  0.69556686823E+02  0.20334189492E+03  0.20982239257E+03  0.34661288974E+03  0.17300000000E+03 0. -1.
         -6    1    1    2    0  501 -0.69556686823E+02 -0.20334189492E+03  0.85667062940E+02  0.28888389465E+03  0.17300000000E+03 0. -1.
</event>
<event>
 4    1  0.1082663E+000  0.1000000E+03  0.7546771E-02  0.1280296E+00
          1   -1    0    0  502    0  0.00000000000E+00  0.00000000000E+00  0.35628378267E+03  0.35628378267E+03  0.00000000000E+00 0. -1.
         -1   -1    0    0    0  501 -0.00000000000E+00 -0.00000000000E+00 -0.30213224882E+03  0.30213224882E+03  0.00000000000E+00 0.  1.
          6    1    1    2  502    0 -0.24900769220E+03 -0.12343669604E+03  0.52216505580E+01  0.32741062038E+03  0.17300000000E+03 0. -1.
         -6    1    1    2    0  501  0.24900769220E+03  0.12343669604E+03  0.48929883293E+02  0.33100541111E+03  0.17300000000E+03 0.  1.
</event>
<event>
 4    1  0.1082663E+000  0.1000000E+03  0.7546771E-02  0.1280296E+00
          2   -1    0    0  502    0  0.00000000000E+00  0.00000000000E+00  0.40543718285E+03  0.40543718285E+03  0.00000000000E+00 0. -1.
         -2   -1    0    0    0  501 -0.00000000000E+00 -0.00000000000E+00 -0.77008613980E+02  0.77008613980E+02  0.00000000000E+00 0.  1.
          6    1    1    2  502    0 -0.95201050894E+00 -0.57231659548E+01  0.11576523761E+03  0.20824084900E+03  0.17300000000E+03 0. -1.
         -6    1    1    2    0  501  0.95201050894E+00  0.57231659548E+01  0.21266333126E+03  0.27420494783E+03  0.17300000000E+03 0.  1.
</event>
<event>
 4    1  0.1082663E+000  0.1000000E+03  0.7546771E-02  0.1280296E+00
         -2   -1    0    0    0  501 -0.00000000000E+00  0.00000000000E+00  0.22455808646E+02  0.22455808646E+02  0.00000000000E+00 0. -1.
          2   -1    0    0  502    0  0.00000000000E+00 -0.00000000000E+00 -0.25517183226E+04  0.25517183226E+04  0.00000000000E+00 0.  1.
          6    1    1    2  502    0  0.10423859300E+03  0.11684681748E+02 -0.57669636708E+03  0.61115457608E+03  0.17300000000E+03 0. -1.
         -6    1    1    2    0  501 -0.10423859300E+03 -0.11684681748E+02 -0.19525661468E+04  0.19630195551E+04  0.17300000000E+03 0.  1.
</event>
<event>
 4    1  0.1082663E+000  0.1000000E+03  0.7546771E-02  0.1280296E+00
         -2   -1    0    0    0  501 -0.00000000000E+00  0.00000000000E+00  0.59165736047E+02  0.59165736047E+02  0.00000000000E+00 0. -1.
          2   -1    0    0  502    0  0.00000000000E+00 -0.00000000000E+00 -0.13133095319E+04  0.13133095319E+04  0.00000000000E+00 0.  1.
          6    1    1    2  502    0  0.32278896218E+02 -0.16306279871E+03 -0.97646374527E+03  0.10055057679E+04  0.17300000000E+03 0. -1.
         -6    1    1    2    0  501 -0.32278896218E+02  0.16306279871E+03 -0.27768005056E+03  0.36696950002E+03  0.17300000000E+03 0.  1.
</event>
<event>
 4    1  0.1082663E+000  0.1000000E+03  0.7546771E-02  0.1280296E+00
         -2   -1    0    0    0  501 -0.00000000000E+00  0.00000000000E+00  0.81479033928E+02  0.81479033928E+02  0.00000000000E+00 0. -1.
          2   -1    0    0  502    0  0.00000000000E+00 -0.00000000000E+00 -0.46558352713E+03  0.46558352713E+03  0.00000000000E+00 0.  1.
          6    1    1    2  502    0 -0.49309542586E+02 -0.73849589621E+02 -0.20750703050E+03  0.28438241961E+03  0.17300000000E+03 0. -1.
         -6    1    1    2    0  501  0.49309542586E+02  0.73849589621E+02 -0.17659746270E+03  0.26268014145E+03  0.17300000000E+03 0.  1.
</event>
<event>
 4    1  0.1082663E+000  0.1000000E+03  0.7546771E-02  0.1280296E+00
          2   -1    0    0  502    0  0.00000000000E+00  0.00000000000E+00  0.10168510493E+04  0.10168510493E+04  0.00000000000E+00 0. -1.
         -2   -1    0    0    0  501 -0.00000000000E+00 -0.00000000000E+00 -0.70804172532E+02  0.70804172532E+02  0.00000000000E+00 0.  1.
          6    1    1    2  502    0 -0.20410029745E+03  0.99506400885E+01  0.50884332778E+03  0.57498389446E+03  0.17300000000E+03 0.  1.
         -6    1    1    2    0  501  0.20410029745E+03 -0.99506400885E+01  0.43720354895E+03  0.51267132734E+03  0.17300000000E+03 0. -1.
</event>
<event>
 4    1  0.1082663E+000  0.1000000E+03  0.7546771E-02  0.1280296E+00
          2   -1    0    0  502    0  0.00000000000E+00  0.00000000000E+00  0.10436205010E+04  0.10436205010E+04  0.00000000000E+00 0. -1.
         -2   -1    0    0    0  501 -0.00000000000E+00 -0.00000000000E+00 -0.60928825861E+02  0.60928825861E+02  0.00000000000E+00 0.  1.
          6    1    1    2  502    0 -0.51024660078E+02  0.12216267411E+03  0.76950548883E+03  0.79974679257E+03  0.17300000000E+03 0.  1.
         -6    1    1    2    0  501  0.51024660078E+02 -0.12216267411E+03  0.21318618633E+03  0.30480253432E+03  0.17300000000E+03 0. -1.
</event>
<event>
 4    1  0.1082663E+000  0.1000000E+03  0.7546771E-02  0.1280296E+00
          1   -1    0    0  502    0  0.00000000000E+00  0.00000000000E+00  0.21027054126E+04  0.21027054126E+04  0.00000000000E+00 0. -1.
         -1   -1    0    0    0  501 -0.00000000000E+00 -0.00000000000E+00 -0.45721010292E+02  0.45721010292E+02  0.00000000000E+00 0.  1.
          6    1    1    2  502    0  0.22573473435E+03  0.12294730618E+03  0.10689849561E+04  0.11129825007E+04  0.17300000000E+03 0.  1.
         -6    1    1    2    0  501 -0.22573473435E+03 -0.12294730618E+03  0.98799944617E+03  0.10354439222E+04  0.17300000000E+03 0. -1.
</event>
<event>
 4    1  0.1082663E+000  0.1000000E+03  0.7546771E-02  0.1280296E+00
          1   -1    0    0  502    0  0.00000000000E+00  0.00000000000E+00  0.16829942810E+04  0.16829942810E+04  0.00000000000E+00 0. -1.
         -1   -1    0    0    0  501 -0.00000000000E+00 -0.00000000000E+00 -0.22012237362E+02  0.22012237362E+02  0.00000000000E+00 0.  1.
          6    1    1    2  502    0 -0.78688478259E+01 -0.34949175347E+02  0.11687970924E+04  0.11820740276E+04  0.17300000000E+03 0.  1.
         -6    1    1    2    0  501  0.78688478259E+01  0.34949175347E+02  0.49218495121E+03  0.52293249069E+03  0.17300000000E+03 0. -1.
</event>
<event>
 4    1  0.1082663E+000  0.1000000E+03  0.7546771E-02  0.1280296E+00
          1   -1    0    0  502    0  0.00000000000E+00  0.00000000000E+00  0.71404548529E+03  0.71404548529E+03  0.00000000000E+00 0.  1.
         -1   -1    0    0    0  501 -0.00000000000E+00 -0.00000000000E+00 -0.63666352527E+02  0.63666352527E+02  0.00000000000E+00 0. -1.
          6    1    1    2  502    0  0.87434447017E+02 -0.78799314291E+02  0.25049148455E+03  0.32638795672E+03  0.17300000000E+03 0. -1.
         -6    1    1    2    0  501 -0.87434447017E+02  0.78799314291E+02  0.39988764821E+03  0.45132388110E+03  0.17300000000E+03 0.  1.
</event>
<event>
 4    1  0.1082663E+000  0.1000000E+03  0.7546771E-02  0.1280296E+00
          3   -1    0    0  502    0  0.00000000000E+00  0.00000000000E+00  0.29584935301E+03  0.29584935301E+03  0.00000000000E+00 0.  1.
         -3   -1    0    0    0  501 -0.00000000000E+00 -0.00000000000E+00 -0.10202521787E+03  0.10202521787E+03  0.00000000000E+00 0. -1.
          6    1    1    2  502    0  0.13183495863E+02  0.90097403890E+01  0.97299889451E+02  0.19912621242E+03  0.17300000000E+03 0. -1.
         -6    1    1    2    0  501 -0.13183495863E+02 -0.90097403890E+01  0.96524245691E+02  0.19874835846E+03  0.17300000000E+03 0.  1.
</event>
<event>
 4    1  0.1082663E+000  0.1000000E+03  0.7546771E-02  0.1280296E+00
          1   -1    0    0  502    0  0.00000000000E+00  0.00000000000E+00  0.57703337423E+03  0.57703337423E+03  0.00000000000E+00 0.  1.
         -1   -1    0    0    0  501 -0.00000000000E+00 -0.00000000000E+00 -0.11464488250E+03  0.11464488250E+03  0.00000000000E+00 0. -1.
          6    1    1    2  502    0 -0.24368417864E+02  0.17395247219E+02 -0.21537023856E+02  0.17688769830E+03  0.17300000000E+03 0. -1.
         -6    1    1    2    0  501  0.24368417864E+02 -0.17395247219E+02  0.48392551558E+03  0.51479055843E+03  0.17300000000E+03 0.  1.
</event>
<event>
 4    1  0.1082663E+000  0.1000000E+03  0.7546771E-02  0.1280296E+00
          2   -1    0    0  502    0  0.00000000000E+00  0.00000000000E+00  0.12539033351E+04  0.12539033351E+04  0.00000000000E+00 0. -1.
         -2   -1    0    0    0  501 -0.00000000000E+00 -0.00000000000E+00 -0.36724677067E+03  0.36724677067E+03  0.00000000000E+00 0.  1.
          6    1    1    2  502    0  0.12726561466E+03 -0.21065888892E+03 -0.28324054779E+03  0.41319234271E+03  0.17300000000E+03 0. -1.
         -6    1    1    2    0  501 -0.12726561466E+03  0.21065888892E+03  0.11698971122E+04  0.12079577630E+04  0.17300000000E+03 0.  1.
</event>
<event>
 4    1  0.1082663E+000  0.1000000E+03  0.7546771E-02  0.1280296E+00
          2   -1    0    0  502    0  0.00000000000E+00  0.00000000000E+00  0.32758180425E+04  0.32758180425E+04  0.00000000000E+00 0. -1.
         -2   -1    0    0    0  501 -0.00000000000E+00 -0.00000000000E+00 -0.66368785170E+02  0.66368785170E+02  0.00000000000E+00 0.  1.
          6    1    1    2  502    0 -0.41338555869E+03 -0.40000921499E+02  0.11658530043E+04  0.12496519201E+04  0.17300000000E+03 0. -1.
         -6    1    1    2    0  501  0.41338555869E+03  0.40000921499E+02  0.20435962530E+04  0.20925349075E+04  0.17300000000E+03 0.  1.
</event>
<event>
 4    1  0.1082663E+000  0.1000000E+03  0.7546771E-02  0.1280296E+00
          3   -1    0    0  502    0  0.00000000000E+00  0.00000000000E+00  0.10507846351E+04  0.10507846351E+04  0.00000000000E+00 0. -1.
         -3   -1    0    0    0  501 -0.00000000000E+00 -0.00000000000E+00 -0.79825497602E+02  0.79825497602E+02  0.00000000000E+00 0.  1.
          6    1    1    2  502    0  0.29854725305E+02 -0.13061462628E+03  0.11514014508E+03  0.24726046637E+03  0.17300000000E+03 0. -1.
         -6    1    1    2    0  501 -0.29854725305E+02  0.13061462628E+03  0.85581899243E+03  0.88334966634E+03  0.17300000000E+03 0.  1.
</event>
<event>
 4    1  0.1082663E+000  0.1000000E+03  0.7546771E-02  0.1280296E+00
         -3   -1    0    0    0  501 -0.00000000000E+00  0.00000000000E+00  0.10207457231E+03  0.10207457231E+03  0.00000000000E+00 0.  1.
          3   -1    0    0  502    0  0.00000000000E+00 -0.00000000000E+00 -0.43190842437E+03  0.43190842437E+03  0.00000000000E+00 0. -1.
          6    1    1    2  502    0 -0.48492855153E+02  0.10384236130E+03 -0.12424483685E+03  0.24186891591E+03  0.17300000000E+03 0. -1.
         -6    1    1    2    0  501  0.48492855153E+02 -0.10384236130E+03 -0.20558901522E+03  0.29211408076E+03  0.17300000000E+03 0.  1.
</event>
<event>
 4    1  0.1082663E+000  0.1000000E+03  0.7546771E-02  0.1280296E+00
         -2   -1    0    0    0  501 -0.00000000000E+00  0.00000000000E+00  0.70833873768E+02  0.70833873768E+02  0.00000000000E+00 0.  1.
          2   -1    0    0  502    0  0.00000000000E+00 -0.00000000000E+00 -0.11802675794E+04  0.11802675794E+04  0.00000000000E+00 0. -1.
          6    1    1    2  502    0 -0.15151975123E+02  0.11294699475E+03 -0.11832027814E+03  0.23856926498E+03  0.17300000000E+03 0. -1.
         -6    1    1    2    0  501  0.15151975123E+02 -0.11294699475E+03 -0.99111342751E+03  0.10125321882E+04  0.17300000000E+03 0.  1.
</event>
<event>
 4    1  0.1082663E+000  0.1000000E+03  0.7546771E-02  0.1280296E+00
         -1   -1    0    0    0  501 -0.00000000000E+00  0.00000000000E+00  0.42994083123E+02  0.42994083123E+02  0.00000000000E+00 0.  1.
          1   -1    0    0  502    0  0.00000000000E+00 -0.00000000000E+00 -0.12275418662E+04  0.12275418662E+04  0.00000000000E+00 0. -1.
          6    1    1    2  502    0 -0.85204678784E+02  0.47608685880E+02 -0.91143712963E+03  0.93283067356E+03  0.17300000000E+03 0. -1.
         -6    1    1    2    0  501  0.85204678784E+02 -0.47608685880E+02 -0.27311065348E+03  0.33770527579E+03  0.17300000000E+03 0.  1.
</event>
<event>
 4    1  0.1082663E+000  0.1000000E+03  0.7546771E-02  0.1280296E+00
         -2   -1    0    0    0  501 -0.00000000000E+00  0.00000000000E+00  0.38959125801E+02  0.38959125801E+02  0.00000000000E+00 0.  1.
          2   -1    0    0  502    0  0.00000000000E+00 -0.00000000000E+00 -0.13773684684E+04  0.13773684684E+04  0.00000000000E+00 0. -1.
          6    1    1    2  502    0  0.64063015353E+02 -0.64883683304E+02 -0.10487989069E+04  0.10668749267E+04  0.17300000000E+03 0. -1.
         -6    1    1    2    0  501 -0.64063015353E+02  0.64883683304E+02 -0.28961043570E+03  0.34945266742E+03  0.17300000000E+03 0.  1.
</event>
<event>
 4    1  0.1082663E+000  0.1000000E+03  0.7546771E-02  0.1280296E+00
         -2   -1    0    0    0  501 -0.00000000000E+00  0.00000000000E+00  0.35572533225E+02  0.35572533225E+02  0.00000000000E+00 0. -1.
          2   -1    0    0  502    0  0.00000000000E+00 -0.00000000000E+00 -0.12350562096E+04  0.12350562096E+04  0.00000000000E+00 0.  1.
          6    1    1    2  502    0 -0.88029225587E+02  0.40954040939E+02 -0.80483870072E+03  0.82892744689E+03  0.17300000000E+03 0.  1.
         -6    1    1    2    0  501  0.88029225587E+02 -0.40954040939E+02 -0.39464497569E+03  0.44170129597E+03  0.17300000000E+03 0. -1.
</event>
<event>
 4    1  0.1082663E+000  0.1000000E+03  0.7546771E-02  0.1280296E+00
          2   -1    0    0  502    0  0.00000000000E+00  0.00000000000E+00  0.64884263027E+03  0.64884263027E+03  0.00000000000E+00 0. -1.
         -2   -1    0    0    0  501 -0.00000000000E+00 -0.00000000000E+00 -0.60513798302E+02  0.60513798302E+02  0.00000000000E+00 0.  1.
          6    1    1    2  502    0 -0.85204805493E+02 -0.41178725793E+02  0.25930034406E+03  0.32576251283E+03  0.17300000000E+03 0.  1.
         -6    1    1    2    0  501  0.85204805493E+02  0.41178725793E+02  0.32902848790E+03  0.38359391573E+03  0.17300000000E+03 0. -1.
</event>
<event>
 4    1  0.1082663E+000  0.1000000E+03  0.7546771E-02  0.1280296E+00
         -2   -1    0    0    0  501 -0.00000000000E+00  0.00000000000E+00  0.99531943980E+03  0.99531943980E+03  0.00000000000E+00 0.  1.
          2   -1    0    0  502    0  0.00000000000E+00 -0.00000000000E+00 -0.39653105782E+02  0.39653105782E+02  0.00000000000E+00 0. -1.
          6    1    1    2  502    0  0.23960586900E+02 -0.87884747764E+02  0.38608300280E+03  0.43276659259E+03  0.17300000000E+03 0. -1.
         -6    1    1    2    0  501 -0.23960586900E+02  0.87884747764E+02  0.56958333123E+03  0.60220595300E+03  0.17300000000E+03 0.  1.
</event>
<event>
 4    1  0.1082663E+000  0.1000000E+03  0.7546771E-02  0.1280296E+00
         -2   -1    0    0    0  501 -0.00000000000E+00  0.00000000000E+00  0.81838062792E+02  0.81838062792E+02  0.00000000000E+00 0. -1.
          2   -1    0    0  502    0  0.00000000000E+00 -0.00000000000E+00 -0.57600591907E+03  0.57600591907E+03  0.00000000000E+00 0.  1.
          6    1    1    2  502    0  0.96721827743E+02  0.41039230029E+02 -0.12807617536E+03  0.23952418888E+03  0.17300000000E+03 0.  1.
         -6    1    1    2    0  501 -0.96721827743E+02 -0.41039230029E+02 -0.36609168092E+03  0.41831979298E+03  0.17300000000E+03 0.  1.
</event>
<event>
 4    1  0.1082663E+000  0.1000000E+03  0.7546771E-02  0.1280296E+00
         -1   -1    0    0    0  501 -0.00000000000E+00  0.00000000000E+00  0.13187873140E+03  0.13187873140E+03  0.00000000000E+00 0. -1.
          1   -1    0    0  502    0  0.00000000000E+00 -0.00000000000E+00 -0.44099895306E+03  0.44099895306E+03  0.00000000000E+00 0.  1.
          6    1    1    2  502    0 -0.47697747784E+02  0.13535514561E+03 -0.50787752898E+02  0.23044410696E+03  0.17300000000E+03 0.  1.
         -6    1    1    2    0  501  0.47697747784E+02 -0.13535514561E+03 -0.25833246876E+03  0.34243357751E+03  0.17300000000E+03 0.  1.
</event>
<event>
 4    1  0.1082663E+000  0.1000000E+03  0.7546771E-02  0.1280296E+00
          2   -1    0    0  502    0  0.00000000000E+00  0.00000000000E+00  0.11924703915E+03  0.11924703915E+03  0.00000000000E+00 0. -1.
         -2   -1    0    0    0  501 -0.00000000000E+00 -0.00000000000E+00 -0.35841460924E+03  0.35841460924E+03  0.00000000000E+00 0.  1.
          6    1    1    2  502    0 -0.39127172127E+02  0.43728575201E+02 -0.77709825490E+01  0.18284559622E+03  0.17300000000E+03 0.  1.
         -6    1    1    2    0  501  0.39127172127E+02 -0.43728575201E+02 -0.23139658754E+03  0.29481605217E+03  0.17300000000E+03 0. -1.
</event>
<event>
 4    1  0.1082663E+000  0.1000000E+03  0.7546771E-02  0.1280296E+00
          1   -1    0    0  502    0  0.00000000000E+00  0.00000000000E+00  0.11801132507E+04  0.11801132507E+04  0.00000000000E+00 0.  1.
         -1   -1    0    0    0  501 -0.00000000000E+00 -0.00000000000E+00 -0.62130768027E+02  0.62130768027E+02  0.00000000000E+00 0. -1.
          6    1    1    2  502    0 -0.19092591634E+03  0.74151010398E+02  0.64607428435E+03  0.69949414492E+03  0.17300000000E+03 0. -1.
         -6    1    1    2    0  501  0.19092591634E+03 -0.74151010398E+02  0.47190819830E+03  0.54274987379E+03  0.17300000000E+03 0.  1.
</event>
<event>
 4    1  0.1082663E+000  0.1000000E+03  0.7546771E-02  0.1280296E+00
          2   -1    0    0  502    0  0.00000000000E+00  0.00000000000E+00  0.56595106207E+03  0.56595106207E+03  0.00000000000E+00 0.  1.
         -2   -1    0    0    0  501 -0.00000000000E+00 -0.00000000000E+00 -0.13764741775E+03  0.13764741775E+03  0.00000000000E+00 0. -1.
          6    1    1    2  502    0 -0.34177108876E+02  0.77581038704E+02  0.46870350261E+03  0.50675325918E+03  0.17300000000E+03 0.  1.
         -6    1    1    2    0  501  0.34177108876E+02 -0.77581038704E+02 -0.40399858291E+02  0.19684522064E+03  0.17300000000E+03 0.  1.
</event>
<event>
 4    1  0.1082663E+000  0.1000000E+03  0.7546771E-02  0.1280296E+00
          1   -1    0    0  502    0  0.00000000000E+00  0.00000000000E+00  0.58596480383E+03  0.58596480383E+03  0.00000000000E+00 0.  1.
         -1   -1    0    0    0  501 -0.00000000000E+00 -0.00000000000E+00 -0.10274735545E+03  0.10274735545E+03  0.00000000000E+00 0. -1.
          6    1    1    2  502    0 -0.92542765817E+02 -0.47045530576E+01  0.34915220400E+02  0.19933481618E+03  0.17300000000E+03 0. -1.
         -6    1    1    2    0  501  0.92542765817E+02  0.47045530576E+01  0.44830222798E+03  0.48937734310E+03  0.17300000000E+03 0.  1.
</event>
<event>
 4    1  0.1082663E+000  0.1000000E+03  0.7546771E-02  0.1280296E+00
          2   -1    0    0  502    0  0.00000000000E+00  0.00000000000E+00  0.85265846648E+03  0.85265846648E+03  0.00000000000E+00 0.  1.
         -2   -1    0    0    0  501 -0.00000000000E+00 -0.00000000000E+00 -0.38829363196E+02  0.38829363196E+02  0.00000000000E+00 0. -1.
          6    1    1    2  502    0 -0.36659086985E+02 -0.42827521845E+02  0.40434526668E+03  0.44339844381E+03  0.17300000000E+03 0. -1.
         -6    1    1    2    0  501  0.36659086985E+02  0.42827521845E+02  0.40948383660E+03  0.44808938586E+03  0.17300000000E+03 0.  1.
</event>
<event>
 4    1  0.1082663E+000  0.1000000E+03  0.7546771E-02  0.1280296E+00
         -2   -1    0    0    0  501 -0.00000000000E+00  0.00000000000E+00  0.87647286053E+02  0.87647286053E+02  0.00000000000E+00 0. -1.
          2   -1    0    0  502    0  0.00000000000E+00 -0.00000000000E+00 -0.52488534368E+03  0.52488534368E+03  0.00000000000E+00 0.  1.
          6    1    1    2  502    0  0.10188613262E+03 -0.58269508300E+02 -0.28709358633E+03  0.35514482529E+03  0.17300000000E+03 0.  1.
         -6    1    1    2    0  501 -0.10188613262E+03  0.58269508300E+02 -0.15014447130E+03  0.25738780445E+03  0.17300000000E+03 0. -1.
</event>
<event>
 4    1  0.1082663E+000  0.1000000E+03  0.7546771E-02  0.1280296E+00
          2   -1    0    0  502    0  0.00000000000E+00  0.00000000000E+00  0.50208021052E+03  0.50208021052E+03  0.00000000000E+00 0. -1.
         -2   -1    0    0    0  501 -0.00000000000E+00 -0.00000000000E+00 -0.16529582182E+03  0.16529582182E+03  0.00000000000E+00 0.  1.
          6    1    1    2  502    0  0.92965377928E+02 -0.72398878852E+01  0.41237374473E+03  0.45681077353E+03  0.17300000000E+03 0. -1.
         -6    1    1    2    0  501 -0.92965377928E+02  0.72398878852E+01 -0.75589356029E+02  0.21056525880E+03  0.17300000000E+03 0.  1.
</event>
<event>
 4    1  0.1082663E+000  0.1000000E+03  0.7546771E-02  0.1280296E+00
          2   -1    0    0  502    0  0.00000000000E+00  0.00000000000E+00  0.55461532208E+03  0.55461532208E+03  0.00000000000E+00 0. -1.
         -2   -1    0    0    0  501 -0.00000000000E+00 -0.00000000000E+00 -0.17314590757E+03  0.17314590757E+03  0.00000000000E+00 0.  1.
          6    1    1    2  502    0  0.13925057374E+03 -0.21570259180E+03  0.17489147654E+03  0.35557609447E+03  0.17300000000E+03 0. -1.
         -6    1    1    2    0  501 -0.13925057374E+03  0.21570259180E+03  0.20657793797E+03  0.37218513518E+03  0.17300000000E+03 0.  1.
</event>
<event>
 4    1  0.1082663E+000  0.1000000E+03  0.7546771E-02  0.1280296E+00
          2   -1    0    0  502    0  0.00000000000E+00  0.00000000000E+00  0.11006983213E+04  0.11006983213E+04  0.00000000000E+00 0. -1.
         -2   -1    0    0    0  501 -0.00000000000E+00 -0.00000000000E+00 -0.60008881502E+02  0.60008881502E+02  0.00000000000E+00 0.  1.
          6    1    1    2  502    0 -0.93629463145E+01  0.18609832073E+03  0.60490971907E+03  0.65617453316E+03  0.17300000000E+03 0. -1.
         -6    1    1    2    0  501  0.93629463145E+01 -0.18609832073E+03  0.43577972074E+03  0.50453266965E+03  0.17300000000E+03 0.  1.
</event>
<event>
 4    1  0.1082663E+000  0.1000000E+03  0.7546771E-02  0.1280296E+00
          1   -1    0    0  502    0  0.00000000000E+00  0.00000000000E+00  0.34875531958E+03  0.34875531958E+03  0.00000000000E+00 0. -1.
         -1   -1    0    0    0  501 -0.00000000000E+00 -0.00000000000E+00 -0.23747139552E+03  0.23747139552E+03  0.00000000000E+00 0.  1.
          6    1    1    2  502    0 -0.93456114606E+02 -0.17159742395E+03 -0.67891916453E+02  0.26966281461E+03  0.17300000000E+03 0. -1.
         -6    1    1    2    0  501  0.93456114606E+02  0.17159742395E+03  0.17917584051E+03  0.31656390048E+03  0.17300000000E+03 0.  1.
</event>
<event>
 4    1  0.1082663E+000  0.1000000E+03  0.7546771E-02  0.1280296E+00
         -2   -1    0    0    0  501 -0.00000000000E+00  0.00000000000E+00  0.51322679409E+02  0.51322679409E+02  0.00000000000E+00 0. -1.
          2   -1    0    0  502    0  0.00000000000E+00 -0.00000000000E+00 -0.89787701454E+03  0.89787701454E+03  0.00000000000E+00 0.  1.
          6    1    1    2  502    0  0.10787299599E+03  0.63111611433E+02 -0.37224491465E+03  0.42908616296E+03  0.17300000000E+03 0. -1.
         -6    1    1    2    0  501 -0.10787299599E+03 -0.63111611433E+02 -0.47430942048E+03  0.52011353099E+03  0.17300000000E+03 0. -1.
</event>
<event>
 4    1  0.1082663E+000  0.1000000E+03  0.7546771E-02  0.1280296E+00
         -3   -1    0    0    0  501 -0.00000000000E+00  0.00000000000E+00  0.43457965925E+02  0.43457965925E+02  0.00000000000E+00 0. -1.
          3   -1    0    0  502    0  0.00000000000E+00 -0.00000000000E+00 -0.10565543230E+04  0.10565543230E+04  0.00000000000E+00 0.  1.
          6    1    1    2  502    0  0.49114374390E+01 -0.73283506049E+02 -0.77071490457E+03  0.79330010627E+03  0.17300000000E+03 0. -1.
         -6    1    1    2    0  501 -0.49114374390E+01  0.73283506049E+02 -0.24238145254E+03  0.30671218269E+03  0.17300000000E+03 0. -1.
</event>
<event>
 4    1  0.1082663E+000  0.1000000E+03  0.7546771E-02  0.1280296E+00
          2   -1    0    0  502    0  0.00000000000E+00  0.00000000000E+00  0.62803211671E+02  0.62803211671E+02  0.00000000000E+00 0.  1.
         -2   -1    0    0    0  501 -0.00000000000E+00 -0.00000000000E+00 -0.49657152507E+03  0.49657152507E+03  0.00000000000E+00 0. -1.
          6    1    1    2  502    0 -0.23083015051E+02  0.26456909677E+02 -0.20904604358E+03  0.27360928711E+03  0.17300000000E+03 0. -1.
         -6    1    1    2    0  501  0.23083015051E+02 -0.26456909677E+02 -0.22472226981E+03  0.28576544963E+03  0.17300000000E+03 0.  1.
</event>
<event>
 4    1  0.1082663E+000  0.1000000E+03  0.7546771E-02  0.1280296E+00
          2   -1    0    0  502    0  0.00000000000E+00  0.00000000000E+00  0.20156362232E+03  0.20156362232E+03  0.00000000000E+00 0.  1.
         -2   -1    0    0    0  501 -0.00000000000E+00 -0.00000000000E+00 -0.19248199497E+03  0.19248199497E+03  0.00000000000E+00 0. -1.
          6    1    1    2  502    0  0.74354137696E+02  0.12636074010E+01  0.62333613883E+02  0.19835476782E+03  0.17300000000E+03 0. -1.
         -6    1    1    2    0  501 -0.74354137696E+02 -0.12636074010E+01 -0.53251986529E+02  0.19569084947E+03  0.17300000000E+03 0.  1.
</event>
<event>
 4    1  0.1082663E+000  0.1000000E+03  0.7546771E-02  0.1280296E+00
          2   -1    0    0  502    0  0.00000000000E+00  0.00000000000E+00  0.27647885202E+03  0.27647885202E+03  0.00000000000E+00 0.  1.
         -2   -1    0    0    0  501 -0.00000000000E+00 -0.00000000000E+00 -0.13012841131E+03  0.13012841131E+03  0.00000000000E+00 0. -1.
          6    1    1    2  502    0 -0.26620478729E+02  0.52130202052E+02  0.12806476963E+03  0.22306006607E+03  0.17300000000E+03 0. -1.
         -6    1    1    2    0  501  0.26620478729E+02 -0.52130202052E+02  0.18285671080E+02  0.18354719726E+03  0.17300000000E+03 0.  1.
</event>
<event>
 4    1  0.1082663E+000  0.1000000E+03  0.7546771E-02  0.1280296E+00
         -2   -1    0    0    0  501 -0.00000000000E+00  0.00000000000E+00  0.97472451833E+02  0.97472451833E+02  0.00000000000E+00 0.  1.
          2   -1    0    0  502    0  0.00000000000E+00 -0.00000000000E+00 -0.52790719448E+03  0.52790719448E+03  0.00000000000E+00 0. -1.
          6    1    1    2  502    0  0.13026625680E+03 -0.42362689449E+02 -0.28768178859E+03  0.36256545147E+03  0.17300000000E+03 0.  1.
         -6    1    1    2    0  501 -0.13026625680E+03  0.42362689449E+02 -0.14275295406E+03  0.26281419484E+03  0.17300000000E+03 0. -1.
</event>
<event>
 4    1  0.1082663E+000  0.1000000E+03  0.7546771E-02  0.1280296E+00
         -1   -1    0    0    0  501 -0.00000000000E+00  0.00000000000E+00  0.19989885796E+03  0.19989885796E+03  0.00000000000E+00 0.  1.
          1   -1    0    0  502    0  0.00000000000E+00 -0.00000000000E+00 -0.19213402427E+03  0.19213402427E+03  0.00000000000E+00 0. -1.
          6    1    1    2  502    0  0.16126334149E+02  0.87937855553E+02  0.25915060148E+02  0.19645283260E+03  0.17300000000E+03 0.  1.
         -6    1    1    2    0  501 -0.16126334149E+02 -0.87937855553E+02 -0.18150226458E+02  0.19558004963E+03  0.17300000000E+03 0. -1.
</event>
<event>
 4    1  0.1082663E+000  0.1000000E+03  0.7546771E-02  0.1280296E+00
          1   -1    0    0  502    0  0.00000000000E+00  0.00000000000E+00  0.97481988624E+03  0.97481988624E+03  0.00000000000E+00 0.  1.
         -1   -1    0    0    0  501 -0.00000000000E+00 -0.00000000000E+00 -0.15000290313E+03  0.15000290313E+03  0.00000000000E+00 0. -1.
          6    1    1    2  502    0  0.67380482877E+02  0.20165589845E+03  0.80455755170E+03  0.84996887287E+03  0.17300000000E+03 0.  1.
         -6    1    1    2    0  501 -0.67380482877E+02 -0.20165589845E+03  0.20259431411E+02  0.27485391649E+03  0.17300000000E+03 0. -1.
</event>
<event>
 4    1  0.1082663E+000  0.1000000E+03  0.7546771E-02  0.1280296E+00
          2   -1    0    0  502    0  0.00000000000E+00  0.00000000000E+00  0.36302481864E+04  0.36302481864E+04  0.00000000000E+00 0.  1.
         -2   -1    0    0    0  501 -0.00000000000E+00 -0.00000000000E+00 -0.20192899414E+02  0.20192899414E+02  0.00000000000E+00 0. -1.
          6    1    1    2  502    0  0.11781472063E+03 -0.15703754850E+03  0.13362658411E+04  0.13616447768E+04  0.17300000000E+03 0.  1.
         -6    1    1    2    0  501 -0.11781472063E+03  0.15703754850E+03  0.22737894459E+04  0.22887963091E+04  0.17300000000E+03 0. -1.
</event>
<event>
 4    1  0.1082663E+000  0.1000000E+03  0.7546771E-02  0.1280296E+00
          2   -1    0    0  502    0  0.00000000000E+00  0.00000000000E+00  0.56611461099E+03  0.56611461099E+03  0.00000000000E+00 0.  1.
         -2   -1    0    0    0  501 -0.00000000000E+00 -0.00000000000E+00 -0.12012272602E+03  0.12012272602E+03  0.00000000000E+00 0. -1.
          6    1    1    2  502    0  0.65453182162E+02 -0.16104463277E+03  0.33960852533E+03  0.41890624640E+03  0.17300000000E+03 0.  1.
         -6    1    1    2    0  501 -0.65453182162E+02  0.16104463277E+03  0.10638335964E+03  0.26733109061E+03  0.17300000000E+03 0. -1.
</event>
<event>
 4    1  0.1082663E+000  0.1000000E+03  0.7546771E-02  0.1280296E+00
         -3   -1    0    0    0  501 -0.00000000000E+00  0.00000000000E+00  0.92062777372E+03  0.92062777372E+03  0.00000000000E+00 0.  1.
          3   -1    0    0  502    0  0.00000000000E+00 -0.00000000000E+00 -0.75288357400E+02  0.75288357400E+02  0.00000000000E+00 0. -1.
          6    1    1    2  502    0  0.34199422759E+01  0.18739009848E+03  0.29926581898E+03  0.39321212523E+03  0.17300000000E+03 0.  1.
         -6    1    1    2    0  501 -0.34199422759E+01 -0.18739009848E+03  0.54607359733E+03  0.60270400589E+03  0.17300000000E+03 0. -1.
</event>
<event>
 4    1  0.1082663E+000  0.1000000E+03  0.7546771E-02  0.1280296E+00
         -2   -1    0    0    0  501 -0.00000000000E+00  0.00000000000E+00  0.46977394396E+03  0.46977394396E+03  0.00000000000E+00 0.  1.
          2   -1    0    0  502    0  0.00000000000E+00 -0.00000000000E+00 -0.97727725416E+02  0.97727725416E+02  0.00000000000E+00 0. -1.
          6    1    1    2  502    0  0.72606629729E+02  0.94989500884E+02  0.24040317831E+03  0.31940165325E+03  0.17300000000E+03 0. -1.
         -6    1    1    2    0  501 -0.72606629729E+02 -0.94989500884E+02  0.13164304023E+03  0.24810001612E+03  0.17300000000E+03 0.  1.
</event>
<event>
 4    1  0.1082663E+000  0.1000000E+03  0.7546771E-02  0.1280296E+00
         -2   -1    0    0    0  501 -0.00000000000E+00  0.00000000000E+00  0.59796128997E+02  0.59796128997E+02  0.00000000000E+00 0.  1.
          2   -1    0    0  502    0  0.00000000000E+00 -0.00000000000E+00 -0.91702855046E+03  0.91702855046E+03  0.00000000000E+00 0. -1.
          6    1    1    2  502    0  0.13171576764E+03  0.32790849546E+01 -0.60979859115E+03  0.64741263319E+03  0.17300000000E+03 0. -1.
         -6    1    1    2    0  501 -0.13171576764E+03 -0.32790849546E+01 -0.24743383031E+03  0.32941204627E+03  0.17300000000E+03 0.  1.
</event>
<event>
 4    1  0.1082663E+000  0.1000000E+03  0.7546771E-02  0.1280296E+00
         -1   -1    0    0    0  501 -0.00000000000E+00  0.00000000000E+00  0.99641087339E+02  0.99641087339E+02  0.00000000000E+00 0. -1.
          1   -1    0    0  502    0  0.00000000000E+00 -0.00000000000E+00 -0.52376629610E+03  0.52376629610E+03  0.00000000000E+00 0.  1.
          6    1    1    2  502    0 -0.14577110613E+03  0.26278578521E+02 -0.18765996797E+03  0.29510174965E+03  0.17300000000E+03 0. -1.
         -6    1    1    2    0  501  0.14577110613E+03 -0.26278578521E+02 -0.23646524079E+03  0.32830563379E+03  0.17300000000E+03 0.  1.
</event>
<event>
 4    1  0.1082663E+000  0.1000000E+03  0.7546771E-02  0.1280296E+00
         -4   -1    0    0    0  501 -0.00000000000E+00  0.00000000000E+00  0.21203669430E+03  0.21203669430E+03  0.00000000000E+00 0. -1.
          4   -1    0    0  502    0  0.00000000000E+00 -0.00000000000E+00 -0.33984515500E+03  0.33984515500E+03  0.00000000000E+00 0.  1.
          6    1    1    2  502    0  0.18248821129E+02 -0.19470685361E+03 -0.12799120724E+03  0.29078261201E+03  0.17300000000E+03 0. -1.
         -6    1    1    2    0  501 -0.18248821129E+02  0.19470685361E+03  0.18274654315E+00  0.26109923729E+03  0.17300000000E+03 0.  1.
</event>
<event>
 4    1  0.1082663E+000  0.1000000E+03  0.7546771E-02  0.1280296E+00
         -2   -1    0    0    0  501 -0.00000000000E+00  0.00000000000E+00  0.19619976999E+03  0.19619976999E+03  0.00000000000E+00 0.  1.
          2   -1    0    0  502    0  0.00000000000E+00 -0.00000000000E+00 -0.18094544094E+03  0.18094544094E+03  0.00000000000E+00 0. -1.
          6    1    1    2  502    0  0.57243589433E+02  0.44481379825E+02 -0.10192816065E+02  0.18785184370E+03  0.17300000000E+03 0. -1.
         -6    1    1    2    0  501 -0.57243589433E+02 -0.44481379825E+02  0.25447145108E+02  0.18929336723E+03  0.17300000000E+03 0.  1.
</event>
<event>
 4    1  0.1082663E+000  0.1000000E+03  0.7546771E-02  0.1280296E+00
         -2   -1    0    0    0  501 -0.00000000000E+00  0.00000000000E+00  0.13585343470E+03  0.13585343470E+03  0.00000000000E+00 0.  1.
          2   -1    0    0  502    0  0.00000000000E+00 -0.00000000000E+00 -0.48167326689E+03  0.48167326689E+03  0.00000000000E+00 0. -1.
          6    1    1    2  502    0 -0.19841848821E+01  0.32617716102E+02  0.51089280513E+02  0.18332203080E+03  0.17300000000E+03 0. -1.
         -6    1    1    2    0  501  0.19841848821E+01 -0.32617716102E+02 -0.39690911270E+03  0.43420467079E+03  0.17300000000E+03 0.  1.
</event>
<event>
 4    1  0.1082663E+000  0.1000000E+03  0.7546771E-02  0.1280296E+00
          1   -1    0    0  502    0  0.00000000000E+00  0.00000000000E+00  0.11016022035E+04  0.11016022035E+04  0.00000000000E+00 0.  1.
         -1   -1    0    0    0  501 -0.00000000000E+00 -0.00000000000E+00 -0.31432642434E+02  0.31432642434E+02  0.00000000000E+00 0. -1.
          6    1    1    2  502    0  0.21420734777E+02  0.24548701605E+02  0.71865799681E+03  0.73990526624E+03  0.17300000000E+03 0.  1.
         -6    1    1    2    0  501 -0.21420734777E+02 -0.24548701605E+02  0.35151156430E+03  0.39312957974E+03  0.17300000000E+03 0. -1.
</event>
<event>
 4    1  0.1082663E+000  0.1000000E+03  0.7546771E-02  0.1280296E+00
          1   -1    0    0  502    0  0.00000000000E+00  0.00000000000E+00  0.22239819407E+02  0.22239819407E+02  0.00000000000E+00 0.  1.
         -1   -1    0    0    0  501 -0.00000000000E+00 -0.00000000000E+00 -0.15670799940E+04  0.15670799940E+04  0.00000000000E+00 0. -1.
          6    1    1    2  502    0 -0.10667664653E+02 -0.25943791848E+02 -0.10461639739E+04  0.10607426360E+04  0.17300000000E+03 0.  1.
         -6    1    1    2    0  501  0.10667664653E+02  0.25943791848E+02 -0.49867620065E+03  0.52857717743E+03  0.17300000000E+03 0. -1.
</event>
<event>
 4    1  0.1082663E+000  0.1000000E+03  0.7546771E-02  0.1280296E+00
         -2   -1    0    0    0  501 -0.00000000000E+00  0.00000000000E+00  0.42342363100E+02  0.42342363100E+02  0.00000000000E+00 0. -1.
          2   -1    0    0  502    0  0.00000000000E+00 -0.00000000000E+00 -0.11973949367E+04  0.11973949367E+04  0.00000000000E+00 0.  1.
          6    1    1    2  502    0 -0.35952711727E+02  0.47739926203E+02 -0.21648610885E+03  0.28349062305E+03  0.17300000000E+03 0. -1.
         -6    1    1    2    0  501  0.35952711727E+02 -0.47739926203E+02 -0.93856646472E+03  0.95624667671E+03  0.17300000000E+03 0. -1.
</event>
<event>
 4    1  0.1082663E+000  0.1000000E+03  0.7546771E-02  0.1280296E+00
         -2   -1    0    0    0  501 -0.00000000000E+00  0.00000000000E+00  0.62171771967E+03  0.62171771967E+03  0.00000000000E+00 0. -1.
          2   -1    0    0  502    0  0.00000000000E+00 -0.00000000000E+00 -0.12618910641E+03  0.12618910641E+03  0.00000000000E+00 0.  1.
          6    1    1    2  502    0 -0.71835498224E+02 -0.15898958116E+03  0.68211189780E+02  0.25498978829E+03  0.17300000000E+03 0. -1.
         -6    1    1    2    0  501  0.71835498224E+02  0.15898958116E+03  0.42731742348E+03  0.49291703778E+03  0.17300000000E+03 0. -1.
</event>
<event>
 4    1  0.1082663E+000  0.1000000E+03  0.7546771E-02  0.1280296E+00
         -2   -1    0    0    0  501 -0.00000000000E+00  0.00000000000E+00  0.11118187945E+03  0.11118187945E+03  0.00000000000E+00 0. -1.
          2   -1    0    0  502    0  0.00000000000E+00 -0.00000000000E+00 -0.47150420434E+03  0.47150420434E+03  0.00000000000E+00 0.  1.
          6    1    1    2  502    0 -0.12928135255E+02 -0.11353352147E+03 -0.56550611420E+02  0.21490455749E+03  0.17300000000E+03 0. -1.
         -6    1    1    2    0  501  0.12928135255E+02  0.11353352147E+03 -0.30377171347E+03  0.36778152630E+03  0.17300000000E+03 0. -1.
</event>
<event>
 4    1  0.1082663E+000  0.1000000E+03  0.7546771E-02  0.1280296E+00
          3   -1    0    0  502    0  0.00000000000E+00  0.00000000000E+00  0.67372059338E+03  0.67372059338E+03  0.00000000000E+00 0. -1.
         -3   -1    0    0    0  501 -0.00000000000E+00 -0.00000000000E+00 -0.10552355806E+03  0.10552355806E+03  0.00000000000E+00 0.  1.
          6    1    1    2  502    0 -0.12287124507E+03  0.12365690847E+03  0.43578892978E+03  0.50022931261E+03  0.17300000000E+03 0. -1.
         -6    1    1    2    0  501  0.12287124507E+03 -0.12365690847E+03  0.13240810554E+03  0.27901483883E+03  0.17300000000E+03 0.  1.
</event>
<event>
 4    1  0.1082663E+000  0.1000000E+03  0.7546771E-02  0.1280296E+00
          2   -1    0    0  502    0  0.00000000000E+00  0.00000000000E+00  0.13133937043E+04  0.13133937043E+04  0.00000000000E+00 0. -1.
         -2   -1    0    0    0  501 -0.00000000000E+00 -0.00000000000E+00 -0.86682858753E+02  0.86682858753E+02  0.00000000000E+00 0.  1.
          6    1    1    2  502    0  0.54049084365E+02 -0.15839807338E+03  0.11039203635E+04  0.11298585850E+04  0.17300000000E+03 0. -1.
         -6    1    1    2    0  501 -0.54049084365E+02  0.15839807338E+03  0.12279048203E+03  0.27021797802E+03  0.17300000000E+03 0.  1.
</event>
<event>
 4    1  0.1082663E+000  0.1000000E+03  0.7546771E-02  0.1280296E+00
         -2   -1    0    0    0  501 -0.00000000000E+00  0.00000000000E+00  0.29087090406E+03  0.29087090406E+03  0.00000000000E+00 0.  1.
          2   -1    0    0  502    0  0.00000000000E+00 -0.00000000000E+00 -0.14695781951E+03  0.14695781951E+03  0.00000000000E+00 0. -1.
          6    1    1    2  502    0 -0.10798603434E+03  0.30244314054E+02  0.55517260467E+02  0.21351081554E+03  0.17300000000E+03 0. -1.
         -6    1    1    2    0  501  0.10798603434E+03 -0.30244314054E+02  0.88395824086E+02  0.22431790802E+03  0.17300000000E+03 0. -1.
</event>
<event>
 4    1  0.1082663E+000  0.1000000E+03  0.7546771E-02  0.1280296E+00
         -2   -1    0    0    0  501 -0.00000000000E+00  0.00000000000E+00  0.24923777298E+02  0.24923777298E+02  0.00000000000E+00 0.  1.
          2   -1    0    0  502    0  0.00000000000E+00 -0.00000000000E+00 -0.17923451461E+04  0.17923451461E+04  0.00000000000E+00 0. -1.
          6    1    1    2  502    0  0.33865473527E+02  0.20051778473E+02 -0.13775217256E+04  0.13889003019E+04  0.17300000000E+03 0. -1.
         -6    1    1    2    0  501 -0.33865473527E+02 -0.20051778473E+02 -0.38989964324E+03  0.42836862153E+03  0.17300000000E+03 0. -1.
</event>
<event>
 4    1  0.1082663E+000  0.1000000E+03  0.7546771E-02  0.1280296E+00
         -2   -1    0    0    0  501 -0.00000000000E+00  0.00000000000E+00  0.35238688011E+03  0.35238688011E+03  0.00000000000E+00 0. -1.
          2   -1    0    0  502    0  0.00000000000E+00 -0.00000000000E+00 -0.14663183518E+03  0.14663183518E+03  0.00000000000E+00 0.  1.
          6    1    1    2  502    0 -0.48986055345E+01 -0.13157145068E+03  0.30009179468E+02  0.21946433383E+03  0.17300000000E+03 0.  1.
         -6    1    1    2    0  501  0.48986055345E+01  0.13157145068E+03  0.17574586547E+03  0.27955438147E+03  0.17300000000E+03 0. -1.
</event>
<event>
 4    1  0.1082663E+000  0.1000000E+03  0.7546771E-02  0.1280296E+00
         -2   -1    0    0    0  501 -0.00000000000E+00  0.00000000000E+00  0.31194178537E+02  0.31194178537E+02  0.00000000000E+00 0. -1.
          2   -1    0    0  502    0  0.00000000000E+00 -0.00000000000E+00 -0.15886272128E+04  0.15886272128E+04  0.00000000000E+00 0.  1.
          6    1    1    2  502    0  0.84506253970E+02  0.82270207761E+02 -0.50362191332E+03  0.54541151951E+03  0.17300000000E+03 0. -1.
         -6    1    1    2    0  501 -0.84506253970E+02 -0.82270207761E+02 -0.10538111210E+04  0.10744098719E+04  0.17300000000E+03 0.  1.
</event>
<event>
 4    1  0.1082663E+000  0.1000000E+03  0.7546771E-02  0.1280296E+00
          2   -1    0    0  502    0  0.00000000000E+00  0.00000000000E+00  0.96104841739E+03  0.96104841739E+03  0.00000000000E+00 0. -1.
         -2   -1    0    0    0  501 -0.00000000000E+00 -0.00000000000E+00 -0.38791637925E+02  0.38791637925E+02  0.00000000000E+00 0.  1.
          6    1    1    2  502    0  0.55214143109E+02  0.62037286510E+02  0.40593519717E+03  0.44900958878E+03  0.17300000000E+03 0.  1.
         -6    1    1    2    0  501 -0.55214143109E+02 -0.62037286510E+02  0.51632158229E+03  0.55083046653E+03  0.17300000000E+03 0. -1.
</event>
<event>
 4    1  0.1082663E+000  0.1000000E+03  0.7546771E-02  0.1280296E+00
          2   -1    0    0  502    0  0.00000000000E+00  0.00000000000E+00  0.91775699583E+03  0.91775699583E+03  0.00000000000E+00 0. -1.
         -2   -1    0    0    0  501 -0.00000000000E+00 -0.00000000000E+00 -0.93006013247E+02  0.93006013247E+02  0.00000000000E+00 0.  1.
          6    1    1    2  502    0  0.16975110202E+03 -0.12256328017E+03  0.59860790813E+03  0.65734132835E+03  0.17300000000E+03 0.  1.
         -6    1    1    2    0  501 -0.16975110202E+03  0.12256328017E+03  0.22614307446E+03  0.35342168073E+03  0.17300000000E+03 0. -1.
</event>
<event>
 4    1  0.1082663E+000  0.1000000E+03  0.7546771E-02  0.1280296E+00
          2   -1    0    0  502    0  0.00000000000E+00  0.00000000000E+00  0.18861154719E+03  0.18861154719E+03  0.00000000000E+00 0.  1.
         -2   -1    0    0    0  501 -0.00000000000E+00 -0.00000000000E+00 -0.29537318573E+03  0.29537318573E+03  0.00000000000E+00 0. -1.
          6    1    1    2  502    0 -0.66356467925E+02  0.91264078573E+02  0.63738518656E+02  0.21615714569E+03  0.17300000000E+03 0.  1.
         -6    1    1    2    0  501  0.66356467925E+02 -0.91264078573E+02 -0.17050015720E+03  0.26782758722E+03  0.17300000000E+03 0. -1.
</event>
<event>
 4    1  0.1082663E+000  0.1000000E+03  0.7546771E-02  0.1280296E+00
          1   -1    0    0  502    0  0.00000000000E+00  0.00000000000E+00  0.78104984657E+03  0.78104984657E+03  0.00000000000E+00 0.  1.
         -1   -1    0    0    0  501 -0.00000000000E+00 -0.00000000000E+00 -0.76157520181E+02  0.76157520181E+02  0.00000000000E+00 0. -1.
          6    1    1    2  502    0  0.16471940709E+03  0.65147950115E+01  0.26673297375E+03  0.35812065692E+03  0.17300000000E+03 0. -1.
         -6    1    1    2    0  501 -0.16471940709E+03 -0.65147950115E+01  0.43815935264E+03  0.49908670983E+03  0.17300000000E+03 0.  1.
</event>
<event>
 4    1  0.1082663E+000  0.1000000E+03  0.7546771E-02  0.1280296E+00
          2   -1    0    0  502    0  0.00000000000E+00  0.00000000000E+00  0.16059431157E+04  0.16059431157E+04  0.00000000000E+00 0.  1.
         -2   -1    0    0    0  501 -0.00000000000E+00 -0.00000000000E+00 -0.54606989484E+02  0.54606989484E+02  0.00000000000E+00 0. -1.
          6    1    1    2  502    0  0.37577234619E+02  0.21508530147E+03  0.10573393457E+04  0.10934208830E+04  0.17300000000E+03 0. -1.
         -6    1    1    2    0  501 -0.37577234619E+02 -0.21508530147E+03  0.49399678057E+03  0.56712922221E+03  0.17300000000E+03 0.  1.
</event>
<event>
 4    1  0.1082663E+000  0.1000000E+03  0.7546771E-02  0.1280296E+00
          2   -1    0    0  502    0  0.00000000000E+00  0.00000000000E+00  0.93011476860E+03  0.93011476860E+03  0.00000000000E+00 0. -1.
         -2   -1    0    0    0  501 -0.00000000000E+00 -0.00000000000E+00 -0.32700735089E+02  0.32700735089E+02  0.00000000000E+00 0.  1.
          6    1    1    2  502    0  0.30057159179E+01 -0.83175977857E+01  0.39293541322E+03  0.42942456348E+03  0.17300000000E+03 0.  1.
         -6    1    1    2    0  501 -0.30057159179E+01  0.83175977857E+01  0.50447862029E+03  0.53339094020E+03  0.17300000000E+03 0. -1.
</event>
<event>
 4    1  0.1082663E+000  0.1000000E+03  0.7546771E-02  0.1280296E+00
          2   -1    0    0  502    0  0.00000000000E+00  0.00000000000E+00  0.28174681488E+04  0.28174681488E+04  0.00000000000E+00 0. -1.
         -2   -1    0    0    0  501 -0.00000000000E+00 -0.00000000000E+00 -0.38355381230E+02  0.38355381230E+02  0.00000000000E+00 0.  1.
          6    1    1    2  502    0 -0.70352788429E+02  0.84782845606E+02  0.25054569018E+04  0.25138378891E+04  0.17300000000E+03 0.  1.
         -6    1    1    2    0  501  0.70352788429E+02 -0.84782845606E+02  0.27365586575E+03  0.34198564094E+03  0.17300000000E+03 0. -1.
</event>
<event>
 4    1  0.1082663E+000  0.1000000E+03  0.7546771E-02  0.1280296E+00
          1   -1    0    0  502    0  0.00000000000E+00  0.00000000000E+00  0.20916225809E+04  0.20916225809E+04  0.00000000000E+00 0. -1.
         -1   -1    0    0    0  501 -0.00000000000E+00 -0.00000000000E+00 -0.17945461092E+02  0.17945461092E+02  0.00000000000E+00 0.  1.
          6    1    1    2  502    0  0.22793683856E+02  0.23341485221E+01  0.57870100239E+03  0.60444094041E+03  0.17300000000E+03 0.  1.
         -6    1    1    2    0  501 -0.22793683856E+02 -0.23341485221E+01  0.14949761174E+04  0.15051271015E+04  0.17300000000E+03 0. -1.
</event>
<event>
 4    1  0.1082663E+000  0.1000000E+03  0.7546771E-02  0.1280296E+00
          2   -1    0    0  502    0  0.00000000000E+00  0.00000000000E+00  0.11859135988E+03  0.11859135988E+03  0.00000000000E+00 0. -1.
         -2   -1    0    0    0  501 -0.00000000000E+00 -0.00000000000E+00 -0.32378270348E+03  0.32378270348E+03  0.00000000000E+00 0.  1.
          6    1    1    2  502    0  0.77357588281E+02 -0.45024057905E+02 -0.12673844087E+03  0.23238544414E+03  0.17300000000E+03 0.  1.
         -6    1    1    2    0  501 -0.77357588281E+02  0.45024057905E+02 -0.78452902733E+02  0.20998861922E+03  0.17300000000E+03 0. -1.
</event>
<event>
 4    1  0.1082663E+000  0.1000000E+03  0.7546771E-02  0.1280296E+00
          1   -1    0    0  502    0  0.00000000000E+00  0.00000000000E+00  0.14943857691E+03  0.14943857691E+03  0.00000000000E+00 0. -1.
         -1   -1    0    0    0  501 -0.00000000000E+00 -0.00000000000E+00 -0.38599810763E+03  0.38599810763E+03  0.00000000000E+00 0.  1.
          6    1    1    2  502    0  0.11105540399E+03  0.11996525544E+03 -0.15403757109E+03  0.28351638149E+03  0.17300000000E+03 0.  1.
         -6    1    1    2    0  501 -0.11105540399E+03 -0.11996525544E+03 -0.82521959633E+02  0.25192030305E+03  0.17300000000E+03 0. -1.
</event>
<event>
 4    1  0.1082663E+000  0.1000000E+03  0.7546771E-02  0.1280296E+00
          2   -1    0    0  502    0  0.00000000000E+00  0.00000000000E+00  0.34527059287E+04  0.34527059287E+04  0.00000000000E+00 0. -1.
         -2   -1    0    0    0  501 -0.00000000000E+00 -0.00000000000E+00 -0.87146042153E+01  0.87146042153E+01  0.00000000000E+00 0.  1.
          6    1    1    2  502    0 -0.77345997393E+01  0.58348491515E+01  0.16408792376E+04  0.16500022854E+04  0.17300000000E+03 0.  1.
         -6    1    1    2    0  501  0.77345997393E+01 -0.58348491515E+01  0.18031120869E+04  0.18114182475E+04  0.17300000000E+03 0. -1.
</event>
<event>
 4    1  0.1082663E+000  0.1000000E+03  0.7546771E-02  0.1280296E+00
         -1   -1    0    0    0  501 -0.00000000000E+00  0.00000000000E+00  0.15082994740E+03  0.15082994740E+03  0.00000000000E+00 0. -1.
          1   -1    0    0  502    0  0.00000000000E+00 -0.00000000000E+00 -0.28588114827E+03  0.28588114827E+03  0.00000000000E+00 0.  1.
          6    1    1    2  502    0  0.75730697518E+02  0.31290286001E+02  0.17097398478E+02  0.19218621589E+03  0.17300000000E+03 0.  1.
         -6    1    1    2    0  501 -0.75730697518E+02 -0.31290286001E+02 -0.15214859935E+03  0.24452487977E+03  0.17300000000E+03 0. -1.
</event>
<event>
 4    1  0.1082663E+000  0.1000000E+03  0.7546771E-02  0.1280296E+00
         -2   -1    0    0    0  501 -0.00000000000E+00  0.00000000000E+00  0.13995662179E+03  0.13995662179E+03  0.00000000000E+00 0. -1.
          2   -1    0    0  502    0  0.00000000000E+00 -0.00000000000E+00 -0.35477230146E+03  0.35477230146E+03  0.00000000000E+00 0.  1.
          6    1    1    2  502    0  0.84754548425E+02 -0.91214710798E+02 -0.17952459001E+03  0.27867819320E+03  0.17300000000E+03 0.  1.
         -6    1    1    2    0  501 -0.84754548425E+02  0.91214710798E+02 -0.35291089659E+02  0.21605073005E+03  0.17300000000E+03 0. -1.
</event>
<event>
 4    1  0.1082663E+000  0.1000000E+03  0.7546771E-02  0.1280296E+00
         -1   -1    0    0    0  501 -0.00000000000E+00  0.00000000000E+00  0.16657130393E+02  0.16657130393E+02  0.00000000000E+00 0. -1.
          1   -1    0    0  502    0  0.00000000000E+00 -0.00000000000E+00 -0.39551266888E+04  0.39551266888E+04  0.00000000000E+00 0.  1.
          6    1    1    2  502    0 -0.15775063495E+03  0.36409788927E+02 -0.12056102301E+04  0.12286724390E+04  0.17300000000E+03 0.  1.
         -6    1    1    2    0  501  0.15775063495E+03 -0.36409788927E+02 -0.27328593283E+04  0.27431113801E+04  0.17300000000E+03 0. -1.
</event>
<event>
 4    1  0.1082663E+000  0.1000000E+03  0.7546771E-02  0.1280296E+00
          1   -1    0    0  502    0  0.00000000000E+00  0.00000000000E+00  0.22913288400E+04  0.22913288400E+04  0.00000000000E+00 0. -1.
         -1   -1    0    0    0  501 -0.00000000000E+00 -0.00000000000E+00 -0.24239257130E+02  0.24239257130E+02  0.00000000000E+00 0.  1.
          6    1    1    2  502    0  0.26766182881E+02  0.11699889443E+03  0.61349092838E+03  0.64861798391E+03  0.17300000000E+03 0.  1.
         -6    1    1    2    0  501 -0.26766182881E+02 -0.11699889443E+03  0.16535986545E+04  0.16669501133E+04  0.17300000000E+03 0. -1.
</event>
<event>
 4    1  0.1082663E+000  0.1000000E+03  0.7546771E-02  0.1280296E+00
          2   -1    0    0  502    0  0.00000000000E+00  0.00000000000E+00  0.12425386050E+04  0.12425386050E+04  0.00000000000E+00 0. -1.
         -2   -1    0    0    0  501 -0.00000000000E+00 -0.00000000000E+00 -0.33267770803E+02  0.33267770803E+02  0.00000000000E+00 0.  1.
          6    1    1    2  502    0  0.62586278623E+02  0.86547308711E+02  0.60495855147E+03  0.63820947024E+03  0.17300000000E+03 0.  1.
         -6    1    1    2    0  501 -0.62586278623E+02 -0.86547308711E+02  0.60431228271E+03  0.63759690554E+03  0.17300000000E+03 0. -1.
</event>
<event>
 4    1  0.1082663E+000  0.1000000E+03  0.7546771E-02  0.1280296E+00
          2   -1    0    0  502    0  0.00000000000E+00  0.00000000000E+00  0.24151354101E+03  0.24151354101E+03  0.00000000000E+00 0. -1.
         -2   -1    0    0    0  501 -0.00000000000E+00 -0.00000000000E+00 -0.20779038682E+03  0.20779038682E+03  0.00000000000E+00 0.  1.
          6    1    1    2  502    0 -0.56606618880E+02 -0.43775774107E+02 -0.10650903346E+03  0.21539220484E+03  0.17300000000E+03 0.  1.
         -6    1    1    2    0  501  0.56606618880E+02  0.43775774107E+02  0.14023218765E+03  0.23391172299E+03  0.17300000000E+03 0. -1.
</event>
<event>
 4    1  0.1082663E+000  0.1000000E+03  0.7546771E-02  0.1280296E+00
          1   -1    0    0  502    0  0.00000000000E+00  0.00000000000E+00  0.28638452640E+03  0.28638452640E+03  0.00000000000E+00 0. -1.
         -1   -1    0    0    0  501 -0.00000000000E+00 -0.00000000000E+00 -0.17596789679E+03  0.17596789679E+03  0.00000000000E+00 0.  1.
          6    1    1    2  502    0 -0.97565448487E+02  0.75436038360E+02 -0.19449274134E+02  0.21334686988E+03  0.17300000000E+03 0. -1.
         -6    1    1    2    0  501  0.97565448487E+02 -0.75436038360E+02  0.12986590374E+03  0.24900555331E+03  0.17300000000E+03 0.  1.
</event>
<event>
 4    1  0.1082663E+000  0.1000000E+03  0.7546771E-02  0.1280296E+00
          1   -1    0    0  502    0  0.00000000000E+00  0.00000000000E+00  0.31651253643E+03  0.31651253643E+03  0.00000000000E+00 0. -1.
         -1   -1    0    0    0  501 -0.00000000000E+00 -0.00000000000E+00 -0.25372858032E+03  0.25372858032E+03  0.00000000000E+00 0.  1.
          6    1    1    2  502    0 -0.14656388736E+03 -0.15765586191E+03 -0.32581009571E+02  0.27807708654E+03  0.17300000000E+03 0. -1.
         -6    1    1    2    0  501  0.14656388736E+03  0.15765586191E+03  0.95364965684E+02  0.29216403022E+03  0.17300000000E+03 0.  1.
</event>
<event>
 4    1  0.1082663E+000  0.1000000E+03  0.7546771E-02  0.1280296E+00
          1   -1    0    0  502    0  0.00000000000E+00  0.00000000000E+00  0.39952833307E+03  0.39952833307E+03  0.00000000000E+00 0. -1.
         -1   -1    0    0    0  501 -0.00000000000E+00 -0.00000000000E+00 -0.16376117009E+03  0.16376117009E+03  0.00000000000E+00 0.  1.
          6    1    1    2  502    0 -0.83765420212E+02 -0.44098121914E+02  0.29725275375E+03  0.35672046422E+03  0.17300000000E+03 0. -1.
         -6    1    1    2    0  501  0.83765420212E+02  0.44098121914E+02 -0.61485590768E+02  0.20656903895E+03  0.17300000000E+03 0.  1.
</event>
<event>
 4    1  0.1082663E+000  0.1000000E+03  0.7546771E-02  0.1280296E+00
          2   -1    0    0  502    0  0.00000000000E+00  0.00000000000E+00  0.34677862250E+03  0.34677862250E+03  0.00000000000E+00 0. -1.
         -2   -1    0    0    0  501 -0.00000000000E+00 -0.00000000000E+00 -0.13920840939E+03  0.13920840939E+03  0.00000000000E+00 0.  1.
          6    1    1    2  502    0  0.65987192713E+02 -0.10896463949E+03  0.52888558270E+02  0.22125506064E+03  0.17300000000E+03 0. -1.
         -6    1    1    2    0  501 -0.65987192713E+02  0.10896463949E+03  0.15468165484E+03  0.26473197126E+03  0.17300000000E+03 0.  1.
</event>
<event>
 4    1  0.1082663E+000  0.1000000E+03  0.7546771E-02  0.1280296E+00
          2   -1    0    0  502    0  0.00000000000E+00  0.00000000000E+00  0.17630699478E+04  0.17630699478E+04  0.00000000000E+00 0.  1.
         -2   -1    0    0    0  501 -0.00000000000E+00 -0.00000000000E+00 -0.30489877316E+02  0.30489877316E+02  0.00000000000E+00 0. -1.
          6    1    1    2  502    0  0.13449273974E+03  0.97939190599E+01  0.57574618833E+03  0.61611434919E+03  0.17300000000E+03 0. -1.
         -6    1    1    2    0  501 -0.13449273974E+03 -0.97939190599E+01  0.11568338822E+04  0.11774454759E+04  0.17300000000E+03 0.  1.
</event>
<event>
 4    1  0.1082663E+000  0.1000000E+03  0.7546771E-02  0.1280296E+00
          2   -1    0    0  502    0  0.00000000000E+00  0.00000000000E+00  0.86485287139E+02  0.86485287139E+02  0.00000000000E+00 0.  1.
         -2   -1    0    0    0  501 -0.00000000000E+00 -0.00000000000E+00 -0.42936923615E+03  0.42936923615E+03  0.00000000000E+00 0. -1.
          6    1    1    2  502    0  0.45554941037E+01 -0.83543689478E+02 -0.19059767398E+03  0.27065988603E+03  0.17300000000E+03 0. -1.
         -6    1    1    2    0  501 -0.45554941037E+01  0.83543689478E+02 -0.15228627503E+03  0.24519463726E+03  0.17300000000E+03 0.  1.
</event>
<event>
 4    1  0.1082663E+000  0.1000000E+03  0.7546771E-02  0.1280296E+00
          1   -1    0    0  502    0  0.00000000000E+00  0.00000000000E+00  0.82048186482E+03  0.82048186482E+03  0.00000000000E+00 0.  1.
         -1   -1    0    0    0  501 -0.00000000000E+00 -0.00000000000E+00 -0.50468269053E+02  0.50468269053E+02  0.00000000000E+00 0. -1.
          6    1    1    2  502    0 -0.31491766259E+02 -0.86042314578E+02  0.50385622084E+03  0.54055074001E+03  0.17300000000E+03 0. -1.
         -6    1    1    2    0  501  0.31491766259E+02  0.86042314578E+02  0.26615737492E+03  0.33039939387E+03  0.17300000000E+03 0.  1.
</event>
<event>
 4    1  0.1082663E+000  0.1000000E+03  0.7546771E-02  0.1280296E+00
          2   -1    0    0  502    0  0.00000000000E+00  0.00000000000E+00  0.24269832273E+04  0.24269832273E+04  0.00000000000E+00 0. -1.
         -2   -1    0    0    0  501 -0.00000000000E+00 -0.00000000000E+00 -0.22979638395E+02  0.22979638395E+02  0.00000000000E+00 0.  1.
          6    1    1    2  502    0  0.14923636459E+03  0.49375737587E+02  0.13765799212E+04  0.13962846183E+04  0.17300000000E+03 0. -1.
         -6    1    1    2    0  501 -0.14923636459E+03 -0.49375737587E+02  0.10274236678E+04  0.10536782474E+04  0.17300000000E+03 0.  1.
</event>
<event>
 4    1  0.1082663E+000  0.1000000E+03  0.7546771E-02  0.1280296E+00
          2   -1    0    0  502    0  0.00000000000E+00  0.00000000000E+00  0.54638657270E+03  0.54638657270E+03  0.00000000000E+00 0. -1.
         -2   -1    0    0    0  501 -0.00000000000E+00 -0.00000000000E+00 -0.71368486728E+02  0.71368486728E+02  0.00000000000E+00 0.  1.
          6    1    1    2  502    0 -0.67163332239E+02  0.21700510162E+02  0.13754963616E+03  0.23201449900E+03  0.17300000000E+03 0. -1.
         -6    1    1    2    0  501  0.67163332239E+02 -0.21700510162E+02  0.33746844982E+03  0.38574056043E+03  0.17300000000E+03 0.  1.
</event>
<event>
 4    1  0.1082663E+000  0.1000000E+03  0.7546771E-02  0.1280296E+00
          1   -1    0    0  502    0  0.00000000000E+00  0.00000000000E+00  0.78935060329E+03  0.78935060329E+03  0.00000000000E+00 0.  1.
         -1   -1    0    0    0  501 -0.00000000000E+00 -0.00000000000E+00 -0.97161958512E+02  0.97161958512E+02  0.00000000000E+00 0. -1.
          6    1    1    2  502    0  0.87846068062E+02  0.96264803375E+02  0.69878359993E+02  0.22758697071E+03  0.17300000000E+03 0. -1.
         -6    1    1    2    0  501 -0.87846068062E+02 -0.96264803375E+02  0.62231028478E+03  0.65892559109E+03  0.17300000000E+03 0.  1.
</event>
<event>
 4    1  0.1082663E+000  0.1000000E+03  0.7546771E-02  0.1280296E+00
          2   -1    0    0  502    0  0.00000000000E+00  0.00000000000E+00  0.23915402631E+04  0.23915402631E+04  0.00000000000E+00 0.  1.
         -2   -1    0    0    0  501 -0.00000000000E+00 -0.00000000000E+00 -0.18324777948E+02  0.18324777948E+02  0.00000000000E+00 0. -1.
          6    1    1    2  502    0 -0.94050783350E+02 -0.67309348946E+02  0.10554382314E+04  0.10757578531E+04  0.17300000000E+03 0. -1.
         -6    1    1    2    0  501  0.94050783350E+02  0.67309348946E+02  0.13177772537E+04  0.13341071879E+04  0.17300000000E+03 0. -1.
</event>
<event>
 4    1  0.1082663E+000  0.1000000E+03  0.7546771E-02  0.1280296E+00
          2   -1    0    0  502    0  0.00000000000E+00  0.00000000000E+00  0.17944608720E+04  0.17944608720E+04  0.00000000000E+00 0. -1.
         -2   -1    0    0    0  501 -0.00000000000E+00 -0.00000000000E+00 -0.32593711067E+02  0.32593711067E+02  0.00000000000E+00 0.  1.
          6    1    1    2  502    0  0.98291700851E+02  0.11930510901E+02  0.13982454612E+04  0.14123820181E+04  0.17300000000E+03 0.  1.
         -6    1    1    2    0  501 -0.98291700851E+02 -0.11930510901E+02  0.36362169978E+03  0.41467256492E+03  0.17300000000E+03 0.  1.
</event>
<event>
 4    1  0.1082663E+000  0.1000000E+03  0.7546771E-02  0.1280296E+00
          2   -1    0    0  502    0  0.00000000000E+00  0.00000000000E+00  0.23264107382E+04  0.23264107382E+04  0.00000000000E+00 0. -1.
         -2   -1    0    0    0  501 -0.00000000000E+00 -0.00000000000E+00 -0.40435857922E+02  0.40435857922E+02  0.00000000000E+00 0.  1.
          6    1    1    2  502    0  0.32669509131E+01  0.14450184974E+03  0.34055879308E+03  0.40841247421E+03  0.17300000000E+03 0.  1.
         -6    1    1    2    0  501 -0.32669509131E+01 -0.14450184974E+03  0.19454160872E+04  0.19584341219E+04  0.17300000000E+03 0. -1.
</event>
<event>
 4    1  0.1082663E+000  0.1000000E+03  0.7546771E-02  0.1280296E+00
          2   -1    0    0  502    0  0.00000000000E+00  0.00000000000E+00  0.16349018090E+04  0.16349018090E+04  0.00000000000E+00 0.  1.
         -2   -1    0    0    0  501 -0.00000000000E+00 -0.00000000000E+00 -0.34397888287E+02  0.34397888287E+02  0.00000000000E+00 0. -1.
          6    1    1    2  502    0 -0.70651187378E+02  0.14434588861E+03  0.72307375634E+03  0.76065234039E+03  0.17300000000E+03 0. -1.
         -6    1    1    2    0  501  0.70651187378E+02 -0.14434588861E+03  0.87743016433E+03  0.90864735685E+03  0.17300000000E+03 0.  1.
</event>
<event>
 4    1  0.1082663E+000  0.1000000E+03  0.7546771E-02  0.1280296E+00
         -1   -1    0    0    0  501 -0.00000000000E+00  0.00000000000E+00  0.55929607188E+03  0.55929607188E+03  0.00000000000E+00 0. -1.
          1   -1    0    0  502    0  0.00000000000E+00 -0.00000000000E+00 -0.64387616694E+03  0.64387616694E+03  0.00000000000E+00 0.  1.
          6    1    1    2  502    0  0.69964812836E+02  0.22605665794E+03 -0.56722189015E+03  0.63848755689E+03  0.17300000000E+03 0.  1.
         -6    1    1    2    0  501 -0.69964812836E+02 -0.22605665794E+03  0.48264179509E+03  0.56468468193E+03  0.17300000000E+03 0. -1.
</event>
<event>
 4    1  0.1082663E+000  0.1000000E+03  0.7546771E-02  0.1280296E+00
         -1   -1    0    0    0  501 -0.00000000000E+00  0.00000000000E+00  0.39722149098E+03  0.39722149098E+03  0.00000000000E+00 0.  1.
          1   -1    0    0  502    0  0.00000000000E+00 -0.00000000000E+00 -0.53083129058E+03  0.53083129058E+03  0.00000000000E+00 0. -1.
          6    1    1    2  502    0  0.33047784224E+03  0.26667627824E+03 -0.42119160942E+02  0.46047243707E+03  0.17300000000E+03 0. -1.
         -6    1    1    2    0  501 -0.33047784224E+03 -0.26667627824E+03 -0.91490638659E+02  0.46758034449E+03  0.17300000000E+03 0.  1.
</event>
<event>
 4    1  0.1082663E+000  0.1000000E+03  0.7546771E-02  0.1280296E+00
         -1   -1    0    0    0  501 -0.00000000000E+00  0.00000000000E+00  0.14046801588E+02  0.14046801588E+02  0.00000000000E+00 0.  1.
          1   -1    0    0  502    0  0.00000000000E+00 -0.00000000000E+00 -0.28977269059E+04  0.28977269059E+04  0.00000000000E+00 0. -1.
          6    1    1    2  502    0 -0.80408253687E+02  0.59025710955E+02 -0.16491446888E+04  0.16611913575E+04  0.17300000000E+03 0. -1.
         -6    1    1    2    0  501  0.80408253687E+02 -0.59025710955E+02 -0.12345354155E+04  0.12505823500E+04  0.17300000000E+03 0.  1.
</event>
<event>
 4    1  0.1082663E+000  0.1000000E+03  0.7546771E-02  0.1280296E+00
         -3   -1    0    0    0  501 -0.00000000000E+00  0.00000000000E+00  0.11151867943E+03  0.11151867943E+03  0.00000000000E+00 0.  1.
          3   -1    0    0  502    0  0.00000000000E+00 -0.00000000000E+00 -0.38639791906E+03  0.38639791906E+03  0.00000000000E+00 0. -1.
          6    1    1    2  502    0  0.37096287015E+02  0.37927822637E+02 -0.15444854627E+02  0.18161001562E+03  0.17300000000E+03 0. -1.
         -6    1    1    2    0  501 -0.37096287015E+02 -0.37927822637E+02 -0.25943438500E+03  0.31630658286E+03  0.17300000000E+03 0.  1.
</event>
<event>
 4    1  0.1082663E+000  0.1000000E+03  0.7546771E-02  0.1280296E+00
         -1   -1    0    0    0  501 -0.00000000000E+00  0.00000000000E+00  0.88626576328E+02  0.88626576328E+02  0.00000000000E+00 0. -1.
          1   -1    0    0  502    0  0.00000000000E+00 -0.00000000000E+00 -0.93915155557E+03  0.93915155557E+03  0.00000000000E+00 0.  1.
          6    1    1    2  502    0 -0.20972516480E+03 -0.30937978654E+02 -0.26237033184E+03  0.37908969163E+03  0.17300000000E+03 0.  1.
         -6    1    1    2    0  501  0.20972516480E+03  0.30937978654E+02 -0.58815464740E+03  0.64868844026E+03  0.17300000000E+03 0. -1.
</event>
<event>
 4    1  0.1082663E+000  0.1000000E+03  0.7546771E-02  0.1280296E+00
         -1   -1    0    0    0  501 -0.00000000000E+00  0.00000000000E+00  0.34568767156E+02  0.34568767156E+02  0.00000000000E+00 0. -1.
          1   -1    0    0  502    0  0.00000000000E+00 -0.00000000000E+00 -0.10998397624E+04  0.10998397624E+04  0.00000000000E+00 0.  1.
          6    1    1    2  502    0 -0.71701057365E+02  0.43631615940E+02 -0.62673131293E+03  0.65556532713E+03  0.17300000000E+03 0.  1.
         -6    1    1    2    0  501  0.71701057365E+02 -0.43631615940E+02 -0.43853968229E+03  0.47884320239E+03  0.17300000000E+03 0. -1.
</event>
<event>
 4    1  0.1082663E+000  0.1000000E+03  0.7546771E-02  0.1280296E+00
          2   -1    0    0  502    0  0.00000000000E+00  0.00000000000E+00  0.22989829716E+03  0.22989829716E+03  0.00000000000E+00 0.  1.
         -2   -1    0    0    0  501 -0.00000000000E+00 -0.00000000000E+00 -0.19624160665E+03  0.19624160665E+03  0.00000000000E+00 0. -1.
          6    1    1    2  502    0  0.32952663926E+02  0.44565604298E+02  0.12723977729E+03  0.22179028850E+03  0.17300000000E+03 0.  1.
         -6    1    1    2    0  501 -0.32952663926E+02 -0.44565604298E+02 -0.93583086783E+02  0.20434961531E+03  0.17300000000E+03 0. -1.
</event>
<event>
 4    1  0.1082663E+000  0.1000000E+03  0.7546771E-02  0.1280296E+00
         -2   -1    0    0    0  501 -0.00000000000E+00  0.00000000000E+00  0.10507279621E+03  0.10507279621E+03  0.00000000000E+00 0.  1.
          2   -1    0    0  502    0  0.00000000000E+00 -0.00000000000E+00 -0.78164728572E+03  0.78164728572E+03  0.00000000000E+00 0. -1.
          6    1    1    2  502    0  0.19461902824E+03 -0.60492114739E+02 -0.49805403129E+03  0.56526337240E+03  0.17300000000E+03 0.  1.
         -6    1    1    2    0  501 -0.19461902824E+03  0.60492114739E+02 -0.17852045822E+03  0.32145670953E+03  0.17300000000E+03 0. -1.
</event>
<event>
 4    1  0.1082663E+000  0.1000000E+03  0.7546771E-02  0.1280296E+00
          2   -1    0    0  502    0  0.00000000000E+00  0.00000000000E+00  0.36118302563E+03  0.36118302563E+03  0.00000000000E+00 0. -1.
         -2   -1    0    0    0  501 -0.00000000000E+00 -0.00000000000E+00 -0.99143022690E+03  0.99143022690E+03  0.00000000000E+00 0.  1.
          6    1    1    2  502    0  0.42886131332E+03  0.36056094682E+03 -0.18029246069E+03  0.61348235005E+03  0.17300000000E+03 0.  1.
         -6    1    1    2    0  501 -0.42886131332E+03 -0.36056094682E+03 -0.44995474059E+03  0.73913090249E+03  0.17300000000E+03 0. -1.
</event>
<event>
 4    1  0.1082663E+000  0.1000000E+03  0.7546771E-02  0.1280296E+00
          1   -1    0    0  502    0  0.00000000000E+00  0.00000000000E+00  0.51756866149E+03  0.51756866149E+03  0.00000000000E+00 0. -1.
         -1   -1    0    0    0  501 -0.00000000000E+00 -0.00000000000E+00 -0.12992980686E+03  0.12992980686E+03  0.00000000000E+00 0.  1.
          6    1    1    2  502    0 -0.17520019251E+03 -0.25418314838E+02  0.29034145920E+03  0.38153422011E+03  0.17300000000E+03 0.  1.
         -6    1    1    2    0  501  0.17520019251E+03  0.25418314838E+02  0.97297395429E+02  0.26596424824E+03  0.17300000000E+03 0. -1.
</event>
<event>
 4    1  0.1082663E+000  0.1000000E+03  0.7546771E-02  0.1280296E+00
          2   -1    0    0  502    0  0.00000000000E+00  0.00000000000E+00  0.83961815003E+03  0.83961815003E+03  0.00000000000E+00 0. -1.
         -2   -1    0    0    0  501 -0.00000000000E+00 -0.00000000000E+00 -0.18043624987E+03  0.18043624987E+03  0.00000000000E+00 0.  1.
          6    1    1    2  502    0 -0.34079791619E+03 -0.53418703436E+02  0.39604276221E+03  0.55296984280E+03  0.17300000000E+03 0.  1.
         -6    1    1    2    0  501  0.34079791619E+03  0.53418703436E+02  0.26313913795E+03  0.46708455710E+03  0.17300000000E+03 0. -1.
</event>
<event>
 4    1  0.1082663E+000  0.1000000E+03  0.7546771E-02  0.1280296E+00
          1   -1    0    0  502    0  0.00000000000E+00  0.00000000000E+00  0.77634632134E+03  0.77634632134E+03  0.00000000000E+00 0. -1.
         -1   -1    0    0    0  501 -0.00000000000E+00 -0.00000000000E+00 -0.76382515480E+02  0.76382515480E+02  0.00000000000E+00 0.  1.
          6    1    1    2  502    0 -0.92381731672E+02 -0.67400690715E+02  0.12649226742E+03  0.24291259986E+03  0.17300000000E+03 0.  1.
         -6    1    1    2    0  501  0.92381731672E+02  0.67400690715E+02  0.57347153844E+03  0.60981623696E+03  0.17300000000E+03 0. -1.
</event>
<event>
 4    1  0.1082663E+000  0.1000000E+03  0.7546771E-02  0.1280296E+00
          2   -1    0    0  502    0  0.00000000000E+00  0.00000000000E+00  0.10879856073E+04  0.10879856073E+04  0.00000000000E+00 0. -1.
         -2   -1    0    0    0  501 -0.00000000000E+00 -0.00000000000E+00 -0.30509814274E+02  0.30509814274E+02  0.00000000000E+00 0.  1.
          6    1    1    2  502    0  0.36196763991E+02 -0.36471498580E+02  0.45200789247E+03  0.48670371971E+03  0.17300000000E+03 0.  1.
         -6    1    1    2    0  501 -0.36196763991E+02  0.36471498580E+02  0.60546790060E+03  0.63179170190E+03  0.17300000000E+03 0. -1.
</event>
<event>
 4    1  0.1082663E+000  0.1000000E+03  0.7546771E-02  0.1280296E+00
         -1   -1    0    0    0  501 -0.00000000000E+00  0.00000000000E+00  0.43700875978E+03  0.43700875978E+03  0.00000000000E+00 0. -1.
          1   -1    0    0  502    0  0.00000000000E+00 -0.00000000000E+00 -0.91034818921E+02  0.91034818921E+02  0.00000000000E+00 0.  1.
          6    1    1    2  502    0  0.80486422351E+02 -0.11482651639E+01  0.24988302437E+03  0.31440405303E+03  0.17300000000E+03 0.  1.
         -6    1    1    2    0  501 -0.80486422351E+02  0.11482651639E+01  0.96090916492E+02  0.21363952567E+03  0.17300000000E+03 0. -1.
</event>
<event>
 4    1  0.1082663E+000  0.1000000E+03  0.7546771E-02  0.1280296E+00
         -2   -1    0    0    0  501 -0.00000000000E+00  0.00000000000E+00  0.10587056030E+03  0.10587056030E+03  0.00000000000E+00 0.  1.
          2   -1    0    0  502    0  0.00000000000E+00 -0.00000000000E+00 -0.50627532146E+03  0.50627532146E+03  0.00000000000E+00 0. -1.
          6    1    1    2  502    0 -0.10565554902E+03  0.87751603172E+02 -0.29186465655E+03  0.36602925654E+03  0.17300000000E+03 0. -1.
         -6    1    1    2    0  501  0.10565554902E+03 -0.87751603172E+02 -0.10854010461E+03  0.24611662521E+03  0.17300000000E+03 0.  1.
</event>
<event>
 4    1  0.1082663E+000  0.1000000E+03  0.7546771E-02  0.1280296E+00
         -2   -1    0    0    0  501 -0.00000000000E+00  0.00000000000E+00  0.20589892095E+03  0.20589892095E+03  0.00000000000E+00 0.  1.
          2   -1    0    0  502    0  0.00000000000E+00 -0.00000000000E+00 -0.29497594424E+03  0.29497594424E+03  0.00000000000E+00 0. -1.
          6    1    1    2  502    0 -0.12642363304E+02 -0.11730041140E+02 -0.22203571268E+03  0.28200404416E+03  0.17300000000E+03 0. -1.
         -6    1    1    2    0  501  0.12642363304E+02  0.11730041140E+02  0.13295868940E+03  0.21887082104E+03  0.17300000000E+03 0.  1.
</event>
<event>
 4    1  0.1082663E+000  0.1000000E+03  0.7546771E-02  0.1280296E+00
          2   -1    0    0  502    0  0.00000000000E+00  0.00000000000E+00  0.17212344443E+04  0.17212344443E+04  0.00000000000E+00 0.  1.
         -2   -1    0    0    0  501 -0.00000000000E+00 -0.00000000000E+00 -0.37443597480E+02  0.37443597480E+02  0.00000000000E+00 0. -1.
          6    1    1    2  502    0 -0.17176615745E+03  0.25359438404E+02  0.10709620929E+04  0.10986516820E+04  0.17300000000E+03 0. -1.
         -6    1    1    2    0  501  0.17176615745E+03 -0.25359438404E+02  0.61282875400E+03  0.66002635984E+03  0.17300000000E+03 0.  1.
</event>
<event>
 4    1  0.1082663E+000  0.1000000E+03  0.7546771E-02  0.1280296E+00
          1   -1    0    0  502    0  0.00000000000E+00  0.00000000000E+00  0.87348716078E+02  0.87348716078E+02  0.00000000000E+00 0.  1.
         -1   -1    0    0    0  501 -0.00000000000E+00 -0.00000000000E+00 -0.36797953058E+03  0.36797953058E+03  0.00000000000E+00 0. -1.
          6    1    1    2  502    0  0.27675840795E+02 -0.43675562587E+01 -0.18831045458E+03  0.25724473758E+03  0.17300000000E+03 0. -1.
         -6    1    1    2    0  501 -0.27675840795E+02  0.43675562587E+01 -0.92320359929E+02  0.19808350908E+03  0.17300000000E+03 0.  1.
</event>
<event>
 4    1  0.1082663E+000  0.1000000E+03  0.7546771E-02  0.1280296E+00
          2   -1    0    0  502    0  0.00000000000E+00  0.00000000000E+00  0.22711796659E+04  0.22711796659E+04  0.00000000000E+00 0.  1.
         -2   -1    0    0    0  501 -0.00000000000E+00 -0.00000000000E+00 -0.30034404443E+02  0.30034404443E+02  0.00000000000E+00 0. -1.
          6    1    1    2  502    0 -0.71893128092E+02  0.11299138573E+03  0.49213564043E+03  0.53857419516E+03  0.17300000000E+03 0. -1.
         -6    1    1    2    0  501  0.71893128092E+02 -0.11299138573E+03  0.17490096210E+04  0.17626398751E+04  0.17300000000E+03 0.  1.
</event>
<event>
 4    1  0.1082663E+000  0.1000000E+03  0.7546771E-02  0.1280296E+00
         -2   -1    0    0    0  501 -0.00000000000E+00  0.00000000000E+00  0.37933899569E+02  0.37933899569E+02  0.00000000000E+00 0. -1.
          2   -1    0    0  502    0  0.00000000000E+00 -0.00000000000E+00 -0.14705568733E+04  0.14705568733E+04  0.00000000000E+00 0.  1.
          6    1    1    2  502    0 -0.14374940911E+03 -0.41354717486E+02 -0.52790287475E+03  0.57531256761E+03  0.17300000000E+03 0.  1.
         -6    1    1    2    0  501  0.14374940911E+03  0.41354717486E+02 -0.90472009896E+03  0.93317820525E+03  0.17300000000E+03 0. -1.
</event>
<event>
 4    1  0.1082663E+000  0.1000000E+03  0.7546771E-02  0.1280296E+00
         -2   -1    0    0    0  501 -0.00000000000E+00  0.00000000000E+00  0.59987267934E+02  0.59987267934E+02  0.00000000000E+00 0.  1.
          2   -1    0    0  502    0  0.00000000000E+00 -0.00000000000E+00 -0.59309081913E+03  0.59309081913E+03  0.00000000000E+00 0. -1.
          6    1    1    2  502    0  0.31006892003E+02  0.21277681246E+02 -0.15389485437E+03  0.23457790448E+03  0.17300000000E+03 0.  1.
         -6    1    1    2    0  501 -0.31006892003E+02 -0.21277681246E+02 -0.37920869683E+03  0.41850018258E+03  0.17300000000E+03 0. -1.
</event>
<event>
 4    1  0.1082663E+000  0.1000000E+03  0.7546771E-02  0.1280296E+00
         -1   -1    0    0    0  501 -0.00000000000E+00  0.00000000000E+00  0.25716938605E+03  0.25716938605E+03  0.00000000000E+00 0.  1.
          1   -1    0    0  502    0  0.00000000000E+00 -0.00000000000E+00 -0.43087899838E+03  0.43087899838E+03  0.00000000000E+00 0. -1.
          6    1    1    2  502    0  0.20936636066E+02 -0.19754822452E+03  0.12346832584E+03  0.29092451122E+03  0.17300000000E+03 0.  1.
         -6    1    1    2    0  501 -0.20936636066E+02  0.19754822452E+03 -0.29717793817E+03  0.39712387322E+03  0.17300000000E+03 0. -1.
</event>
<event>
 4    1  0.1082663E+000  0.1000000E+03  0.7546771E-02  0.1280296E+00
         -2   -1    0    0    0  501 -0.00000000000E+00  0.00000000000E+00  0.24982456209E+03  0.24982456209E+03  0.00000000000E+00 0.  1.
          2   -1    0    0  502    0  0.00000000000E+00 -0.00000000000E+00 -0.12830002136E+03  0.12830002136E+03  0.00000000000E+00 0. -1.
          6    1    1    2  502    0 -0.10238886266E+02 -0.34673299740E+02  0.90936202312E+02  0.19875981837E+03  0.17300000000E+03 0.  1.
         -6    1    1    2    0  501  0.10238886266E+02  0.34673299740E+02  0.30588338418E+02  0.17936476509E+03  0.17300000000E+03 0. -1.
</event>
<event>
 4    1  0.1082663E+000  0.1000000E+03  0.7546771E-02  0.1280296E+00
         -1   -1    0    0    0  501 -0.00000000000E+00  0.00000000000E+00  0.21941991841E+03  0.21941991841E+03  0.00000000000E+00 0.  1.
          1   -1    0    0  502    0  0.00000000000E+00 -0.00000000000E+00 -0.90113251730E+03  0.90113251730E+03  0.00000000000E+00 0. -1.
          6    1    1    2  502    0 -0.36875209570E+03 -0.14805862629E+03 -0.21550101470E+03  0.48401358683E+03  0.17300000000E+03 0.  1.
         -6    1    1    2    0  501  0.36875209570E+03  0.14805862629E+03 -0.46621158419E+03  0.63653884888E+03  0.17300000000E+03 0. -1.
</event>
<event>
 4    1  0.1082663E+000  0.1000000E+03  0.7546771E-02  0.1280296E+00
         -2   -1    0    0    0  501 -0.00000000000E+00  0.00000000000E+00  0.23932406129E+02  0.23932406129E+02  0.00000000000E+00 0.  1.
          2   -1    0    0  502    0  0.00000000000E+00 -0.00000000000E+00 -0.15583024824E+04  0.15583024824E+04  0.00000000000E+00 0. -1.
          6    1    1    2  502    0  0.39293474662E+01  0.50062268423E+02 -0.10522807417E+04  0.10675886051E+04  0.17300000000E+03 0.  1.
         -6    1    1    2    0  501 -0.39293474662E+01 -0.50062268423E+02 -0.48208933459E+03  0.51464628340E+03  0.17300000000E+03 0. -1.
</event>
<event>
 4    1  0.1082663E+000  0.1000000E+03  0.7546771E-02  0.1280296E+00
          1   -1    0    0  502    0  0.00000000000E+00  0.00000000000E+00  0.13083508097E+04  0.13083508097E+04  0.00000000000E+00 0. -1.
         -1   -1    0    0    0  501 -0.00000000000E+00 -0.00000000000E+00 -0.29740443835E+02  0.29740443835E+02  0.00000000000E+00 0.  1.
          6    1    1    2  502    0  0.26401050155E+01  0.80257551262E+02  0.81002996617E+03  0.83218134489E+03  0.17300000000E+03 0.  1.
         -6    1    1    2    0  501 -0.26401050155E+01 -0.80257551262E+02  0.46858039973E+03  0.50590990868E+03  0.17300000000E+03 0. -1.
</event>
<event>
 4    1  0.1082663E+000  0.1000000E+03  0.7546771E-02  0.1280296E+00
         -2   -1    0    0    0  501 -0.00000000000E+00  0.00000000000E+00  0.47214826440E+02  0.47214826440E+02  0.00000000000E+00 0.  1.
          2   -1    0    0  502    0  0.00000000000E+00 -0.00000000000E+00 -0.18315203354E+04  0.18315203354E+04  0.00000000000E+00 0. -1.
          6    1    1    2  502    0 -0.13506631150E+03 -0.19278013357E+03 -0.99995287619E+03  0.10417494147E+04  0.17300000000E+03 0.  1.
         -6    1    1    2    0  501  0.13506631150E+03  0.19278013357E+03 -0.78435263277E+03  0.83698574716E+03  0.17300000000E+03 0. -1.
</event>
<event>
 4    1  0.1082663E+000  0.1000000E+03  0.7546771E-02  0.1280296E+00
         -1   -1    0    0    0  501 -0.00000000000E+00  0.00000000000E+00  0.53189299705E+02  0.53189299705E+02  0.00000000000E+00 0.  1.
          1   -1    0    0  502    0  0.00000000000E+00 -0.00000000000E+00 -0.19476874402E+04  0.19476874402E+04  0.00000000000E+00 0. -1.
          6    1    1    2  502    0 -0.34411929579E+02 -0.55758596177E+01 -0.17838981566E+04  0.17926061766E+04  0.17300000000E+03 0.  1.
         -6    1    1    2    0  501  0.34411929579E+02  0.55758596177E+01 -0.11059998383E+03  0.20827056329E+03  0.17300000000E+03 0. -1.
</event>
<event>
 4    1  0.1082663E+000  0.1000000E+03  0.7546771E-02  0.1280296E+00
         -4   -1    0    0    0  501 -0.00000000000E+00  0.00000000000E+00  0.26118721080E+03  0.26118721080E+03  0.00000000000E+00 0.  1.
          4   -1    0    0  502    0  0.00000000000E+00 -0.00000000000E+00 -0.14438086255E+03  0.14438086255E+03  0.00000000000E+00 0. -1.
          6    1    1    2  502    0  0.69631510808E+01 -0.82170004942E+02  0.91110592218E+02  0.21220399431E+03  0.17300000000E+03 0.  1.
         -6    1    1    2    0  501 -0.69631510808E+01  0.82170004942E+02  0.25695756038E+02  0.19336407904E+03  0.17300000000E+03 0. -1.
</event>
<event>
 4    1  0.1082663E+000  0.1000000E+03  0.7546771E-02  0.1280296E+00
          1   -1    0    0  502    0  0.00000000000E+00  0.00000000000E+00  0.12832251885E+03  0.12832251885E+03  0.00000000000E+00 0.  1.
         -1   -1    0    0    0  501 -0.00000000000E+00 -0.00000000000E+00 -0.41768634786E+03  0.41768634786E+03  0.00000000000E+00 0. -1.
          6    1    1    2  502    0 -0.27490823315E+02 -0.59667512286E+02 -0.30873110015E+03  0.35994423122E+03  0.17300000000E+03 0.  1.
         -6    1    1    2    0  501  0.27490823315E+02  0.59667512286E+02  0.19367271131E+02  0.18606463549E+03  0.17300000000E+03 0. -1.
</event>
<event>
 4    1  0.1082663E+000  0.1000000E+03  0.7546771E-02  0.1280296E+00
          1   -1    0    0  502    0  0.00000000000E+00  0.00000000000E+00  0.39000865249E+03  0.39000865249E+03  0.00000000000E+00 0.  1.
         -1   -1    0    0    0  501 -0.00000000000E+00 -0.00000000000E+00 -0.78332514481E+02  0.78332514481E+02  0.00000000000E+00 0. -1.
          6    1    1    2  502    0 -0.45106220937E+01 -0.13666234473E+02  0.18310609718E+03  0.25231717044E+03  0.17300000000E+03 0.  1.
         -6    1    1    2    0  501  0.45106220937E+01  0.13666234473E+02  0.12857004083E+03  0.21602399653E+03  0.17300000000E+03 0. -1.
</event>
<event>
 4    1  0.1082663E+000  0.1000000E+03  0.7546771E-02  0.1280296E+00
          2   -1    0    0  502    0  0.00000000000E+00  0.00000000000E+00  0.18912196200E+04  0.18912196200E+04  0.00000000000E+00 0.  1.
         -2   -1    0    0    0  501 -0.00000000000E+00 -0.00000000000E+00 -0.32613596861E+02  0.32613596861E+02  0.00000000000E+00 0. -1.
          6    1    1    2  502    0 -0.12796560628E+03 -0.10260157665E+03  0.11989882043E+04  0.12224581768E+04  0.17300000000E+03 0.  1.
         -6    1    1    2    0  501  0.12796560628E+03  0.10260157665E+03  0.65961781880E+03  0.70137504005E+03  0.17300000000E+03 0. -1.
</event>
<event>
 4    1  0.1082663E+000  0.1000000E+03  0.7546771E-02  0.1280296E+00
          2   -1    0    0  502    0  0.00000000000E+00  0.00000000000E+00  0.20077728257E+04  0.20077728257E+04  0.00000000000E+00 0.  1.
         -2   -1    0    0    0  501 -0.00000000000E+00 -0.00000000000E+00 -0.53402538106E+02  0.53402538106E+02  0.00000000000E+00 0. -1.
          6    1    1    2  502    0 -0.18728553777E+03 -0.66363641506E+02  0.15891925930E+04  0.16108823990E+04  0.17300000000E+03 0. -1.
         -6    1    1    2    0  501  0.18728553777E+03  0.66363641506E+02  0.36517769454E+03  0.45029296482E+03  0.17300000000E+03 0. -1.
</event>
<event>
 4    1  0.1082663E+000  0.1000000E+03  0.7546771E-02  0.1280296E+00
          2   -1    0    0  502    0  0.00000000000E+00  0.00000000000E+00  0.52224909779E+03  0.52224909779E+03  0.00000000000E+00 0.  1.
         -2   -1    0    0    0  501 -0.00000000000E+00 -0.00000000000E+00 -0.11120672495E+03  0.11120672495E+03  0.00000000000E+00 0. -1.
          6    1    1    2  502    0  0.87360915391E+02  0.14034521485E+03  0.16788867736E+03  0.29230859867E+03  0.17300000000E+03 0. -1.
         -6    1    1    2    0  501 -0.87360915391E+02 -0.14034521485E+03  0.24315369548E+03  0.34114722407E+03  0.17300000000E+03 0. -1.
</event>
<event>
 4    1  0.1082663E+000  0.1000000E+03  0.7546771E-02  0.1280296E+00
         -2   -1    0    0    0  501 -0.00000000000E+00  0.00000000000E+00  0.79525467599E+02  0.79525467599E+02  0.00000000000E+00 0. -1.
          2   -1    0    0  502    0  0.00000000000E+00 -0.00000000000E+00 -0.12022624264E+04  0.12022624264E+04  0.00000000000E+00 0.  1.
          6    1    1    2  502    0  0.22887485693E+03 -0.78710963740E+02 -0.73604516047E+03  0.79389583334E+03  0.17300000000E+03 0.  1.
         -6    1    1    2    0  501 -0.22887485693E+03  0.78710963740E+02 -0.38669179831E+03  0.48789206063E+03  0.17300000000E+03 0. -1.
</event>
<event>
 4    1  0.1082663E+000  0.1000000E+03  0.7546771E-02  0.1280296E+00
         -1   -1    0    0    0  501 -0.00000000000E+00  0.00000000000E+00  0.17190008469E+03  0.17190008469E+03  0.00000000000E+00 0. -1.
          1   -1    0    0  502    0  0.00000000000E+00 -0.00000000000E+00 -0.94857013950E+03  0.94857013950E+03  0.00000000000E+00 0.  1.
          6    1    1    2  502    0  0.25396922029E+03 -0.21344711007E+03 -0.17760630257E+03  0.41416546496E+03  0.17300000000E+03 0.  1.
         -6    1    1    2    0  501 -0.25396922029E+03  0.21344711007E+03 -0.59906375224E+03  0.70630475922E+03  0.17300000000E+03 0. -1.
</event>
<event>
 4    1  0.1082663E+000  0.1000000E+03  0.7546771E-02  0.1280296E+00
         -2   -1    0    0    0  501 -0.00000000000E+00  0.00000000000E+00  0.48522355311E+02  0.48522355311E+02  0.00000000000E+00 0. -1.
          2   -1    0    0  502    0  0.00000000000E+00 -0.00000000000E+00 -0.10564468278E+04  0.10564468278E+04  0.00000000000E+00 0.  1.
          6    1    1    2  502    0  0.90097604990E+02  0.36649153542E+02 -0.23808624932E+03  0.30995935378E+03  0.17300000000E+03 0.  1.
         -6    1    1    2    0  501 -0.90097604990E+02 -0.36649153542E+02 -0.76983822317E+03  0.79500982933E+03  0.17300000000E+03 0. -1.
</event>
<event>
 4    1  0.1082663E+000  0.1000000E+03  0.7546771E-02  0.1280296E+00
         -2   -1    0    0    0  501 -0.00000000000E+00  0.00000000000E+00  0.55456146996E+02  0.55456146996E+02  0.00000000000E+00 0. -1.
          2   -1    0    0  502    0  0.00000000000E+00 -0.00000000000E+00 -0.23290653642E+04  0.23290653642E+04  0.00000000000E+00 0.  1.
          6    1    1    2  502    0  0.20839146293E+03 -0.43415185672E+02 -0.36646726211E+03  0.45775444767E+03  0.17300000000E+03 0.  1.
         -6    1    1    2    0  501 -0.20839146293E+03  0.43415185672E+02 -0.19071419551E+04  0.19267670635E+04  0.17300000000E+03 0. -1.
</event>
<event>
 4    1  0.1082663E+000  0.1000000E+03  0.7546771E-02  0.1280296E+00
          1   -1    0    0  502    0  0.00000000000E+00  0.00000000000E+00  0.78444554312E+03  0.78444554312E+03  0.00000000000E+00 0.  1.
         -1   -1    0    0    0  501 -0.00000000000E+00 -0.00000000000E+00 -0.59101046605E+02  0.59101046605E+02  0.00000000000E+00 0. -1.
          6    1    1    2  502    0  0.12712523877E+03  0.14045419373E+02  0.34577018846E+03  0.40723963875E+03  0.17300000000E+03 0.  1.
         -6    1    1    2    0  501 -0.12712523877E+03 -0.14045419373E+02  0.37957430806E+03  0.43630695098E+03  0.17300000000E+03 0. -1.
</event>
<event>
 4    1  0.1082663E+000  0.1000000E+03  0.7546771E-02  0.1280296E+00
          2   -1    0    0  502    0  0.00000000000E+00  0.00000000000E+00  0.16518624014E+04  0.16518624014E+04  0.00000000000E+00 0.  1.
         -2   -1    0    0    0  501 -0.00000000000E+00 -0.00000000000E+00 -0.20296994427E+02  0.20296994427E+02  0.00000000000E+00 0. -1.
          6    1    1    2  502    0  0.10366091954E+02  0.17749187678E+02  0.55844156429E+03  0.58498587184E+03  0.17300000000E+03 0.  1.
         -6    1    1    2    0  501 -0.10366091954E+02 -0.17749187678E+02  0.10731238427E+04  0.10871735240E+04  0.17300000000E+03 0. -1.
</event>
<event>
 4    1  0.1082663E+000  0.1000000E+03  0.7546771E-02  0.1280296E+00
          2   -1    0    0  502    0  0.00000000000E+00  0.00000000000E+00  0.19135319738E+04  0.19135319738E+04  0.00000000000E+00 0.  1.
         -2   -1    0    0    0  501 -0.00000000000E+00 -0.00000000000E+00 -0.17370993406E+02  0.17370993406E+02  0.00000000000E+00 0. -1.
          6    1    1    2  502    0 -0.57535178595E+02  0.71236979476E+00  0.94604982409E+03  0.96345735449E+03  0.17300000000E+03 0.  1.
         -6    1    1    2    0  501  0.57535178595E+02 -0.71236979476E+00  0.95011115633E+03  0.96744561275E+03  0.17300000000E+03 0. -1.
</event>
<event>
 4    1  0.1082663E+000  0.1000000E+03  0.7546771E-02  0.1280296E+00
         -1   -1    0    0    0  501 -0.00000000000E+00  0.00000000000E+00  0.27296120905E+03  0.27296120905E+03  0.00000000000E+00 0.  1.
          1   -1    0    0  502    0  0.00000000000E+00 -0.00000000000E+00 -0.16382081606E+03  0.16382081606E+03  0.00000000000E+00 0. -1.
          6    1    1    2  502    0 -0.52903579489E+02  0.61354103736E+02  0.14823091722E+03  0.24179437460E+03  0.17300000000E+03 0.  1.
         -6    1    1    2    0  501  0.52903579489E+02 -0.61354103736E+02 -0.39090524227E+02  0.19498765051E+03  0.17300000000E+03 0.  1.
</event>
<event>
 4    1  0.1082663E+000  0.1000000E+03  0.7546771E-02  0.1280296E+00
          1   -1    0    0  502    0  0.00000000000E+00  0.00000000000E+00  0.86425065807E+03  0.86425065807E+03  0.00000000000E+00 0. -1.
         -1   -1    0    0    0  501 -0.00000000000E+00 -0.00000000000E+00 -0.53177687564E+02  0.53177687564E+02  0.00000000000E+00 0.  1.
          6    1    1    2  502    0  0.92471680279E+02  0.81262221860E+02  0.34223209420E+03  0.40274851540E+03  0.17300000000E+03 0. -1.
         -6    1    1    2    0  501 -0.92471680279E+02 -0.81262221860E+02  0.46884087631E+03  0.51467983024E+03  0.17300000000E+03 0.  1.
</event>
<event>
 4    1  0.1082663E+000  0.1000000E+03  0.7546771E-02  0.1280296E+00
          1   -1    0    0  502    0  0.00000000000E+00  0.00000000000E+00  0.85321684686E+03  0.85321684686E+03  0.00000000000E+00 0.  1.
         -1   -1    0    0    0  501 -0.00000000000E+00 -0.00000000000E+00 -0.50986826740E+02  0.50986826740E+02  0.00000000000E+00 0. -1.
          6    1    1    2  502    0  0.16408365669E+02  0.18611570318E+02  0.15436918322E+03  0.23318333933E+03  0.17300000000E+03 0. -1.
         -6    1    1    2    0  501 -0.16408365669E+02 -0.18611570318E+02  0.64786083690E+03  0.67102033427E+03  0.17300000000E+03 0.  1.
</event>
<event>
 4    1  0.1082663E+000  0.1000000E+03  0.7546771E-02  0.1280296E+00
          1   -1    0    0  502    0  0.00000000000E+00  0.00000000000E+00  0.10346696748E+04  0.10346696748E+04  0.00000000000E+00 0.  1.
         -1   -1    0    0    0  501 -0.00000000000E+00 -0.00000000000E+00 -0.47317046423E+02  0.47317046423E+02  0.00000000000E+00 0. -1.
          6    1    1    2  502    0  0.66987210190E+02 -0.10749945364E+03  0.36009021160E+03  0.41909113490E+03  0.17300000000E+03 0. -1.
         -6    1    1    2    0  501 -0.66987210190E+02  0.10749945364E+03  0.62726241676E+03  0.66289558630E+03  0.17300000000E+03 0.  1.
</event>
<event>
 4    1  0.1082663E+000  0.1000000E+03  0.7546771E-02  0.1280296E+00
          1   -1    0    0  502    0  0.00000000000E+00  0.00000000000E+00  0.43937100052E+03  0.43937100052E+03  0.00000000000E+00 0.  1.
         -1   -1    0    0    0  501 -0.00000000000E+00 -0.00000000000E+00 -0.10830151033E+03  0.10830151033E+03  0.00000000000E+00 0. -1.
          6    1    1    2  502    0  0.49532763578E+02 -0.47583631971E+02  0.30832185037E+03  0.36015144053E+03  0.17300000000E+03 0. -1.
         -6    1    1    2    0  501 -0.49532763578E+02  0.47583631971E+02  0.22747639818E+02  0.18752107033E+03  0.17300000000E+03 0.  1.
</event>
<event>
 4    1  0.1082663E+000  0.1000000E+03  0.7546771E-02  0.1280296E+00
          1   -1    0    0  502    0  0.00000000000E+00  0.00000000000E+00  0.14957279868E+04  0.14957279868E+04  0.00000000000E+00 0.  1.
         -1   -1    0    0    0  501 -0.00000000000E+00 -0.00000000000E+00 -0.45168960890E+02  0.45168960890E+02  0.00000000000E+00 0. -1.
          6    1    1    2  502    0  0.16591177598E+03 -0.88370167296E+02  0.58326473837E+03  0.63675957700E+03  0.17300000000E+03 0. -1.
         -6    1    1    2    0  501 -0.16591177598E+03  0.88370167296E+02  0.86729428750E+03  0.90413737065E+03  0.17300000000E+03 0.  1.
</event>
<event>
 4    1  0.1082663E+000  0.1000000E+03  0.7546771E-02  0.1280296E+00
          1   -1    0    0  502    0  0.00000000000E+00  0.00000000000E+00  0.22866656182E+03  0.22866656182E+03  0.00000000000E+00 0.  1.
         -1   -1    0    0    0  501 -0.00000000000E+00 -0.00000000000E+00 -0.48078551874E+03  0.48078551874E+03  0.00000000000E+00 0. -1.
          6    1    1    2  502    0  0.22033397046E+03  0.79722048576E+02 -0.29557962340E+03  0.41496864621E+03  0.17300000000E+03 0. -1.
         -6    1    1    2    0  501 -0.22033397046E+03 -0.79722048576E+02  0.43460666486E+02  0.29448343434E+03  0.17300000000E+03 0.  1.
</event>
<event>
 4    1  0.1082663E+000  0.1000000E+03  0.7546771E-02  0.1280296E+00
          2   -1    0    0  502    0  0.00000000000E+00  0.00000000000E+00  0.21303633224E+03  0.21303633224E+03  0.00000000000E+00 0.  1.
         -2   -1    0    0    0  501 -0.00000000000E+00 -0.00000000000E+00 -0.40640862872E+03  0.40640862872E+03  0.00000000000E+00 0. -1.
          6    1    1    2  502    0 -0.15387049593E+03  0.13294510776E+03 -0.22688705618E+03  0.35036733218E+03  0.17300000000E+03 0. -1.
         -6    1    1    2    0  501  0.15387049593E+03 -0.13294510776E+03  0.33514759697E+02  0.26907762879E+03  0.17300000000E+03 0.  1.
</event>
<event>
 4    1  0.1082663E+000  0.1000000E+03  0.7546771E-02  0.1280296E+00
         -2   -1    0    0    0  501 -0.00000000000E+00  0.00000000000E+00  0.60661089024E+02  0.60661089024E+02  0.00000000000E+00 0. -1.
          2   -1    0    0  502    0  0.00000000000E+00 -0.00000000000E+00 -0.63845130717E+03  0.63845130717E+03  0.00000000000E+00 0.  1.
          6    1    1    2  502    0 -0.33388511754E+02  0.87265696598E+02 -0.27402808737E+03  0.33726916133E+03  0.17300000000E+03 0.  1.
         -6    1    1    2    0  501  0.33388511754E+02 -0.87265696598E+02 -0.30376213078E+03  0.36184323487E+03  0.17300000000E+03 0. -1.
</event>
<event>
 4    1  0.1082663E+000  0.1000000E+03  0.7546771E-02  0.1280296E+00
         -2   -1    0    0    0  501 -0.00000000000E+00  0.00000000000E+00  0.52006074188E+02  0.52006074188E+02  0.00000000000E+00 0. -1.
          2   -1    0    0  502    0  0.00000000000E+00 -0.00000000000E+00 -0.11999921761E+04  0.11999921761E+04  0.00000000000E+00 0.  1.
          6    1    1    2  502    0 -0.13372310890E+03  0.26768962956E+02 -0.86921141932E+03  0.89669166312E+03  0.17300000000E+03 0.  1.
         -6    1    1    2    0  501  0.13372310890E+03 -0.26768962956E+02 -0.27877468260E+03  0.35530658717E+03  0.17300000000E+03 0. -1.
</event>
<event>
 4    1  0.1082663E+000  0.1000000E+03  0.7546771E-02  0.1280296E+00
         -1   -1    0    0    0  501 -0.00000000000E+00  0.00000000000E+00  0.49900170434E+03  0.49900170434E+03  0.00000000000E+00 0.  1.
          1   -1    0    0  502    0  0.00000000000E+00 -0.00000000000E+00 -0.86330251011E+02  0.86330251011E+02  0.00000000000E+00 0. -1.
          6    1    1    2  502    0  0.58844004209E+02 -0.61530592829E+02  0.31465706065E+03  0.36903481747E+03  0.17300000000E+03 0. -1.
         -6    1    1    2    0  501 -0.58844004209E+02  0.61530592829E+02  0.98014392680E+02  0.21629713789E+03  0.17300000000E+03 0.  1.
</event>
<event>
 4    1  0.1082663E+000  0.1000000E+03  0.7546771E-02  0.1280296E+00
          2   -1    0    0  502    0  0.00000000000E+00  0.00000000000E+00  0.47332385798E+03  0.47332385798E+03  0.00000000000E+00 0. -1.
         -2   -1    0    0    0  501 -0.00000000000E+00 -0.00000000000E+00 -0.72122088524E+02  0.72122088524E+02  0.00000000000E+00 0.  1.
          6    1    1    2  502    0  0.30701392099E+02 -0.43665939286E+02  0.25501212389E+03  0.31274506081E+03  0.17300000000E+03 0.  1.
         -6    1    1    2    0  501 -0.30701392099E+02  0.43665939286E+02  0.14618964556E+03  0.23270088569E+03  0.17300000000E+03 0.  1.
</event>
<event>
 4    1  0.1082663E+000  0.1000000E+03  0.7546771E-02  0.1280296E+00
          2   -1    0    0  502    0  0.00000000000E+00  0.00000000000E+00  0.17302467822E+04  0.17302467822E+04  0.00000000000E+00 0. -1.
         -2   -1    0    0    0  501 -0.00000000000E+00 -0.00000000000E+00 -0.47648077177E+02  0.47648077177E+02  0.00000000000E+00 0.  1.
          6    1    1    2  502    0 -0.14497591594E+03 -0.12189081976E+03  0.12406524197E+04  0.12668949501E+04  0.17300000000E+03 0.  1.
         -6    1    1    2    0  501  0.14497591594E+03  0.12189081976E+03  0.44194628533E+03  0.51099990926E+03  0.17300000000E+03 0.  1.
</event>
<event>
 4    1  0.1082663E+000  0.1000000E+03  0.7546771E-02  0.1280296E+00
         -1   -1    0    0    0  501 -0.00000000000E+00  0.00000000000E+00  0.53374902238E+03  0.53374902238E+03  0.00000000000E+00 0.  1.
          1   -1    0    0  502    0  0.00000000000E+00 -0.00000000000E+00 -0.68822374210E+02  0.68822374210E+02  0.00000000000E+00 0. -1.
          6    1    1    2  502    0  0.35199567559E+02 -0.25944521405E+02  0.34241998267E+03  0.38612507336E+03  0.17300000000E+03 0.  1.
         -6    1    1    2    0  501 -0.35199567559E+02  0.25944521405E+02  0.12250666550E+03  0.21644632323E+03  0.17300000000E+03 0. -1.
</event>
<event>
 4    1  0.1082663E+000  0.1000000E+03  0.7546771E-02  0.1280296E+00
         -2   -1    0    0    0  501 -0.00000000000E+00  0.00000000000E+00  0.39207310939E+03  0.39207310939E+03  0.00000000000E+00 0.  1.
          2   -1    0    0  502    0  0.00000000000E+00 -0.00000000000E+00 -0.14208175434E+03  0.14208175434E+03  0.00000000000E+00 0. -1.
          6    1    1    2  502    0 -0.63279820910E+02  0.83673840143E+02 -0.12535461575E+02  0.20271108765E+03  0.17300000000E+03 0.  1.
         -6    1    1    2    0  501  0.63279820910E+02 -0.83673840143E+02  0.26252681663E+03  0.33144377609E+03  0.17300000000E+03 0. -1.
</event>
<event>
 4    1  0.1082663E+000  0.1000000E+03  0.7546771E-02  0.1280296E+00
         -2   -1    0    0    0  501 -0.00000000000E+00  0.00000000000E+00  0.34666125653E+02  0.34666125653E+02  0.00000000000E+00 0.  1.
          2   -1    0    0  502    0  0.00000000000E+00 -0.00000000000E+00 -0.14128011435E+04  0.14128011435E+04  0.00000000000E+00 0. -1.
          6    1    1    2  502    0 -0.12462946581E+03 -0.50308050126E+02 -0.79164912087E+03  0.82140168871E+03  0.17300000000E+03 0.  1.
         -6    1    1    2    0  501  0.12462946581E+03  0.50308050126E+02 -0.58648589701E+03  0.62606558047E+03  0.17300000000E+03 0. -1.
</event>
<event>
 4    1  0.1082663E+000  0.1000000E+03  0.7546771E-02  0.1280296E+00
         -2   -1    0    0    0  501 -0.00000000000E+00  0.00000000000E+00  0.73619483471E+02  0.73619483471E+02  0.00000000000E+00 0.  1.
          2   -1    0    0  502    0  0.00000000000E+00 -0.00000000000E+00 -0.10918104795E+04  0.10918104795E+04  0.00000000000E+00 0. -1.
          6    1    1    2  502    0 -0.76160714152E+02 -0.12600483128E+03 -0.16046122575E+03  0.27812672805E+03  0.17300000000E+03 0.  1.
         -6    1    1    2    0  501  0.76160714152E+02  0.12600483128E+03 -0.85772977028E+03  0.88730323493E+03  0.17300000000E+03 0. -1.
</event>
<event>
 4    1  0.1082663E+000  0.1000000E+03  0.7546771E-02  0.1280296E+00
         -1   -1    0    0    0  501 -0.00000000000E+00  0.00000000000E+00  0.68929139395E+02  0.68929139395E+02  0.00000000000E+00 0.  1.
          1   -1    0    0  502    0  0.00000000000E+00 -0.00000000000E+00 -0.11345170655E+04  0.11345170655E+04  0.00000000000E+00 0. -1.
          6    1    1    2  502    0  0.21957950710E+03 -0.58604505839E+01 -0.52252402402E+03  0.59262961494E+03  0.17300000000E+03 0.  1.
         -6    1    1    2    0  501 -0.21957950710E+03  0.58604505839E+01 -0.54306390203E+03  0.61081658991E+03  0.17300000000E+03 0. -1.
</event>
<event>
 4    1  0.1082663E+000  0.1000000E+03  0.7546771E-02  0.1280296E+00
         -1   -1    0    0    0  501 -0.00000000000E+00  0.00000000000E+00  0.15462552722E+03  0.15462552722E+03  0.00000000000E+00 0. -1.
          1   -1    0    0  502    0  0.00000000000E+00 -0.00000000000E+00 -0.24346042521E+03  0.24346042521E+03  0.00000000000E+00 0.  1.
          6    1    1    2  502    0  0.46177366950E+02 -0.55135666938E+02 -0.96159372466E+02  0.21058944869E+03  0.17300000000E+03 0.  1.
         -6    1    1    2    0  501 -0.46177366950E+02  0.55135666938E+02  0.73244744733E+01  0.18749650374E+03  0.17300000000E+03 0. -1.
</event>
<event>
 4    1  0.1082663E+000  0.1000000E+03  0.7546771E-02  0.1280296E+00
         -2   -1    0    0    0  501 -0.00000000000E+00  0.00000000000E+00  0.16187406058E+03  0.16187406058E+03  0.00000000000E+00 0. -1.
          2   -1    0    0  502    0  0.00000000000E+00 -0.00000000000E+00 -0.49520861107E+03  0.49520861107E+03  0.00000000000E+00 0.  1.
          6    1    1    2  502    0 -0.16422588214E+03  0.63029767970E+02 -0.55032178486E+01  0.24678366522E+03  0.17300000000E+03 0.  1.
         -6    1    1    2    0  501  0.16422588214E+03 -0.63029767970E+02 -0.32783133264E+03  0.41029900643E+03  0.17300000000E+03 0. -1.
</event>
<event>
 4    1  0.1082663E+000  0.1000000E+03  0.7546771E-02  0.1280296E+00
         -2   -1    0    0    0  501 -0.00000000000E+00  0.00000000000E+00  0.44399334650E+02  0.44399334650E+02  0.00000000000E+00 0.  1.
          2   -1    0    0  502    0  0.00000000000E+00 -0.00000000000E+00 -0.70287388372E+03  0.70287388372E+03  0.00000000000E+00 0. -1.
          6    1    1    2  502    0  0.11693136598E+02 -0.12718296915E+02 -0.39543721112E+03  0.43196999023E+03  0.17300000000E+03 0. -1.
         -6    1    1    2    0  501 -0.11693136598E+02  0.12718296915E+02 -0.26303733795E+03  0.31530322814E+03  0.17300000000E+03 0.  1.
</event>
<event>
 4    1  0.1082663E+000  0.1000000E+03  0.7546771E-02  0.1280296E+00
         -2   -1    0    0    0  501 -0.00000000000E+00  0.00000000000E+00  0.76804346534E+03  0.76804346534E+03  0.00000000000E+00 0.  1.
          2   -1    0    0  502    0  0.00000000000E+00 -0.00000000000E+00 -0.18146451889E+03  0.18146451889E+03  0.00000000000E+00 0. -1.
          6    1    1    2  502    0  0.26491111164E+03  0.15877085767E+03  0.44406635951E+03  0.56789965131E+03  0.17300000000E+03 0. -1.
         -6    1    1    2    0  501 -0.26491111164E+03 -0.15877085767E+03  0.14251258694E+03  0.38160833291E+03  0.17300000000E+03 0.  1.
</event>
<event>
 4    1  0.1082663E+000  0.1000000E+03  0.7546771E-02  0.1280296E+00
          1   -1    0    0  502    0  0.00000000000E+00  0.00000000000E+00  0.40645713796E+02  0.40645713796E+02  0.00000000000E+00 0.  1.
         -1   -1    0    0    0  501 -0.00000000000E+00 -0.00000000000E+00 -0.95464462388E+03  0.95464462388E+03  0.00000000000E+00 0. -1.
          6    1    1    2  502    0 -0.14408699943E+02 -0.13493579043E+02 -0.68969052548E+03  0.71133094143E+03  0.17300000000E+03 0. -1.
         -6    1    1    2    0  501  0.14408699943E+02  0.13493579043E+02 -0.22430838461E+03  0.28395939624E+03  0.17300000000E+03 0.  1.
</event>
<event>
 4    1  0.1082663E+000  0.1000000E+03  0.7546771E-02  0.1280296E+00
          2   -1    0    0  502    0  0.00000000000E+00  0.00000000000E+00  0.11653487602E+04  0.11653487602E+04  0.00000000000E+00 0.  1.
         -2   -1    0    0    0  501 -0.00000000000E+00 -0.00000000000E+00 -0.29431797176E+02  0.29431797176E+02  0.00000000000E+00 0. -1.
          6    1    1    2  502    0  0.57421791411E+02 -0.32210699332E+02  0.54900719271E+03  0.57937266843E+03  0.17300000000E+03 0. -1.
         -6    1    1    2    0  501 -0.57421791411E+02  0.32210699332E+02  0.58690977027E+03  0.61540788890E+03  0.17300000000E+03 0.  1.
</event>
<event>
 4    1  0.1082663E+000  0.1000000E+03  0.7546771E-02  0.1280296E+00
         -1   -1    0    0    0  501 -0.00000000000E+00  0.00000000000E+00  0.11670431127E+04  0.11670431127E+04  0.00000000000E+00 0.  1.
          1   -1    0    0  502    0  0.00000000000E+00 -0.00000000000E+00 -0.12234489213E+03  0.12234489213E+03  0.00000000000E+00 0. -1.
          6    1    1    2  502    0  0.28666377017E+03 -0.14331578452E+02  0.82017497513E+03  0.88600084712E+03  0.17300000000E+03 0. -1.
         -6    1    1    2    0  501 -0.28666377017E+03  0.14331578452E+02  0.22452324546E+03  0.40338715773E+03  0.17300000000E+03 0.  1.
</event>
<event>
 4    1  0.1082663E+000  0.1000000E+03  0.7546771E-02  0.1280296E+00
         -1   -1    0    0    0  501 -0.00000000000E+00  0.00000000000E+00  0.28591304525E+02  0.28591304525E+02  0.00000000000E+00 0.  1.
          1   -1    0    0  502    0  0.00000000000E+00 -0.00000000000E+00 -0.17246388039E+04  0.17246388039E+04  0.00000000000E+00 0. -1.
          6    1    1    2  502    0 -0.56296102454E+02 -0.12272199103E+03 -0.98193915001E+03  0.10061627267E+04  0.17300000000E+03 0. -1.
         -6    1    1    2    0  501  0.56296102454E+02  0.12272199103E+03 -0.71410834932E+03  0.74706738171E+03  0.17300000000E+03 0.  1.
</event>
<event>
 4    1  0.1082663E+000  0.1000000E+03  0.7546771E-02  0.1280296E+00
         -2   -1    0    0    0  501 -0.00000000000E+00  0.00000000000E+00  0.81256096429E+02  0.81256096429E+02  0.00000000000E+00 0.  1.
          2   -1    0    0  502    0  0.00000000000E+00 -0.00000000000E+00 -0.31459686304E+04  0.31459686304E+04  0.00000000000E+00 0. -1.
          6    1    1    2  502    0  0.17880543022E+03  0.34904101044E+03 -0.23881238548E+04  0.24262863711E+04  0.17300000000E+03 0. -1.
         -6    1    1    2    0  501 -0.17880543022E+03 -0.34904101044E+03 -0.67658867913E+03  0.80093835566E+03  0.17300000000E+03 0.  1.
</event>
<event>
 4    1  0.1082663E+000  0.1000000E+03  0.7546771E-02  0.1280296E+00
          2   -1    0    0  502    0  0.00000000000E+00  0.00000000000E+00  0.87768572618E+03  0.87768572618E+03  0.00000000000E+00 0.  1.
         -2   -1    0    0    0  501 -0.00000000000E+00 -0.00000000000E+00 -0.41834253719E+02  0.41834253719E+02  0.00000000000E+00 0. -1.
          6    1    1    2  502    0  0.40742288306E+02 -0.89954715949E+01  0.24746171740E+03  0.30480674885E+03  0.17300000000E+03 0.  1.
         -6    1    1    2    0  501 -0.40742288306E+02  0.89954715949E+01  0.58838975507E+03  0.61471323105E+03  0.17300000000E+03 0.  1.
</event>
<event>
 4    1  0.1082663E+000  0.1000000E+03  0.7546771E-02  0.1280296E+00
         -2   -1    0    0    0  501 -0.00000000000E+00  0.00000000000E+00  0.59366983839E+02  0.59366983839E+02  0.00000000000E+00 0.  1.
          2   -1    0    0  502    0  0.00000000000E+00 -0.00000000000E+00 -0.11158493111E+04  0.11158493111E+04  0.00000000000E+00 0. -1.
          6    1    1    2  502    0  0.60887439748E+02  0.14529364782E+03 -0.77304897578E+03  0.80768263778E+03  0.17300000000E+03 0.  1.
         -6    1    1    2    0  501 -0.60887439748E+02 -0.14529364782E+03 -0.28343335151E+03  0.36753365718E+03  0.17300000000E+03 0. -1.
</event>
<event>
 4    1  0.1082663E+000  0.1000000E+03  0.7546771E-02  0.1280296E+00
         -1   -1    0    0    0  501 -0.00000000000E+00  0.00000000000E+00  0.68342591199E+02  0.68342591199E+02  0.00000000000E+00 0.  1.
          1   -1    0    0  502    0  0.00000000000E+00 -0.00000000000E+00 -0.75888826943E+03  0.75888826943E+03  0.00000000000E+00 0. -1.
          6    1    1    2  502    0 -0.94981109885E+02  0.93548062256E+02 -0.46245235861E+03  0.51143311896E+03  0.17300000000E+03 0.  1.
         -6    1    1    2    0  501  0.94981109885E+02 -0.93548062256E+02 -0.22809331962E+03  0.31579774167E+03  0.17300000000E+03 0. -1.
</event>
<event>
 4    1  0.1082663E+000  0.1000000E+03  0.7546771E-02  0.1280296E+00
         -1   -1    0    0    0  501 -0.00000000000E+00  0.00000000000E+00  0.32165095176E+03  0.32165095176E+03  0.00000000000E+00 0.  1.
          1   -1    0    0  502    0  0.00000000000E+00 -0.00000000000E+00 -0.18939365877E+03  0.18939365877E+03  0.00000000000E+00 0. -1.
          6    1    1    2  502    0  0.26283793386E+02 -0.14480244118E+03  0.16613309202E+03  0.28140324986E+03  0.17300000000E+03 0.  1.
         -6    1    1    2    0  501 -0.26283793386E+02  0.14480244118E+03 -0.33875799030E+02  0.22964136066E+03  0.17300000000E+03 0. -1.
</event>
<event>
 4    1  0.1082663E+000  0.1000000E+03  0.7546771E-02  0.1280296E+00
         -1   -1    0    0    0  501 -0.00000000000E+00  0.00000000000E+00  0.82651840378E+03  0.82651840378E+03  0.00000000000E+00 0. -1.
          1   -1    0    0  502    0  0.00000000000E+00 -0.00000000000E+00 -0.19222043567E+03  0.19222043567E+03  0.00000000000E+00 0.  1.
          6    1    1    2  502    0  0.74390452719E+01 -0.20076461740E+03  0.69749766236E+03  0.74618614300E+03  0.17300000000E+03 0. -1.
         -6    1    1    2    0  501 -0.74390452719E+01  0.20076461740E+03 -0.63199694254E+02  0.27255269646E+03  0.17300000000E+03 0.  1.
</event>
<event>
 4    1  0.1082663E+000  0.1000000E+03  0.7546771E-02  0.1280296E+00
         -1   -1    0    0    0  501 -0.00000000000E+00  0.00000000000E+00  0.44702649608E+03  0.44702649608E+03  0.00000000000E+00 0. -1.
          1   -1    0    0  502    0  0.00000000000E+00 -0.00000000000E+00 -0.88378474186E+02  0.88378474186E+02  0.00000000000E+00 0.  1.
          6    1    1    2  502    0  0.74016425186E+02 -0.51829344071E+02  0.12868238196E+03  0.23377952761E+03  0.17300000000E+03 0. -1.
         -6    1    1    2    0  501 -0.74016425186E+02  0.51829344071E+02  0.22996563993E+03  0.30162544265E+03  0.17300000000E+03 0.  1.
</event>
<event>
 4    1  0.1082663E+000  0.1000000E+03  0.7546771E-02  0.1280296E+00
         -2   -1    0    0    0  501 -0.00000000000E+00  0.00000000000E+00  0.45883680352E+02  0.45883680352E+02  0.00000000000E+00 0.  1.
          2   -1    0    0  502    0  0.00000000000E+00 -0.00000000000E+00 -0.10328315890E+04  0.10328315890E+04  0.00000000000E+00 0. -1.
          6    1    1    2  502    0  0.54768514144E+02  0.11140168745E+03 -0.60568502992E+03  0.64202280456E+03  0.17300000000E+03 0. -1.
         -6    1    1    2    0  501 -0.54768514144E+02 -0.11140168745E+03 -0.38126287873E+03  0.43669246479E+03  0.17300000000E+03 0.  1.
</event>
<event>
 4    1  0.1082663E+000  0.1000000E+03  0.7546771E-02  0.1280296E+00
         -2   -1    0    0    0  501 -0.00000000000E+00  0.00000000000E+00  0.23570670123E+02  0.23570670123E+02  0.00000000000E+00 0.  1.
          2   -1    0    0  502    0  0.00000000000E+00 -0.00000000000E+00 -0.16802707803E+04  0.16802707803E+04  0.00000000000E+00 0. -1.
          6    1    1    2  502    0  0.43474893771E+02  0.29506429696E+02 -0.11843358156E+04  0.11980571855E+04  0.17300000000E+03 0. -1.
         -6    1    1    2    0  501 -0.43474893771E+02 -0.29506429696E+02 -0.47236429459E+03  0.50578426487E+03  0.17300000000E+03 0.  1.
</event>
<event>
 4    1  0.1082663E+000  0.1000000E+03  0.7546771E-02  0.1280296E+00
         -1   -1    0    0    0  501 -0.00000000000E+00  0.00000000000E+00  0.41100895896E+03  0.41100895896E+03  0.00000000000E+00 0.  1.
          1   -1    0    0  502    0  0.00000000000E+00 -0.00000000000E+00 -0.22840318395E+03  0.22840318395E+03  0.00000000000E+00 0. -1.
          6    1    1    2  502    0 -0.66216645929E+02  0.55480700428E+02  0.33929444420E+03  0.39052845246E+03  0.17300000000E+03 0. -1.
         -6    1    1    2    0  501  0.66216645929E+02 -0.55480700428E+02 -0.15668866919E+03  0.24888369045E+03  0.17300000000E+03 0.  1.
</event>
<event>
 4    1  0.1082663E+000  0.1000000E+03  0.7546771E-02  0.1280296E+00
          1   -1    0    0  502    0  0.00000000000E+00  0.00000000000E+00  0.89283312510E+03  0.89283312510E+03  0.00000000000E+00 0.  1.
         -1   -1    0    0    0  501 -0.00000000000E+00 -0.00000000000E+00 -0.17739211972E+03  0.17739211972E+03  0.00000000000E+00 0. -1.
          6    1    1    2  502    0 -0.33224859589E+03 -0.69538974980E+02  0.51236557083E+03  0.63849218999E+03  0.17300000000E+03 0.  1.
         -6    1    1    2    0  501  0.33224859589E+03  0.69538974980E+02  0.20307543455E+03  0.43173305483E+03  0.17300000000E+03 0. -1.
</event>
<event>
 4    1  0.1082663E+000  0.1000000E+03  0.7546771E-02  0.1280296E+00
         -1   -1    0    0    0  501 -0.00000000000E+00  0.00000000000E+00  0.14943553330E+03  0.14943553330E+03  0.00000000000E+00 0.  1.
          1   -1    0    0  502    0  0.00000000000E+00 -0.00000000000E+00 -0.35692408270E+03  0.35692408270E+03  0.00000000000E+00 0. -1.
          6    1    1    2  502    0  0.10196809239E+03  0.75138992721E+02 -0.96649683528E+01  0.21462938220E+03  0.17300000000E+03 0.  1.
         -6    1    1    2    0  501 -0.10196809239E+03 -0.75138992721E+02 -0.19782358104E+03  0.29173023379E+03  0.17300000000E+03 0. -1.
</event>
<event>
 4    1  0.1082663E+000  0.1000000E+03  0.7546771E-02  0.1280296E+00
         -2   -1    0    0    0  501 -0.00000000000E+00  0.00000000000E+00  0.33919614892E+02  0.33919614892E+02  0.00000000000E+00 0.  1.
          2   -1    0    0  502    0  0.00000000000E+00 -0.00000000000E+00 -0.99948506959E+03  0.99948506959E+03  0.00000000000E+00 0. -1.
          6    1    1    2  502    0 -0.43994170463E+02  0.17895148782E+02 -0.59907898568E+03  0.62536417748E+03  0.17300000000E+03 0.  1.
         -6    1    1    2    0  501  0.43994170463E+02 -0.17895148782E+02 -0.36648646901E+03  0.40804050700E+03  0.17300000000E+03 0. -1.
</event>
<event>
 4    1  0.1082663E+000  0.1000000E+03  0.7546771E-02  0.1280296E+00
         -1   -1    0    0    0  501 -0.00000000000E+00  0.00000000000E+00  0.12236829089E+03  0.12236829089E+03  0.00000000000E+00 0.  1.
          1   -1    0    0  502    0  0.00000000000E+00 -0.00000000000E+00 -0.30448805931E+03  0.30448805931E+03  0.00000000000E+00 0. -1.
          6    1    1    2  502    0  0.61449389119E+02  0.44200520145E+01 -0.15680056508E+03  0.24147666863E+03  0.17300000000E+03 0.  1.
         -6    1    1    2    0  501 -0.61449389119E+02 -0.44200520145E+01 -0.25319203332E+02  0.18537968157E+03  0.17300000000E+03 0. -1.
</event>
<event>
 4    1  0.1082663E+000  0.1000000E+03  0.7546771E-02  0.1280296E+00
          2   -1    0    0  502    0  0.00000000000E+00  0.00000000000E+00  0.19874314370E+04  0.19874314370E+04  0.00000000000E+00 0. -1.
         -2   -1    0    0    0  501 -0.00000000000E+00 -0.00000000000E+00 -0.16695457648E+02  0.16695457648E+02  0.00000000000E+00 0.  1.
          6    1    1    2  502    0  0.12957875325E+02  0.55113554627E+02  0.10229478086E+04  0.10390171460E+04  0.17300000000E+03 0. -1.
         -6    1    1    2    0  501 -0.12957875325E+02 -0.55113554627E+02  0.94778817072E+03  0.96510974868E+03  0.17300000000E+03 0.  1.
</event>
<event>
 4    1  0.1082663E+000  0.1000000E+03  0.7546771E-02  0.1280296E+00
          2   -1    0    0  502    0  0.00000000000E+00  0.00000000000E+00  0.15232624250E+04  0.15232624250E+04  0.00000000000E+00 0. -1.
         -2   -1    0    0    0  501 -0.00000000000E+00 -0.00000000000E+00 -0.40859460025E+02  0.40859460025E+02  0.00000000000E+00 0.  1.
          6    1    1    2  502    0  0.17865597967E+03  0.15136620614E+02  0.78129771992E+03  0.82006231685E+03  0.17300000000E+03 0. -1.
         -6    1    1    2    0  501 -0.17865597967E+03 -0.15136620614E+02  0.70110524503E+03  0.74405956816E+03  0.17300000000E+03 0.  1.
</event>
<event>
 4    1  0.1082663E+000  0.1000000E+03  0.7546771E-02  0.1280296E+00
         -2   -1    0    0    0  501 -0.00000000000E+00  0.00000000000E+00  0.49265902489E+02  0.49265902489E+02  0.00000000000E+00 0.  1.
          2   -1    0    0  502    0  0.00000000000E+00 -0.00000000000E+00 -0.14182192756E+04  0.14182192756E+04  0.00000000000E+00 0. -1.
          6    1    1    2  502    0  0.16194219994E+02  0.18495584577E+03 -0.47917624050E+03  0.54222669347E+03  0.17300000000E+03 0.  1.
         -6    1    1    2    0  501 -0.16194219994E+02 -0.18495584577E+03 -0.88977713257E+03  0.92525848458E+03  0.17300000000E+03 0. -1.
</event>
<event>
 4    1  0.1082663E+000  0.1000000E+03  0.7546771E-02  0.1280296E+00
         -2   -1    0    0    0  501 -0.00000000000E+00  0.00000000000E+00  0.33277330994E+02  0.33277330994E+02  0.00000000000E+00 0.  1.
          2   -1    0    0  502    0  0.00000000000E+00 -0.00000000000E+00 -0.30408065587E+04  0.30408065587E+04  0.00000000000E+00 0. -1.
          6    1    1    2  502    0  0.14192642704E+03 -0.77967880377E+02 -0.25292054460E+04  0.25402817342E+04  0.17300000000E+03 0.  1.
         -6    1    1    2    0  501 -0.14192642704E+03  0.77967880377E+02 -0.47832378174E+03  0.53380215552E+03  0.17300000000E+03 0. -1.
</event>
<event>
 4    1  0.1082663E+000  0.1000000E+03  0.7546771E-02  0.1280296E+00
         -2   -1    0    0    0  501 -0.00000000000E+00  0.00000000000E+00  0.40387729916E+02  0.40387729916E+02  0.00000000000E+00 0.  1.
          2   -1    0    0  502    0  0.00000000000E+00 -0.00000000000E+00 -0.11856721408E+04  0.11856721408E+04  0.00000000000E+00 0. -1.
          6    1    1    2  502    0 -0.88168743844E+02 -0.99096357563E+02 -0.51921032484E+03  0.56311826191E+03  0.17300000000E+03 0. -1.
         -6    1    1    2    0  501  0.88168743844E+02  0.99096357563E+02 -0.62607408603E+03  0.66294160879E+03  0.17300000000E+03 0.  1.
</event>
<event>
 4    1  0.1082663E+000  0.1000000E+03  0.7546771E-02  0.1280296E+00
         -1   -1    0    0    0  501 -0.00000000000E+00  0.00000000000E+00  0.14542327755E+03  0.14542327755E+03  0.00000000000E+00 0.  1.
          1   -1    0    0  502    0  0.00000000000E+00 -0.00000000000E+00 -0.27350735210E+03  0.27350735210E+03  0.00000000000E+00 0. -1.
          6    1    1    2  502    0 -0.29894378008E+02 -0.89883542481E+02 -0.33016388152E+02  0.19997951628E+03  0.17300000000E+03 0. -1.
         -6    1    1    2    0  501  0.29894378008E+02  0.89883542481E+02 -0.95067686401E+02  0.21895111336E+03  0.17300000000E+03 0.  1.
</event>
<event>
 4    1  0.1082663E+000  0.1000000E+03  0.7546771E-02  0.1280296E+00
         -2   -1    0    0    0  501 -0.00000000000E+00  0.00000000000E+00  0.59777539356E+02  0.59777539356E+02  0.00000000000E+00 0.  1.
          2   -1    0    0  502    0  0.00000000000E+00 -0.00000000000E+00 -0.10520039180E+04  0.10520039180E+04  0.00000000000E+00 0. -1.
          6    1    1    2  502    0 -0.13806058072E+03 -0.10957813961E+03 -0.59246074502E+03  0.64187757946E+03  0.17300000000E+03 0. -1.
         -6    1    1    2    0  501  0.13806058072E+03  0.10957813961E+03 -0.39976563360E+03  0.46990387787E+03  0.17300000000E+03 0.  1.
</event>
<event>
 4    1  0.1082663E+000  0.1000000E+03  0.7546771E-02  0.1280296E+00
          1   -1    0    0  502    0  0.00000000000E+00  0.00000000000E+00  0.10278994144E+04  0.10278994144E+04  0.00000000000E+00 0. -1.
         -1   -1    0    0    0  501 -0.00000000000E+00 -0.00000000000E+00 -0.31877398647E+02  0.31877398647E+02  0.00000000000E+00 0.  1.
          6    1    1    2  502    0  0.38269313224E+02 -0.34305131589E+02  0.45698936987E+03  0.49133457701E+03  0.17300000000E+03 0. -1.
         -6    1    1    2    0  501 -0.38269313224E+02  0.34305131589E+02  0.53903264589E+03  0.56844223604E+03  0.17300000000E+03 0. -1.
</event>
<event>
 4    1  0.1082663E+000  0.1000000E+03  0.7546771E-02  0.1280296E+00
          2   -1    0    0  502    0  0.00000000000E+00  0.00000000000E+00  0.25495298843E+03  0.25495298843E+03  0.00000000000E+00 0. -1.
         -2   -1    0    0    0  501 -0.00000000000E+00 -0.00000000000E+00 -0.14744612719E+03  0.14744612719E+03  0.00000000000E+00 0.  1.
          6    1    1    2  502    0 -0.44856046562E+02 -0.73814580317E+02  0.38998319495E+02  0.19725751216E+03  0.17300000000E+03 0. -1.
         -6    1    1    2    0  501  0.44856046562E+02  0.73814580317E+02  0.68508541744E+02  0.20514160347E+03  0.17300000000E+03 0. -1.
</event>
<event>
 4    1  0.1082663E+000  0.1000000E+03  0.7546771E-02  0.1280296E+00
          4   -1    0    0  502    0  0.00000000000E+00  0.00000000000E+00  0.11484804444E+03  0.11484804444E+03  0.00000000000E+00 0. -1.
         -4   -1    0    0    0  501 -0.00000000000E+00 -0.00000000000E+00 -0.84319136123E+03  0.84319136123E+03  0.00000000000E+00 0.  1.
          6    1    1    2  502    0  0.15188086978E+02  0.11994592672E+02 -0.76123030716E+03  0.78088099527E+03  0.17300000000E+03 0. -1.
         -6    1    1    2    0  501 -0.15188086978E+02 -0.11994592672E+02  0.32886990361E+02  0.17715841040E+03  0.17300000000E+03 0. -1.
</event>
<event>
 4    1  0.1082663E+000  0.1000000E+03  0.7546771E-02  0.1280296E+00
          1   -1    0    0  502    0  0.00000000000E+00  0.00000000000E+00  0.49997369131E+03  0.49997369131E+03  0.00000000000E+00 0. -1.
         -1   -1    0    0    0  501 -0.00000000000E+00 -0.00000000000E+00 -0.74371246932E+02  0.74371246932E+02  0.00000000000E+00 0.  1.
          6    1    1    2  502    0 -0.30667213926E+02 -0.27009863716E+02  0.32409346951E+03  0.36964251342E+03  0.17300000000E+03 0. -1.
         -6    1    1    2    0  501  0.30667213926E+02  0.27009863716E+02  0.10150897486E+03  0.20470242481E+03  0.17300000000E+03 0. -1.
</event>
<event>
 4    1  0.1082663E+000  0.1000000E+03  0.7546771E-02  0.1280296E+00
         -2   -1    0    0    0  501 -0.00000000000E+00  0.00000000000E+00  0.30059561735E+03  0.30059561735E+03  0.00000000000E+00 0. -1.
          2   -1    0    0  502    0  0.00000000000E+00 -0.00000000000E+00 -0.57252419459E+03  0.57252419459E+03  0.00000000000E+00 0.  1.
          6    1    1    2  502    0 -0.15167087188E+03  0.12802901900E+03  0.20139818256E+03  0.33149013714E+03  0.17300000000E+03 0.  1.
         -6    1    1    2    0  501  0.15167087188E+03 -0.12802901900E+03 -0.47332675979E+03  0.54162967480E+03  0.17300000000E+03 0. -1.
</event>
<event>
 4    1  0.1082663E+000  0.1000000E+03  0.7546771E-02  0.1280296E+00
         -1   -1    0    0    0  501 -0.00000000000E+00  0.00000000000E+00  0.11932775141E+02  0.11932775141E+02  0.00000000000E+00 0. -1.
          1   -1    0    0  502    0  0.00000000000E+00 -0.00000000000E+00 -0.30440774792E+04  0.30440774792E+04  0.00000000000E+00 0.  1.
          6    1    1    2  502    0  0.47624428656E+02 -0.16474275647E+02 -0.20139053882E+04  0.20219503951E+04  0.17300000000E+03 0.  1.
         -6    1    1    2    0  501 -0.47624428656E+02  0.16474275647E+02 -0.10182393159E+04  0.10340598592E+04  0.17300000000E+03 0. -1.
</event>
<event>
 4    1  0.1082663E+000  0.1000000E+03  0.7546771E-02  0.1280296E+00
         -1   -1    0    0    0  501 -0.00000000000E+00  0.00000000000E+00  0.60223685236E+02  0.60223685236E+02  0.00000000000E+00 0. -1.
          1   -1    0    0  502    0  0.00000000000E+00 -0.00000000000E+00 -0.10786858158E+04  0.10786858158E+04  0.00000000000E+00 0.  1.
          6    1    1    2  502    0  0.10302607519E+02 -0.14550899912E+03 -0.24720212968E+03  0.33513714426E+03  0.17300000000E+03 0.  1.
         -6    1    1    2    0  501 -0.10302607519E+02  0.14550899912E+03 -0.77126000088E+03  0.80377235677E+03  0.17300000000E+03 0. -1.
</event>
<event>
 4    1  0.1082663E+000  0.1000000E+03  0.7546771E-02  0.1280296E+00
         -1   -1    0    0    0  501 -0.00000000000E+00  0.00000000000E+00  0.56712511224E+02  0.56712511224E+02  0.00000000000E+00 0. -1.
          1   -1    0    0  502    0  0.00000000000E+00 -0.00000000000E+00 -0.90525373541E+03  0.90525373541E+03  0.00000000000E+00 0.  1.
          6    1    1    2  502    0  0.14218419237E+03 -0.28167106159E+02 -0.38178940534E+03  0.44351085721E+03  0.17300000000E+03 0.  1.
         -6    1    1    2    0  501 -0.14218419237E+03  0.28167106159E+02 -0.46675181884E+03  0.51845538943E+03  0.17300000000E+03 0. -1.
</event>
<event>
 4    1  0.1082663E+000  0.1000000E+03  0.7546771E-02  0.1280296E+00
         -1   -1    0    0    0  501 -0.00000000000E+00  0.00000000000E+00  0.10143100889E+03  0.10143100889E+03  0.00000000000E+00 0. -1.
          1   -1    0    0  502    0  0.00000000000E+00 -0.00000000000E+00 -0.71144181190E+03  0.71144181190E+03  0.00000000000E+00 0.  1.
          6    1    1    2  502    0 -0.13131629981E+03  0.60844779171E+02 -0.84257368409E+02  0.24077865744E+03  0.17300000000E+03 0.  1.
         -6    1    1    2    0  501  0.13131629981E+03 -0.60844779171E+02 -0.52575343460E+03  0.57209416336E+03  0.17300000000E+03 0. -1.
</event>
<event>
 4    1  0.1082663E+000  0.1000000E+03  0.7546771E-02  0.1280296E+00
         -2   -1    0    0    0  501 -0.00000000000E+00  0.00000000000E+00  0.91323782939E+02  0.91323782939E+02  0.00000000000E+00 0. -1.
          2   -1    0    0  502    0  0.00000000000E+00 -0.00000000000E+00 -0.58695994611E+03  0.58695994611E+03  0.00000000000E+00 0.  1.
          6    1    1    2  502    0 -0.81654524122E+01  0.52406233879E+02 -0.36247119157E+02  0.18454251979E+03  0.17300000000E+03 0.  1.
         -6    1    1    2    0  501  0.81654524122E+01 -0.52406233879E+02 -0.45938904401E+03  0.49374120926E+03  0.17300000000E+03 0. -1.
</event>
<event>
 4    1  0.1082663E+000  0.1000000E+03  0.7546771E-02  0.1280296E+00
         -1   -1    0    0    0  501 -0.00000000000E+00  0.00000000000E+00  0.34786070097E+02  0.34786070097E+02  0.00000000000E+00 0. -1.
          1   -1    0    0  502    0  0.00000000000E+00 -0.00000000000E+00 -0.14986574200E+04  0.14986574200E+04  0.00000000000E+00 0.  1.
          6    1    1    2  502    0  0.41106597870E+02 -0.11001092589E+03 -0.10399096910E+04  0.10607230183E+04  0.17300000000E+03 0.  1.
         -6    1    1    2    0  501 -0.41106597870E+02  0.11001092589E+03 -0.42396165899E+03  0.47272047184E+03  0.17300000000E+03 0. -1.
</event>
<event>
 4    1  0.1082663E+000  0.1000000E+03  0.7546771E-02  0.1280296E+00
          1   -1    0    0  502    0  0.00000000000E+00  0.00000000000E+00  0.56414842773E+03  0.56414842773E+03  0.00000000000E+00 0.  1.
         -1   -1    0    0    0  501 -0.00000000000E+00 -0.00000000000E+00 -0.13477814222E+03  0.13477814222E+03  0.00000000000E+00 0. -1.
          6    1    1    2  502    0 -0.16913956409E+03 -0.12944977804E+03  0.18019936510E+03  0.32827770006E+03  0.17300000000E+03 0.  1.
         -6    1    1    2    0  501  0.16913956409E+03  0.12944977804E+03  0.24917092041E+03  0.37064886989E+03  0.17300000000E+03 0. -1.
</event>
<event>
 4    1  0.1082663E+000  0.1000000E+03  0.7546771E-02  0.1280296E+00
          1   -1    0    0  502    0  0.00000000000E+00  0.00000000000E+00  0.84342370039E+03  0.84342370039E+03  0.00000000000E+00 0.  1.
         -1   -1    0    0    0  501 -0.00000000000E+00 -0.00000000000E+00 -0.14820103901E+03  0.14820103901E+03  0.00000000000E+00 0. -1.
          6    1    1    2  502    0 -0.12922724989E+03  0.18664838589E+03  0.64020370302E+03  0.70094727578E+03  0.17300000000E+03 0.  1.
         -6    1    1    2    0  501  0.12922724989E+03 -0.18664838589E+03  0.55018958361E+02  0.29067746361E+03  0.17300000000E+03 0. -1.
</event>
<event>
 4    1  0.1082663E+000  0.1000000E+03  0.7546771E-02  0.1280296E+00
         -1   -1    0    0    0  501 -0.00000000000E+00  0.00000000000E+00  0.21117073711E+02  0.21117073711E+02  0.00000000000E+00 0. -1.
          1   -1    0    0  502    0  0.00000000000E+00 -0.00000000000E+00 -0.15249296372E+04  0.15249296372E+04  0.00000000000E+00 0.  1.
          6    1    1    2  502    0 -0.14020628484E+02 -0.44381621480E+02 -0.70739961880E+03  0.72973250375E+03  0.17300000000E+03 0.  1.
         -6    1    1    2    0  501  0.14020628484E+02  0.44381621480E+02 -0.79641294474E+03  0.81631420721E+03  0.17300000000E+03 0. -1.
</event>
<event>
 4    1  0.1082663E+000  0.1000000E+03  0.7546771E-02  0.1280296E+00
         -2   -1    0    0    0  501 -0.00000000000E+00  0.00000000000E+00  0.54110797327E+03  0.54110797327E+03  0.00000000000E+00 0. -1.
          2   -1    0    0  502    0  0.00000000000E+00 -0.00000000000E+00 -0.63691226131E+02  0.63691226131E+02  0.00000000000E+00 0.  1.
          6    1    1    2  502    0 -0.17976704636E+02 -0.58348376649E+02  0.19243058299E+03  0.26586881020E+03  0.17300000000E+03 0.  1.
         -6    1    1    2    0  501  0.17976704636E+02  0.58348376649E+02  0.28498616414E+03  0.33893038919E+03  0.17300000000E+03 0. -1.
</event>
<event>
 4    1  0.1082663E+000  0.1000000E+03  0.7546771E-02  0.1280296E+00
         -3   -1    0    0    0  501 -0.00000000000E+00  0.00000000000E+00  0.16019601457E+03  0.16019601457E+03  0.00000000000E+00 0. -1.
          3   -1    0    0  502    0  0.00000000000E+00 -0.00000000000E+00 -0.42911915889E+03  0.42911915889E+03  0.00000000000E+00 0.  1.
          6    1    1    2  502    0 -0.10830382736E+03  0.16406416844E+03 -0.11992065641E+03  0.28802210717E+03  0.17300000000E+03 0. -1.
         -6    1    1    2    0  501  0.10830382736E+03 -0.16406416844E+03 -0.14900248791E+03  0.30129306628E+03  0.17300000000E+03 0.  1.
</event>
<event>
 4    1  0.1082663E+000  0.1000000E+03  0.7546771E-02  0.1280296E+00
         -2   -1    0    0    0  501 -0.00000000000E+00  0.00000000000E+00  0.24188548647E+02  0.24188548647E+02  0.00000000000E+00 0. -1.
          2   -1    0    0  502    0  0.00000000000E+00 -0.00000000000E+00 -0.18461692205E+04  0.18461692205E+04  0.00000000000E+00 0.  1.
          6    1    1    2  502    0 -0.10317841615E+03 -0.53666569651E+02 -0.10643721753E+04  0.10845934786E+04  0.17300000000E+03 0. -1.
         -6    1    1    2    0  501  0.10317841615E+03  0.53666569651E+02 -0.75760849656E+03  0.78576429056E+03  0.17300000000E+03 0.  1.
</event>
<event>
 4    1  0.1082663E+000  0.1000000E+03  0.7546771E-02  0.1280296E+00
         -1   -1    0    0    0  501 -0.00000000000E+00  0.00000000000E+00  0.21929476284E+04  0.21929476284E+04  0.00000000000E+00 0.  1.
          1   -1    0    0  502    0  0.00000000000E+00 -0.00000000000E+00 -0.17425919794E+02  0.17425919794E+02  0.00000000000E+00 0. -1.
          6    1    1    2  502    0 -0.19548692954E+02 -0.83135373314E+02  0.12657802733E+04  0.12803992900E+04  0.17300000000E+03 0.  1.
         -6    1    1    2    0  501  0.19548692954E+02  0.83135373314E+02  0.90974143532E+03  0.92997425815E+03  0.17300000000E+03 0. -1.
</event>
<event>
 4    1  0.1082663E+000  0.1000000E+03  0.7546771E-02  0.1280296E+00
         -1   -1    0    0    0  501 -0.00000000000E+00  0.00000000000E+00  0.20047328846E+02  0.20047328846E+02  0.00000000000E+00 0. -1.
          1   -1    0    0  502    0  0.00000000000E+00 -0.00000000000E+00 -0.18793009156E+04  0.18793009156E+04  0.00000000000E+00 0.  1.
          6    1    1    2  502    0  0.60048656732E+02 -0.10665918633E+02 -0.61916761027E+03  0.64576863706E+03  0.17300000000E+03 0.  1.
         -6    1    1    2    0  501 -0.60048656732E+02  0.10665918633E+02 -0.12400859765E+04  0.12535796074E+04  0.17300000000E+03 0. -1.
</event>
<event>
 4    1  0.1082663E+000  0.1000000E+03  0.7546771E-02  0.1280296E+00
         -2   -1    0    0    0  501 -0.00000000000E+00  0.00000000000E+00  0.10506245869E+03  0.10506245869E+03  0.00000000000E+00 0. -1.
          2   -1    0    0  502    0  0.00000000000E+00 -0.00000000000E+00 -0.83715617129E+03  0.83715617129E+03  0.00000000000E+00 0.  1.
          6    1    1    2  502    0  0.13050629080E+03 -0.14390429704E+02 -0.68685743402E+03  0.72037567358E+03  0.17300000000E+03 0.  1.
         -6    1    1    2    0  501 -0.13050629080E+03  0.14390429704E+02 -0.45236278577E+02  0.22184295640E+03  0.17300000000E+03 0. -1.
</event>
<event>
 4    1  0.1082663E+000  0.1000000E+03  0.7546771E-02  0.1280296E+00
          2   -1    0    0  502    0  0.00000000000E+00  0.00000000000E+00  0.20004614842E+04  0.20004614842E+04  0.00000000000E+00 0.  1.
         -2   -1    0    0    0  501 -0.00000000000E+00 -0.00000000000E+00 -0.17747819124E+02  0.17747819124E+02  0.00000000000E+00 0. -1.
          6    1    1    2  502    0 -0.34299448742E+02 -0.66312124692E+02  0.99691860276E+03  0.10145686032E+04  0.17300000000E+03 0.  1.
         -6    1    1    2    0  501  0.34299448742E+02  0.66312124692E+02  0.98579506232E+03  0.10036407001E+04  0.17300000000E+03 0. -1.
</event>
<event>
 4    1  0.1082663E+000  0.1000000E+03  0.7546771E-02  0.1280296E+00
          2   -1    0    0  502    0  0.00000000000E+00  0.00000000000E+00  0.29537624165E+03  0.29537624165E+03  0.00000000000E+00 0. -1.
         -2   -1    0    0    0  501 -0.00000000000E+00 -0.00000000000E+00 -0.18230478698E+03  0.18230478698E+03  0.00000000000E+00 0.  1.
          6    1    1    2  502    0 -0.30304409644E+02 -0.14258876896E+03  0.33563380589E+01  0.22625246802E+03  0.17300000000E+03 0.  1.
         -6    1    1    2    0  501  0.30304409644E+02  0.14258876896E+03  0.10971511661E+03  0.25142856061E+03  0.17300000000E+03 0. -1.
</event>
<event>
 4    1  0.1082663E+000  0.1000000E+03  0.7546771E-02  0.1280296E+00
          2   -1    0    0  502    0  0.00000000000E+00  0.00000000000E+00  0.22727310333E+03  0.22727310333E+03  0.00000000000E+00 0. -1.
         -2   -1    0    0    0  501 -0.00000000000E+00 -0.00000000000E+00 -0.27577667645E+03  0.27577667645E+03  0.00000000000E+00 0.  1.
          6    1    1    2  502    0  0.13635078078E+03  0.58216319098E+02  0.79997824737E+02  0.24147324322E+03  0.17300000000E+03 0.  1.
         -6    1    1    2    0  501 -0.13635078078E+03 -0.58216319098E+02 -0.12850139786E+03  0.26157653656E+03  0.17300000000E+03 0. -1.
</event>
<event>
 4    1  0.1082663E+000  0.1000000E+03  0.7546771E-02  0.1280296E+00
         -1   -1    0    0    0  501 -0.00000000000E+00  0.00000000000E+00  0.82079753235E+02  0.82079753235E+02  0.00000000000E+00 0.  1.
          1   -1    0    0  502    0  0.00000000000E+00 -0.00000000000E+00 -0.79350841856E+03  0.79350841856E+03  0.00000000000E+00 0. -1.
          6    1    1    2  502    0 -0.14794394932E+03  0.11525296508E+03 -0.36531423416E+03  0.44559415142E+03  0.17300000000E+03 0. -1.
         -6    1    1    2    0  501  0.14794394932E+03 -0.11525296508E+03 -0.34611443116E+03  0.42999402037E+03  0.17300000000E+03 0.  1.
</event>
<event>
 4    1  0.1082663E+000  0.1000000E+03  0.7546771E-02  0.1280296E+00
         -1   -1    0    0    0  501 -0.00000000000E+00  0.00000000000E+00  0.43047445907E+02  0.43047445907E+02  0.00000000000E+00 0.  1.
          1   -1    0    0  502    0  0.00000000000E+00 -0.00000000000E+00 -0.22105893404E+04  0.22105893404E+04  0.00000000000E+00 0. -1.
          6    1    1    2  502    0  0.92303289957E+02  0.61808755818E+02 -0.24369778893E+03  0.31883825360E+03  0.17300000000E+03 0. -1.
         -6    1    1    2    0  501 -0.92303289957E+02 -0.61808755818E+02 -0.19238441056E+04  0.19347985327E+04  0.17300000000E+03 0. -1.
</event>
<event>
 4    1  0.1082663E+000  0.1000000E+03  0.7546771E-02  0.1280296E+00
         -2   -1    0    0    0  501 -0.00000000000E+00  0.00000000000E+00  0.54206062279E+02  0.54206062279E+02  0.00000000000E+00 0.  1.
          2   -1    0    0  502    0  0.00000000000E+00 -0.00000000000E+00 -0.71152149641E+03  0.71152149641E+03  0.00000000000E+00 0. -1.
          6    1    1    2  502    0 -0.48579467409E+02 -0.75739498683E+02 -0.28321512758E+03  0.34385497641E+03  0.17300000000E+03 0. -1.
         -6    1    1    2    0  501  0.48579467409E+02  0.75739498683E+02 -0.37410030656E+03  0.42187258228E+03  0.17300000000E+03 0.  1.
</event>
<event>
 4    1  0.1082663E+000  0.1000000E+03  0.7546771E-02  0.1280296E+00
         -2   -1    0    0    0  501 -0.00000000000E+00  0.00000000000E+00  0.58175703370E+02  0.58175703370E+02  0.00000000000E+00 0.  1.
          2   -1    0    0  502    0  0.00000000000E+00 -0.00000000000E+00 -0.68316195949E+03  0.68316195949E+03  0.00000000000E+00 0. -1.
          6    1    1    2  502    0 -0.87646085433E+02  0.25838289567E+02 -0.24132781410E+03  0.31067276572E+03  0.17300000000E+03 0. -1.
         -6    1    1    2    0  501  0.87646085433E+02 -0.25838289567E+02 -0.38365844202E+03  0.43066489714E+03  0.17300000000E+03 0.  1.
</event>
<event>
 4    1  0.1082663E+000  0.1000000E+03  0.7546771E-02  0.1280296E+00
         -2   -1    0    0    0  501 -0.00000000000E+00  0.00000000000E+00  0.13495438555E+02  0.13495438555E+02  0.00000000000E+00 0.  1.
          2   -1    0    0  502    0  0.00000000000E+00 -0.00000000000E+00 -0.34289756990E+04  0.34289756990E+04  0.00000000000E+00 0. -1.
          6    1    1    2  502    0 -0.99255188786E+02 -0.28350083009E+02 -0.23113647661E+04  0.23201274538E+04  0.17300000000E+03 0. -1.
         -6    1    1    2    0  501  0.99255188786E+02  0.28350083009E+02 -0.11041154943E+04  0.11223436838E+04  0.17300000000E+03 0.  1.
</event>
<event>
 4    1  0.1082663E+000  0.1000000E+03  0.7546771E-02  0.1280296E+00
         -1   -1    0    0    0  501 -0.00000000000E+00  0.00000000000E+00  0.13758661154E+03  0.13758661154E+03  0.00000000000E+00 0. -1.
          1   -1    0    0  502    0  0.00000000000E+00 -0.00000000000E+00 -0.53753201646E+03  0.53753201646E+03  0.00000000000E+00 0.  1.
          6    1    1    2  502    0  0.13580181579E+03  0.14782145995E+03 -0.27583025687E+03  0.38249790561E+03  0.17300000000E+03 0.  1.
         -6    1    1    2    0  501 -0.13580181579E+03 -0.14782145995E+03 -0.12411514805E+03  0.29262072239E+03  0.17300000000E+03 0. -1.
</event>
<event>
 4    1  0.1082663E+000  0.1000000E+03  0.7546771E-02  0.1280296E+00
         -2   -1    0    0    0  501 -0.00000000000E+00  0.00000000000E+00  0.30606046685E+02  0.30606046685E+02  0.00000000000E+00 0. -1.
          2   -1    0    0  502    0  0.00000000000E+00 -0.00000000000E+00 -0.10561012727E+04  0.10561012727E+04  0.00000000000E+00 0.  1.
          6    1    1    2  502    0  0.37268634834E+02 -0.22974838063E+02 -0.44672121526E+03  0.48104639952E+03  0.17300000000E+03 0.  1.
         -6    1    1    2    0  501 -0.37268634834E+02  0.22974838063E+02 -0.57877401072E+03  0.60566091983E+03  0.17300000000E+03 0. -1.
</event>
<event>
 4    1  0.1082663E+000  0.1000000E+03  0.7546771E-02  0.1280296E+00
         -1   -1    0    0    0  501 -0.00000000000E+00  0.00000000000E+00  0.16917960996E+03  0.16917960996E+03  0.00000000000E+00 0.  1.
          1   -1    0    0  502    0  0.00000000000E+00 -0.00000000000E+00 -0.56548569239E+03  0.56548569239E+03  0.00000000000E+00 0. -1.
          6    1    1    2  502    0 -0.14211115855E+03 -0.42621821156E+02 -0.44649595841E+03  0.50129815669E+03  0.17300000000E+03 0. -1.
         -6    1    1    2    0  501  0.14211115855E+03  0.42621821156E+02  0.50189875976E+02  0.23336714566E+03  0.17300000000E+03 0.  1.
</event>
<event>
 4    1  0.1082663E+000  0.1000000E+03  0.7546771E-02  0.1280296E+00
         -2   -1    0    0    0  501 -0.00000000000E+00  0.00000000000E+00  0.12941026953E+03  0.12941026953E+03  0.00000000000E+00 0.  1.
          2   -1    0    0  502    0  0.00000000000E+00 -0.00000000000E+00 -0.19677669652E+04  0.19677669652E+04  0.00000000000E+00 0. -1.
          6    1    1    2  502    0 -0.46319901455E+03 -0.10005239330E+03 -0.94516884489E+03  0.10713715293E+04  0.17300000000E+03 0. -1.
         -6    1    1    2    0  501  0.46319901455E+03  0.10005239330E+03 -0.89318785078E+03  0.10258057054E+04  0.17300000000E+03 0.  1.
</event>
<event>
 4    1  0.1082663E+000  0.1000000E+03  0.7546771E-02  0.1280296E+00
          2   -1    0    0  502    0  0.00000000000E+00  0.00000000000E+00  0.47873918961E+03  0.47873918961E+03  0.00000000000E+00 0. -1.
         -2   -1    0    0    0  501 -0.00000000000E+00 -0.00000000000E+00 -0.64619239344E+02  0.64619239344E+02  0.00000000000E+00 0.  1.
          6    1    1    2  502    0 -0.29639446758E+02 -0.28567580906E+01  0.22398796819E+03  0.28458086332E+03  0.17300000000E+03 0.  1.
         -6    1    1    2    0  501  0.29639446758E+02  0.28567580906E+01  0.19013198208E+03  0.25877756564E+03  0.17300000000E+03 0. -1.
</event>
<event>
 4    1  0.1082663E+000  0.1000000E+03  0.7546771E-02  0.1280296E+00
         -2   -1    0    0    0  501 -0.00000000000E+00  0.00000000000E+00  0.24816217315E+03  0.24816217315E+03  0.00000000000E+00 0. -1.
          2   -1    0    0  502    0  0.00000000000E+00 -0.00000000000E+00 -0.21977025696E+03  0.21977025696E+03  0.00000000000E+00 0.  1.
          6    1    1    2  502    0 -0.12893585863E+03  0.62075793565E+01 -0.75112711981E+02  0.22854738936E+03  0.17300000000E+03 0.  1.
         -6    1    1    2    0  501  0.12893585863E+03 -0.62075793565E+01  0.10350462818E+03  0.23938504075E+03  0.17300000000E+03 0. -1.
</event>
<event>
 4    1  0.1082663E+000  0.1000000E+03  0.7546771E-02  0.1280296E+00
         -2   -1    0    0    0  501 -0.00000000000E+00  0.00000000000E+00  0.44732424389E+02  0.44732424389E+02  0.00000000000E+00 0. -1.
          2   -1    0    0  502    0  0.00000000000E+00 -0.00000000000E+00 -0.90631191378E+03  0.90631191378E+03  0.00000000000E+00 0.  1.
          6    1    1    2  502    0  0.59306006004E+02 -0.84211461818E+02 -0.43536708052E+03  0.47966891441E+03  0.17300000000E+03 0.  1.
         -6    1    1    2    0  501 -0.59306006004E+02  0.84211461818E+02 -0.42621240887E+03  0.47137542376E+03  0.17300000000E+03 0. -1.
</event>
<event>
 4    1  0.1082663E+000  0.1000000E+03  0.7546771E-02  0.1280296E+00
          1   -1    0    0  502    0  0.00000000000E+00  0.00000000000E+00  0.11338058095E+03  0.11338058095E+03  0.00000000000E+00 0.  1.
         -1   -1    0    0    0  501 -0.00000000000E+00 -0.00000000000E+00 -0.11156568277E+04  0.11156568277E+04  0.00000000000E+00 0. -1.
          6    1    1    2  502    0 -0.18678668356E+02 -0.49883725985E+02  0.27835557047E+02  0.18314228623E+03  0.17300000000E+03 0.  1.
         -6    1    1    2    0  501  0.18678668356E+02  0.49883725985E+02 -0.10301118038E+04  0.10458951224E+04  0.17300000000E+03 0. -1.
</event>
<event>
 4    1  0.1082663E+000  0.1000000E+03  0.7546771E-02  0.1280296E+00
          1   -1    0    0  502    0  0.00000000000E+00  0.00000000000E+00  0.12844424702E+04  0.12844424702E+04  0.00000000000E+00 0.  1.
         -1   -1    0    0    0  501 -0.00000000000E+00 -0.00000000000E+00 -0.25497607684E+02  0.25497607684E+02  0.00000000000E+00 0. -1.
          6    1    1    2  502    0 -0.22365108485E+02  0.46456882052E+02  0.67564689695E+03  0.69934695919E+03  0.17300000000E+03 0.  1.
         -6    1    1    2    0  501  0.22365108485E+02 -0.46456882052E+02  0.58329796559E+03  0.61059311872E+03  0.17300000000E+03 0. -1.
</event>
<event>
 4    1  0.1082663E+000  0.1000000E+03  0.7546771E-02  0.1280296E+00
          2   -1    0    0  502    0  0.00000000000E+00  0.00000000000E+00  0.26016032141E+03  0.26016032141E+03  0.00000000000E+00 0. -1.
         -2   -1    0    0    0  501 -0.00000000000E+00 -0.00000000000E+00 -0.15467261608E+03  0.15467261608E+03  0.00000000000E+00 0.  1.
          6    1    1    2  502    0 -0.85873202496E+02 -0.51212111704E+02  0.34427639334E+02  0.20275884603E+03  0.17300000000E+03 0. -1.
         -6    1    1    2    0  501  0.85873202496E+02  0.51212111704E+02  0.71060065994E+02  0.21207409147E+03  0.17300000000E+03 0.  1.
</event>
<event>
 4    1  0.1082663E+000  0.1000000E+03  0.7546771E-02  0.1280296E+00
          2   -1    0    0  502    0  0.00000000000E+00  0.00000000000E+00  0.10843645807E+04  0.10843645807E+04  0.00000000000E+00 0.  1.
         -2   -1    0    0    0  501 -0.00000000000E+00 -0.00000000000E+00 -0.32385982029E+02  0.32385982029E+02  0.00000000000E+00 0. -1.
          6    1    1    2  502    0  0.60316071046E+02 -0.11016813913E+02  0.63865705411E+03  0.66450826284E+03  0.17300000000E+03 0.  1.
         -6    1    1    2    0  501 -0.60316071046E+02  0.11016813913E+02  0.41332154459E+03  0.45224229992E+03  0.17300000000E+03 0. -1.
</event>
<event>
 4    1  0.1082663E+000  0.1000000E+03  0.7546771E-02  0.1280296E+00
          1   -1    0    0  502    0  0.00000000000E+00  0.00000000000E+00  0.82756466742E+03  0.82756466742E+03  0.00000000000E+00 0.  1.
         -1   -1    0    0    0  501 -0.00000000000E+00 -0.00000000000E+00 -0.94973846049E+02  0.94973846049E+02  0.00000000000E+00 0. -1.
          6    1    1    2  502    0  0.51916998688E+02  0.17471683907E+03  0.57078381704E+03  0.62365416250E+03  0.17300000000E+03 0.  1.
         -6    1    1    2    0  501 -0.51916998688E+02 -0.17471683907E+03  0.16180700433E+03  0.29888435097E+03  0.17300000000E+03 0. -1.
</event>
<event>
 4    1  0.1082663E+000  0.1000000E+03  0.7546771E-02  0.1280296E+00
          2   -1    0    0  502    0  0.00000000000E+00  0.00000000000E+00  0.28341046553E+04  0.28341046553E+04  0.00000000000E+00 0.  1.
         -2   -1    0    0    0  501 -0.00000000000E+00 -0.00000000000E+00 -0.35619339437E+02  0.35619339437E+02  0.00000000000E+00 0. -1.
          6    1    1    2  502    0 -0.95905818042E+02 -0.56064476629E+02  0.30528675858E+03  0.36806270721E+03  0.17300000000E+03 0.  1.
         -6    1    1    2    0  501  0.95905818042E+02  0.56064476629E+02  0.24931985572E+04  0.25016612875E+04  0.17300000000E+03 0. -1.
</event>
<event>
 4    1  0.1082663E+000  0.1000000E+03  0.7546771E-02  0.1280296E+00
         -1   -1    0    0    0  501 -0.00000000000E+00  0.00000000000E+00  0.19977802599E+03  0.19977802599E+03  0.00000000000E+00 0. -1.
          1   -1    0    0  502    0  0.00000000000E+00 -0.00000000000E+00 -0.22287194646E+03  0.22287194646E+03  0.00000000000E+00 0.  1.
          6    1    1    2  502    0 -0.15713265148E+02  0.10069259750E+03  0.53434719709E+02  0.20777433712E+03  0.17300000000E+03 0.  1.
         -6    1    1    2    0  501  0.15713265148E+02 -0.10069259750E+03 -0.76528640176E+02  0.21487563534E+03  0.17300000000E+03 0. -1.
</event>
<event>
 4    1  0.1082663E+000  0.1000000E+03  0.7546771E-02  0.1280296E+00
         -2   -1    0    0    0  501 -0.00000000000E+00  0.00000000000E+00  0.25954960176E+02  0.25954960176E+02  0.00000000000E+00 0. -1.
          2   -1    0    0  502    0  0.00000000000E+00 -0.00000000000E+00 -0.21661792614E+04  0.21661792614E+04  0.00000000000E+00 0.  1.
          6    1    1    2  502    0  0.40142189282E+02 -0.47036438892E+02 -0.37719078103E+03  0.41955417676E+03  0.17300000000E+03 0.  1.
         -6    1    1    2    0  501 -0.40142189282E+02  0.47036438892E+02 -0.17630335202E+04  0.17725800448E+04  0.17300000000E+03 0. -1.
</event>
<event>
 4    1  0.1082663E+000  0.1000000E+03  0.7546771E-02  0.1280296E+00
          2   -1    0    0  502    0  0.00000000000E+00  0.00000000000E+00  0.23395099984E+04  0.23395099984E+04  0.00000000000E+00 0.  1.
         -2   -1    0    0    0  501 -0.00000000000E+00 -0.00000000000E+00 -0.13946071209E+02  0.13946071209E+02  0.00000000000E+00 0. -1.
          6    1    1    2  502    0  0.30930190623E+02  0.32901349624E+02  0.99557140793E+03  0.10114991862E+04  0.17300000000E+03 0.  1.
         -6    1    1    2    0  501 -0.30930190623E+02 -0.32901349624E+02  0.13299925193E+04  0.13419568834E+04  0.17300000000E+03 0. -1.
</event>
<event>
 4    1  0.1082663E+000  0.1000000E+03  0.7546771E-02  0.1280296E+00
          2   -1    0    0  502    0  0.00000000000E+00  0.00000000000E+00  0.34940437495E+03  0.34940437495E+03  0.00000000000E+00 0.  1.
         -2   -1    0    0    0  501 -0.00000000000E+00 -0.00000000000E+00 -0.11490951784E+03  0.11490951784E+03  0.00000000000E+00 0. -1.
          6    1    1    2  502    0  0.75855109566E+02  0.46106135761E+02  0.17330714188E+03  0.26046907461E+03  0.17300000000E+03 0.  1.
         -6    1    1    2    0  501 -0.75855109566E+02 -0.46106135761E+02  0.61187715231E+02  0.20384481818E+03  0.17300000000E+03 0. -1.
</event>
<event>
 4    1  0.1082663E+000  0.1000000E+03  0.7546771E-02  0.1280296E+00
          4   -1    0    0  502    0  0.00000000000E+00  0.00000000000E+00  0.13793554605E+03  0.13793554605E+03  0.00000000000E+00 0.  1.
         -4   -1    0    0    0  501 -0.00000000000E+00 -0.00000000000E+00 -0.75673550870E+03  0.75673550870E+03  0.00000000000E+00 0. -1.
          6    1    1    2  502    0 -0.20975012565E+03  0.15095377213E+03 -0.43065751123E+03  0.53120339655E+03  0.17300000000E+03 0.  1.
         -6    1    1    2    0  501  0.20975012565E+03 -0.15095377213E+03 -0.18814245143E+03  0.36346765820E+03  0.17300000000E+03 0. -1.
</event>
<event>
 4    1  0.1082663E+000  0.1000000E+03  0.7546771E-02  0.1280296E+00
          1   -1    0    0  502    0  0.00000000000E+00  0.00000000000E+00  0.13003677034E+04  0.13003677034E+04  0.00000000000E+00 0.  1.
         -1   -1    0    0    0  501 -0.00000000000E+00 -0.00000000000E+00 -0.27466638020E+02  0.27466638020E+02  0.00000000000E+00 0. -1.
          6    1    1    2  502    0  0.61946573485E+02 -0.41917103231E+02  0.58760752443E+03  0.61709482600E+03  0.17300000000E+03 0.  1.
         -6    1    1    2    0  501 -0.61946573485E+02  0.41917103231E+02  0.68529354092E+03  0.71073951539E+03  0.17300000000E+03 0. -1.
</event>
<event>
 4    1  0.1082663E+000  0.1000000E+03  0.7546771E-02  0.1280296E+00
          2   -1    0    0  502    0  0.00000000000E+00  0.00000000000E+00  0.13092473339E+03  0.13092473339E+03  0.00000000000E+00 0.  1.
         -2   -1    0    0    0  501 -0.00000000000E+00 -0.00000000000E+00 -0.33452607873E+03  0.33452607873E+03  0.00000000000E+00 0. -1.
          6    1    1    2  502    0 -0.42253405668E+02 -0.67740881041E+02 -0.55306575255E+01  0.19061417950E+03  0.17300000000E+03 0.  1.
         -6    1    1    2    0  501  0.42253405668E+02  0.67740881041E+02 -0.19807068782E+03  0.27483663262E+03  0.17300000000E+03 0. -1.
</event>
<event>
 4    1  0.1082663E+000  0.1000000E+03  0.7546771E-02  0.1280296E+00
          2   -1    0    0  502    0  0.00000000000E+00  0.00000000000E+00  0.90908348922E+03  0.90908348922E+03  0.00000000000E+00 0.  1.
         -2   -1    0    0    0  501 -0.00000000000E+00 -0.00000000000E+00 -0.11107337423E+03  0.11107337423E+03  0.00000000000E+00 0. -1.
          6    1    1    2  502    0 -0.13088115467E+03  0.44225936715E+02  0.76490752168E+03  0.79630291149E+03  0.17300000000E+03 0.  1.
         -6    1    1    2    0  501  0.13088115467E+03 -0.44225936715E+02  0.33102593306E+02  0.22385395196E+03  0.17300000000E+03 0. -1.
</event>
<event>
 4    1  0.1082663E+000  0.1000000E+03  0.7546771E-02  0.1280296E+00
          2   -1    0    0  502    0  0.00000000000E+00  0.00000000000E+00  0.23265819908E+04  0.23265819908E+04  0.00000000000E+00 0.  1.
         -2   -1    0    0    0  501 -0.00000000000E+00 -0.00000000000E+00 -0.88741698239E+02  0.88741698239E+02  0.00000000000E+00 0. -1.
          6    1    1    2  502    0  0.22326637283E+03 -0.35590184036E+03  0.11064983081E+04  0.11961527908E+04  0.17300000000E+03 0.  1.
         -6    1    1    2    0  501 -0.22326637283E+03  0.35590184036E+03  0.11313419845E+04  0.12191708982E+04  0.17300000000E+03 0. -1.
</event>
<event>
 4    1  0.1082663E+000  0.1000000E+03  0.7546771E-02  0.1280296E+00
         -1   -1    0    0    0  501 -0.00000000000E+00  0.00000000000E+00  0.15002323865E+03  0.15002323865E+03  0.00000000000E+00 0.  1.
          1   -1    0    0  502    0  0.00000000000E+00 -0.00000000000E+00 -0.94493525691E+03  0.94493525691E+03  0.00000000000E+00 0. -1.
          6    1    1    2  502    0  0.26619790613E+03  0.50928005563E+02 -0.68231505183E+03  0.75427966758E+03  0.17300000000E+03 0. -1.
         -6    1    1    2    0  501 -0.26619790613E+03 -0.50928005563E+02 -0.11259696643E+03  0.34067882798E+03  0.17300000000E+03 0.  1.
</event>
<event>
 4    1  0.1082663E+000  0.1000000E+03  0.7546771E-02  0.1280296E+00
         -1   -1    0    0    0  501 -0.00000000000E+00  0.00000000000E+00  0.88062423702E+02  0.88062423702E+02  0.00000000000E+00 0.  1.
          1   -1    0    0  502    0  0.00000000000E+00 -0.00000000000E+00 -0.85567126694E+03  0.85567126694E+03  0.00000000000E+00 0. -1.
          6    1    1    2  502    0 -0.97124666402E+02 -0.87120594869E+02 -0.94115401365E+02  0.23624120650E+03  0.17300000000E+03 0. -1.
         -6    1    1    2    0  501  0.97124666402E+02  0.87120594869E+02 -0.67349344187E+03  0.70749248414E+03  0.17300000000E+03 0.  1.
</event>
<event>
 4    1  0.1082663E+000  0.1000000E+03  0.7546771E-02  0.1280296E+00
         -1   -1    0    0    0  501 -0.00000000000E+00  0.00000000000E+00  0.36292840817E+03  0.36292840817E+03  0.00000000000E+00 0. -1.
          1   -1    0    0  502    0  0.00000000000E+00 -0.00000000000E+00 -0.12290805244E+03  0.12290805244E+03  0.00000000000E+00 0.  1.
          6    1    1    2  502    0 -0.50100810198E+02  0.59973677405E+01  0.24669408193E+03  0.30550454933E+03  0.17300000000E+03 0. -1.
         -6    1    1    2    0  501  0.50100810198E+02 -0.59973677405E+01 -0.66737262035E+01  0.18033191127E+03  0.17300000000E+03 0.  1.
</event>
<event>
 4    1  0.1082663E+000  0.1000000E+03  0.7546771E-02  0.1280296E+00
         -1   -1    0    0    0  501 -0.00000000000E+00  0.00000000000E+00  0.14540825301E+02  0.14540825301E+02  0.00000000000E+00 0. -1.
          1   -1    0    0  502    0  0.00000000000E+00 -0.00000000000E+00 -0.21695076673E+04  0.21695076673E+04  0.00000000000E+00 0.  1.
          6    1    1    2  502    0  0.15904801499E+02  0.34157081332E+02 -0.11639463113E+04  0.11773358418E+04  0.17300000000E+03 0. -1.
         -6    1    1    2    0  501 -0.15904801499E+02 -0.34157081332E+02 -0.99102053074E+03  0.10067126508E+04  0.17300000000E+03 0.  1.
</event>
<event>
 4    1  0.1082663E+000  0.1000000E+03  0.7546771E-02  0.1280296E+00
         -2   -1    0    0    0  501 -0.00000000000E+00  0.00000000000E+00  0.38400373000E+02  0.38400373000E+02  0.00000000000E+00 0.  1.
          2   -1    0    0  502    0  0.00000000000E+00 -0.00000000000E+00 -0.15322103225E+04  0.15322103225E+04  0.00000000000E+00 0. -1.
          6    1    1    2  502    0 -0.13714758157E+03 -0.60099848014E+02 -0.10076604830E+04  0.10333102631E+04  0.17300000000E+03 0. -1.
         -6    1    1    2    0  501  0.13714758157E+03  0.60099848014E+02 -0.48614946650E+03  0.53730043238E+03  0.17300000000E+03 0.  1.
</event>
<event>
 4    1  0.1082663E+000  0.1000000E+03  0.7546771E-02  0.1280296E+00
         -1   -1    0    0    0  501 -0.00000000000E+00  0.00000000000E+00  0.16437716818E+03  0.16437716818E+03  0.00000000000E+00 0. -1.
          1   -1    0    0  502    0  0.00000000000E+00 -0.00000000000E+00 -0.52263459175E+03  0.52263459175E+03  0.00000000000E+00 0.  1.
          6    1    1    2  502    0 -0.11407992647E+02  0.23166034234E+02 -0.45476061126E+03  0.48724020872E+03  0.17300000000E+03 0.  1.
         -6    1    1    2    0  501  0.11407992647E+02 -0.23166034234E+02  0.96503187696E+02  0.19977155121E+03  0.17300000000E+03 0. -1.
</event>
<event>
 4    1  0.1082663E+000  0.1000000E+03  0.7546771E-02  0.1280296E+00
         -1   -1    0    0    0  501 -0.00000000000E+00  0.00000000000E+00  0.46134951702E+02  0.46134951702E+02  0.00000000000E+00 0.  1.
          1   -1    0    0  502    0  0.00000000000E+00 -0.00000000000E+00 -0.39642473640E+04  0.39642473640E+04  0.00000000000E+00 0. -1.
          6    1    1    2  502    0  0.19974088499E+03  0.32185883991E+03 -0.24153843395E+04  0.24510202043E+04  0.17300000000E+03 0. -1.
         -6    1    1    2    0  501 -0.19974088499E+03 -0.32185883991E+03 -0.15027280727E+04  0.15593621114E+04  0.17300000000E+03 0.  1.
</event>
<event>
 4    1  0.1082663E+000  0.1000000E+03  0.7546771E-02  0.1280296E+00
          1   -1    0    0  502    0  0.00000000000E+00  0.00000000000E+00  0.56635020979E+03  0.56635020979E+03  0.00000000000E+00 0. -1.
         -1   -1    0    0    0  501 -0.00000000000E+00 -0.00000000000E+00 -0.19464905222E+03  0.19464905222E+03  0.00000000000E+00 0.  1.
          6    1    1    2  502    0  0.20473339997E+02 -0.36584700996E+02 -0.13534293359E+03  0.22361642979E+03  0.17300000000E+03 0. -1.
         -6    1    1    2    0  501 -0.20473339997E+02  0.36584700996E+02  0.50704409115E+03  0.53738283222E+03  0.17300000000E+03 0.  1.
</event>
<event>
 4    1  0.1082663E+000  0.1000000E+03  0.7546771E-02  0.1280296E+00
         -2   -1    0    0    0  501 -0.00000000000E+00  0.00000000000E+00  0.14277287331E+03  0.14277287331E+03  0.00000000000E+00 0. -1.
          2   -1    0    0  502    0  0.00000000000E+00 -0.00000000000E+00 -0.31095071450E+03  0.31095071450E+03  0.00000000000E+00 0.  1.
          6    1    1    2  502    0 -0.68921878564E+01  0.95361984837E+02 -0.16265754256E+03  0.25598415294E+03  0.17300000000E+03 0.  1.
         -6    1    1    2    0  501  0.68921878564E+01 -0.95361984837E+02 -0.55202986311E+01  0.19773943487E+03  0.17300000000E+03 0. -1.
</event>
<event>
 4    1  0.1082663E+000  0.1000000E+03  0.7546771E-02  0.1280296E+00
          1   -1    0    0  502    0  0.00000000000E+00  0.00000000000E+00  0.38116879452E+03  0.38116879452E+03  0.00000000000E+00 0. -1.
         -1   -1    0    0    0  501 -0.00000000000E+00 -0.00000000000E+00 -0.89311065491E+02  0.89311065491E+02  0.00000000000E+00 0.  1.
          6    1    1    2  502    0 -0.38619271306E+02  0.49299555582E+02  0.12827632255E+03  0.22428934265E+03  0.17300000000E+03 0. -1.
         -6    1    1    2    0  501  0.38619271306E+02 -0.49299555582E+02  0.16358140648E+03  0.24619051737E+03  0.17300000000E+03 0.  1.
</event>
<event>
 4    1  0.1082663E+000  0.1000000E+03  0.7546771E-02  0.1280296E+00
         -1   -1    0    0    0  501 -0.00000000000E+00  0.00000000000E+00  0.33262110422E+03  0.33262110422E+03  0.00000000000E+00 0.  1.
          1   -1    0    0  502    0  0.00000000000E+00 -0.00000000000E+00 -0.10673028825E+03  0.10673028825E+03  0.00000000000E+00 0. -1.
          6    1    1    2  502    0 -0.31961171281E+02 -0.63637630353E+02  0.86862413937E+02  0.20626522591E+03  0.17300000000E+03 0.  1.
         -6    1    1    2    0  501  0.31961171281E+02  0.63637630353E+02  0.13902840203E+03  0.23308616655E+03  0.17300000000E+03 0. -1.
</event>
<event>
 4    1  0.1082663E+000  0.1000000E+03  0.7546771E-02  0.1280296E+00
         -1   -1    0    0    0  501 -0.00000000000E+00  0.00000000000E+00  0.17309393753E+03  0.17309393753E+03  0.00000000000E+00 0.  1.
          1   -1    0    0  502    0  0.00000000000E+00 -0.00000000000E+00 -0.24592442427E+03  0.24592442427E+03  0.00000000000E+00 0. -1.
          6    1    1    2  502    0 -0.58343983172E+02  0.71705187392E+02 -0.10138360889E+03  0.22080147287E+03  0.17300000000E+03 0.  1.
         -6    1    1    2    0  501  0.58343983172E+02 -0.71705187392E+02  0.28553122146E+02  0.19821688893E+03  0.17300000000E+03 0. -1.
</event>
<event>
 4    1  0.1082663E+000  0.1000000E+03  0.7546771E-02  0.1280296E+00
          2   -1    0    0  502    0  0.00000000000E+00  0.00000000000E+00  0.33024801704E+03  0.33024801704E+03  0.00000000000E+00 0. -1.
         -2   -1    0    0    0  501 -0.00000000000E+00 -0.00000000000E+00 -0.15673189196E+03  0.15673189196E+03  0.00000000000E+00 0.  1.
          6    1    1    2  502    0  0.11331436085E+03 -0.58939693966E+02  0.16625457825E+03  0.27181540922E+03  0.17300000000E+03 0.  1.
         -6    1    1    2    0  501 -0.11331436085E+03  0.58939693966E+02  0.72615468291E+01  0.21516449977E+03  0.17300000000E+03 0. -1.
</event>
<event>
 4    1  0.1082663E+000  0.1000000E+03  0.7546771E-02  0.1280296E+00
          2   -1    0    0  502    0  0.00000000000E+00  0.00000000000E+00  0.18905396164E+04  0.18905396164E+04  0.00000000000E+00 0.  1.
         -2   -1    0    0    0  501 -0.00000000000E+00 -0.00000000000E+00 -0.40268724520E+02  0.40268724520E+02  0.00000000000E+00 0. -1.
          6    1    1    2  502    0 -0.18491418353E+03 -0.51329654553E+02  0.12638727960E+04  0.12900121834E+04  0.17300000000E+03 0.  1.
         -6    1    1    2    0  501  0.18491418353E+03  0.51329654553E+02  0.58639809582E+03  0.64079615752E+03  0.17300000000E+03 0. -1.
</event>
<event>
 4    1  0.1082663E+000  0.1000000E+03  0.7546771E-02  0.1280296E+00
          2   -1    0    0  502    0  0.00000000000E+00  0.00000000000E+00  0.93718845257E+03  0.93718845257E+03  0.00000000000E+00 0.  1.
         -2   -1    0    0    0  501 -0.00000000000E+00 -0.00000000000E+00 -0.44011461869E+02  0.44011461869E+02  0.00000000000E+00 0. -1.
          6    1    1    2  502    0 -0.50521695795E+02 -0.52645462882E+01  0.22078321197E+03  0.28505154600E+03  0.17300000000E+03 0.  1.
         -6    1    1    2    0  501  0.50521695795E+02  0.52645462882E+01  0.67239377873E+03  0.69614836843E+03  0.17300000000E+03 0. -1.
</event>
<event>
 4    1  0.1082663E+000  0.1000000E+03  0.7546771E-02  0.1280296E+00
         -1   -1    0    0    0  501 -0.00000000000E+00  0.00000000000E+00  0.39924290631E+02  0.39924290631E+02  0.00000000000E+00 0. -1.
          1   -1    0    0  502    0  0.00000000000E+00 -0.00000000000E+00 -0.23327064018E+04  0.23327064018E+04  0.00000000000E+00 0.  1.
          6    1    1    2  502    0 -0.12955228723E+03 -0.59440288547E+02 -0.19514131169E+04  0.19642451720E+04  0.17300000000E+03 0.  1.
         -6    1    1    2    0  501  0.12955228723E+03  0.59440288547E+02 -0.34136899429E+03  0.40838552042E+03  0.17300000000E+03 0. -1.
</event>
<event>
 4    1  0.1082663E+000  0.1000000E+03  0.7546771E-02  0.1280296E+00
         -1   -1    0    0    0  501 -0.00000000000E+00  0.00000000000E+00  0.17247462584E+03  0.17247462584E+03  0.00000000000E+00 0. -1.
          1   -1    0    0  502    0  0.00000000000E+00 -0.00000000000E+00 -0.89980713751E+03  0.89980713751E+03  0.00000000000E+00 0.  1.
          6    1    1    2  502    0 -0.15474559884E+03 -0.20603207105E+03 -0.33458918846E+02  0.31216007738E+03  0.17300000000E+03 0. -1.
         -6    1    1    2    0  501  0.15474559884E+03  0.20603207105E+03 -0.69387359282E+03  0.76012168596E+03  0.17300000000E+03 0.  1.
</event>
<event>
 4    1  0.1082663E+000  0.1000000E+03  0.7546771E-02  0.1280296E+00
          1   -1    0    0  502    0  0.00000000000E+00  0.00000000000E+00  0.12642749732E+04  0.12642749732E+04  0.00000000000E+00 0. -1.
         -1   -1    0    0    0  501 -0.00000000000E+00 -0.00000000000E+00 -0.31632466138E+02  0.31632466138E+02  0.00000000000E+00 0.  1.
          6    1    1    2  502    0  0.49293985426E+02  0.87362899395E+02  0.61314317492E+03  0.64493079175E+03  0.17300000000E+03 0. -1.
         -6    1    1    2    0  501 -0.49293985426E+02 -0.87362899395E+02  0.61949933218E+03  0.65097664763E+03  0.17300000000E+03 0.  1.
</event>
<event>
 4    1  0.1082663E+000  0.1000000E+03  0.7546771E-02  0.1280296E+00
          2   -1    0    0  502    0  0.00000000000E+00  0.00000000000E+00  0.13330768743E+04  0.13330768743E+04  0.00000000000E+00 0. -1.
         -2   -1    0    0    0  501 -0.00000000000E+00 -0.00000000000E+00 -0.24638475404E+02  0.24638475404E+02  0.00000000000E+00 0.  1.
          6    1    1    2  502    0  0.63669321378E+01 -0.33486722424E+02  0.81109983350E+03  0.83004447972E+03  0.17300000000E+03 0. -1.
         -6    1    1    2    0  501 -0.63669321378E+01  0.33486722424E+02  0.49733856541E+03  0.52767087000E+03  0.17300000000E+03 0.  1.
</event>
<event>
 4    1  0.1082663E+000  0.1000000E+03  0.7546771E-02  0.1280296E+00
          2   -1    0    0  502    0  0.00000000000E+00  0.00000000000E+00  0.19720810200E+04  0.19720810200E+04  0.00000000000E+00 0. -1.
         -2   -1    0    0    0  501 -0.00000000000E+00 -0.00000000000E+00 -0.92351774489E+02  0.92351774489E+02  0.00000000000E+00 0.  1.
          6    1    1    2  502    0 -0.75343987047E+02  0.16118163745E+03  0.17796170142E+04  0.17968366519E+04  0.17300000000E+03 0. -1.
         -6    1    1    2    0  501  0.75343987047E+02 -0.16118163745E+03  0.10011223132E+03  0.26759614253E+03  0.17300000000E+03 0.  1.
</event>
<event>
 4    1  0.1082663E+000  0.1000000E+03  0.7546771E-02  0.1280296E+00
          3   -1    0    0  502    0  0.00000000000E+00  0.00000000000E+00  0.61718510075E+02  0.61718510075E+02  0.00000000000E+00 0. -1.
         -3   -1    0    0    0  501 -0.00000000000E+00 -0.00000000000E+00 -0.63286819668E+03  0.63286819668E+03  0.00000000000E+00 0.  1.
          6    1    1    2  502    0  0.27042993316E+02  0.47928724189E+02 -0.14830498084E+03  0.23441811669E+03  0.17300000000E+03 0. -1.
         -6    1    1    2    0  501 -0.27042993316E+02 -0.47928724189E+02 -0.42284470576E+03  0.46016859006E+03  0.17300000000E+03 0.  1.
</event>
<event>
 4    1  0.1082663E+000  0.1000000E+03  0.7546771E-02  0.1280296E+00
          2   -1    0    0  502    0  0.00000000000E+00  0.00000000000E+00  0.15115678292E+04  0.15115678292E+04  0.00000000000E+00 0. -1.
         -2   -1    0    0    0  501 -0.00000000000E+00 -0.00000000000E+00 -0.42236428581E+02  0.42236428581E+02  0.00000000000E+00 0.  1.
          6    1    1    2  502    0  0.12258386231E+03  0.68780195124E+02  0.36882667072E+03  0.43095200611E+03  0.17300000000E+03 0. -1.
         -6    1    1    2    0  501 -0.12258386231E+03 -0.68780195124E+02  0.11005047299E+04  0.11228522516E+04  0.17300000000E+03 0.  1.
</event>
<event>
 4    1  0.1082663E+000  0.1000000E+03  0.7546771E-02  0.1280296E+00
          2   -1    0    0  502    0  0.00000000000E+00  0.00000000000E+00  0.24132526905E+04  0.24132526905E+04  0.00000000000E+00 0. -1.
         -2   -1    0    0    0  501 -0.00000000000E+00 -0.00000000000E+00 -0.17756868937E+02  0.17756868937E+02  0.00000000000E+00 0.  1.
          6    1    1    2  502    0  0.76632596189E+02  0.62891687838E+02  0.15244070880E+04  0.15373919114E+04  0.17300000000E+03 0. -1.
         -6    1    1    2    0  501 -0.76632596189E+02 -0.62891687838E+02  0.87108873355E+03  0.89361764806E+03  0.17300000000E+03 0.  1.
</event>
<event>
 4    1  0.1082663E+000  0.1000000E+03  0.7546771E-02  0.1280296E+00
         -1   -1    0    0    0  501 -0.00000000000E+00  0.00000000000E+00  0.17702356208E+03  0.17702356208E+03  0.00000000000E+00 0.  1.
          1   -1    0    0  502    0  0.00000000000E+00 -0.00000000000E+00 -0.41115265855E+03  0.41115265855E+03  0.00000000000E+00 0. -1.
          6    1    1    2  502    0 -0.20099673800E+03  0.27495376631E+02 -0.16199699856E+03  0.31197389629E+03  0.17300000000E+03 0. -1.
         -6    1    1    2    0  501  0.20099673800E+03 -0.27495376631E+02 -0.72132097909E+02  0.27620232434E+03  0.17300000000E+03 0.  1.
</event>
<event>
 4    1  0.1082663E+000  0.1000000E+03  0.7546771E-02  0.1280296E+00
          1   -1    0    0  502    0  0.00000000000E+00  0.00000000000E+00  0.39013648998E+04  0.39013648998E+04  0.00000000000E+00 0.  1.
         -1   -1    0    0    0  501 -0.00000000000E+00 -0.00000000000E+00 -0.81542642006E+01  0.81542642006E+01  0.00000000000E+00 0. -1.
          6    1    1    2  502    0 -0.28473294816E+02  0.32018222625E+02  0.18707821576E+04  0.18792527175E+04  0.17300000000E+03 0.  1.
         -6    1    1    2    0  501  0.28473294816E+02 -0.32018222625E+02  0.20224284780E+04  0.20302664465E+04  0.17300000000E+03 0. -1.
</event>
<event>
 4    1  0.1082663E+000  0.1000000E+03  0.7546771E-02  0.1280296E+00
          2   -1    0    0  502    0  0.00000000000E+00  0.00000000000E+00  0.18581120788E+04  0.18581120788E+04  0.00000000000E+00 0.  1.
         -2   -1    0    0    0  501 -0.00000000000E+00 -0.00000000000E+00 -0.39416006002E+02  0.39416006002E+02  0.00000000000E+00 0. -1.
          6    1    1    2  502    0  0.61266974778E+02 -0.13727899583E+03  0.40481628482E+03  0.46519285178E+03  0.17300000000E+03 0.  1.
         -6    1    1    2    0  501 -0.61266974778E+02  0.13727899583E+03  0.14138797879E+04  0.14323352330E+04  0.17300000000E+03 0. -1.
</event>
<event>
 4    1  0.1082663E+000  0.1000000E+03  0.7546771E-02  0.1280296E+00
          2   -1    0    0  502    0  0.00000000000E+00  0.00000000000E+00  0.67244608286E+03  0.67244608286E+03  0.00000000000E+00 0.  1.
         -2   -1    0    0    0  501 -0.00000000000E+00 -0.00000000000E+00 -0.25614546543E+03  0.25614546543E+03  0.00000000000E+00 0. -1.
          6    1    1    2  502    0 -0.30642881617E+03  0.45318206737E+02  0.44903367570E+03  0.57228716669E+03  0.17300000000E+03 0.  1.
         -6    1    1    2    0  501  0.30642881617E+03 -0.45318206737E+02 -0.32733058274E+02  0.35630438159E+03  0.17300000000E+03 0. -1.
</event>
<event>
 4    1  0.1082663E+000  0.1000000E+03  0.7546771E-02  0.1280296E+00
         -2   -1    0    0    0  501 -0.00000000000E+00  0.00000000000E+00  0.14656969257E+03  0.14656969257E+03  0.00000000000E+00 0.  1.
          2   -1    0    0  502    0  0.00000000000E+00 -0.00000000000E+00 -0.25235241958E+03  0.25235241958E+03  0.00000000000E+00 0. -1.
          6    1    1    2  502    0  0.36754748432E+02  0.72983545575E+02 -0.32655218772E+02  0.19409500965E+03  0.17300000000E+03 0. -1.
         -6    1    1    2    0  501 -0.36754748432E+02 -0.72983545575E+02 -0.73127508235E+02  0.20482710250E+03  0.17300000000E+03 0. -1.
</event>
<event>
 4    1  0.1082663E+000  0.1000000E+03  0.7546771E-02  0.1280296E+00
         -3   -1    0    0    0  501 -0.00000000000E+00  0.00000000000E+00  0.81464831111E+03  0.81464831111E+03  0.00000000000E+00 0. -1.
          3   -1    0    0  502    0  0.00000000000E+00 -0.00000000000E+00 -0.43795723502E+02  0.43795723502E+02  0.00000000000E+00 0.  1.
          6    1    1    2  502    0  0.35040954600E+02  0.42419127169E+02  0.50397970543E+03  0.53567881639E+03  0.17300000000E+03 0.  1.
         -6    1    1    2    0  501 -0.35040954600E+02 -0.42419127169E+02  0.26687288218E+03  0.32276521822E+03  0.17300000000E+03 0. -1.
</event>
<event>
 4    1  0.1082663E+000  0.1000000E+03  0.7546771E-02  0.1280296E+00
          1   -1    0    0  502    0  0.00000000000E+00  0.00000000000E+00  0.14452490148E+04  0.14452490148E+04  0.00000000000E+00 0.  1.
         -1   -1    0    0    0  501 -0.00000000000E+00 -0.00000000000E+00 -0.45668082279E+02  0.45668082279E+02  0.00000000000E+00 0. -1.
          6    1    1    2  502    0 -0.10424827489E+02  0.17065112415E+03  0.45977136655E+03  0.52014343474E+03  0.17300000000E+03 0. -1.
         -6    1    1    2    0  501  0.10424827489E+02 -0.17065112415E+03  0.93980956602E+03  0.97077366238E+03  0.17300000000E+03 0.  1.
</event>
<event>
 4    1  0.1082663E+000  0.1000000E+03  0.7546771E-02  0.1280296E+00
         -2   -1    0    0    0  501 -0.00000000000E+00  0.00000000000E+00  0.15526828110E+03  0.15526828110E+03  0.00000000000E+00 0.  1.
          2   -1    0    0  502    0  0.00000000000E+00 -0.00000000000E+00 -0.48855538915E+03  0.48855538915E+03  0.00000000000E+00 0. -1.
          6    1    1    2  502    0  0.17724963317E+03 -0.59627594281E+02 -0.28897842551E+03  0.38524072068E+03  0.17300000000E+03 0. -1.
         -6    1    1    2    0  501 -0.17724963317E+03  0.59627594281E+02 -0.44308682541E+02  0.25858294957E+03  0.17300000000E+03 0.  1.
</event>
<event>
 4    1  0.1082663E+000  0.1000000E+03  0.7546771E-02  0.1280296E+00
         -2   -1    0    0    0  501 -0.00000000000E+00  0.00000000000E+00  0.21673393113E+02  0.21673393113E+02  0.00000000000E+00 0.  1.
          2   -1    0    0  502    0  0.00000000000E+00 -0.00000000000E+00 -0.17736851860E+04  0.17736851860E+04  0.00000000000E+00 0. -1.
          6    1    1    2  502    0 -0.64333548231E+02 -0.64420978589E+02 -0.94451600589E+03  0.96453530433E+03  0.17300000000E+03 0. -1.
         -6    1    1    2    0  501  0.64333548231E+02  0.64420978589E+02 -0.80749578704E+03  0.83082327482E+03  0.17300000000E+03 0.  1.
</event>
<event>
 4    1  0.1082663E+000  0.1000000E+03  0.7546771E-02  0.1280296E+00
         -2   -1    0    0    0  501 -0.00000000000E+00  0.00000000000E+00  0.10657154543E+03  0.10657154543E+03  0.00000000000E+00 0.  1.
          2   -1    0    0  502    0  0.00000000000E+00 -0.00000000000E+00 -0.94083901671E+03  0.94083901671E+03  0.00000000000E+00 0. -1.
          6    1    1    2  502    0 -0.12662616064E+03 -0.20996361476E+03 -0.58432279140E+03  0.65687215547E+03  0.17300000000E+03 0. -1.
         -6    1    1    2    0  501  0.12662616064E+03  0.20996361476E+03 -0.24994467987E+03  0.39053840666E+03  0.17300000000E+03 0.  1.
</event>
<event>
 4    1  0.1082663E+000  0.1000000E+03  0.7546771E-02  0.1280296E+00
         -1   -1    0    0    0  501 -0.00000000000E+00  0.00000000000E+00  0.97691659932E+02  0.97691659932E+02  0.00000000000E+00 0.  1.
          1   -1    0    0  502    0  0.00000000000E+00 -0.00000000000E+00 -0.57729080480E+03  0.57729080480E+03  0.00000000000E+00 0. -1.
          6    1    1    2  502    0  0.11147439854E+03 -0.10868496997E+03 -0.30688774178E+03  0.38515977241E+03  0.17300000000E+03 0. -1.
         -6    1    1    2    0  501 -0.11147439854E+03  0.10868496997E+03 -0.17271140308E+03  0.28982269232E+03  0.17300000000E+03 0.  1.
</event>
<event>
 4    1  0.1082663E+000  0.1000000E+03  0.7546771E-02  0.1280296E+00
         -1   -1    0    0    0  501 -0.00000000000E+00  0.00000000000E+00  0.14131773052E+03  0.14131773052E+03  0.00000000000E+00 0.  1.
          1   -1    0    0  502    0  0.00000000000E+00 -0.00000000000E+00 -0.40655050023E+03  0.40655050023E+03  0.00000000000E+00 0. -1.
          6    1    1    2  502    0  0.94353525041E+02 -0.10752918907E+03 -0.22863430340E+03  0.32041810012E+03  0.17300000000E+03 0. -1.
         -6    1    1    2    0  501 -0.94353525041E+02  0.10752918907E+03 -0.36598466315E+02  0.22745013064E+03  0.17300000000E+03 0.  1.
</event>
<event>
 4    1  0.1082663E+000  0.1000000E+03  0.7546771E-02  0.1280296E+00
          1   -1    0    0  502    0  0.00000000000E+00  0.00000000000E+00  0.62470120808E+03  0.62470120808E+03  0.00000000000E+00 0.  1.
         -1   -1    0    0    0  501 -0.00000000000E+00 -0.00000000000E+00 -0.92998806578E+02  0.92998806578E+02  0.00000000000E+00 0. -1.
          6    1    1    2  502    0  0.52137073667E+02  0.41470300255E+02  0.36510287543E+02  0.18894459863E+03  0.17300000000E+03 0. -1.
         -6    1    1    2    0  501 -0.52137073667E+02 -0.41470300255E+02  0.49519211396E+03  0.52875541603E+03  0.17300000000E+03 0.  1.
</event>
<event>
 4    1  0.1082663E+000  0.1000000E+03  0.7546771E-02  0.1280296E+00
         -2   -1    0    0    0  501 -0.00000000000E+00  0.00000000000E+00  0.26630550835E+02  0.26630550835E+02  0.00000000000E+00 0. -1.
          2   -1    0    0  502    0  0.00000000000E+00 -0.00000000000E+00 -0.11789376442E+04  0.11789376442E+04  0.00000000000E+00 0.  1.
          6    1    1    2  502    0 -0.20666334187E+02 -0.19341325909E+01 -0.46665974513E+03  0.49812765027E+03  0.17300000000E+03 0. -1.
         -6    1    1    2    0  501  0.20666334187E+02  0.19341325909E+01 -0.68564734824E+03  0.70744054477E+03  0.17300000000E+03 0.  1.
</event>
<event>
 4    1  0.1082663E+000  0.1000000E+03  0.7546771E-02  0.1280296E+00
         -1   -1    0    0    0  501 -0.00000000000E+00  0.00000000000E+00  0.94126589583E+02  0.94126589583E+02  0.00000000000E+00 0. -1.
          1   -1    0    0  502    0  0.00000000000E+00 -0.00000000000E+00 -0.73493674138E+03  0.73493674138E+03  0.00000000000E+00 0.  1.
          6    1    1    2  502    0 -0.18194557989E+03 -0.72766052579E+02 -0.36632800057E+03  0.45002699524E+03  0.17300000000E+03 0. -1.
         -6    1    1    2    0  501  0.18194557989E+03  0.72766052579E+02 -0.27448215123E+03  0.37903633572E+03  0.17300000000E+03 0.  1.
</event>
<event>
 4    1  0.1082663E+000  0.1000000E+03  0.7546771E-02  0.1280296E+00
         -1   -1    0    0    0  501 -0.00000000000E+00  0.00000000000E+00  0.39997617974E+03  0.39997617974E+03  0.00000000000E+00 0. -1.
          1   -1    0    0  502    0  0.00000000000E+00 -0.00000000000E+00 -0.23289704583E+03  0.23289704583E+03  0.00000000000E+00 0.  1.
          6    1    1    2  502    0 -0.17663890123E+03 -0.14587857084E+03 -0.23918388096E+02  0.28806761037E+03  0.17300000000E+03 0. -1.
         -6    1    1    2    0  501  0.17663890123E+03  0.14587857084E+03  0.19099752201E+03  0.34480561520E+03  0.17300000000E+03 0.  1.
</event>
<event>
 4    1  0.1082663E+000  0.1000000E+03  0.7546771E-02  0.1280296E+00
          1   -1    0    0  502    0  0.00000000000E+00  0.00000000000E+00  0.47001754853E+03  0.47001754853E+03  0.00000000000E+00 0. -1.
         -1   -1    0    0    0  501 -0.00000000000E+00 -0.00000000000E+00 -0.14065785618E+03  0.14065785618E+03  0.00000000000E+00 0.  1.
          6    1    1    2  502    0  0.66082898121E+02  0.99796693068E+02 -0.10881957113E+02  0.21065076872E+03  0.17300000000E+03 0. -1.
         -6    1    1    2    0  501 -0.66082898121E+02 -0.99796693068E+02  0.34024164946E+03  0.40002463599E+03  0.17300000000E+03 0.  1.
</event>
