<event>
 4    1  0.1116913E+000  0.1000000E+03  0.7546771E-02  0.1280296E+00
          2   -1    0    0  502    0  0.00000000000E+00  0.00000000000E+00  0.38065086787E+03  0.38065086787E+03  0.00000000000E+00 0.  1.
         -2   -1    0    0    0  501 -0.00000000000E+00 -0.00000000000E+00 -0.90024046453E+02  0.90024046453E+02  0.00000000000E+00 0. -1.
          6    1    1    2  502    0  0.54624344193E+02 -0.11728173424E+02  0.10095680370E+03  0.20794866012E+03  0.17300000000E+03 0.  1.
         -6    1    1    2    0  501 -0.54624344193E+02  0.11728173424E+02  0.18967001772E+03  0.26272625421E+03  0.17300000000E+03 0. -1.
</event>
<event>
 4    1  0.1116913E+000  0.1000000E+03  0.7546771E-02  0.1280296E+00
          2   -1    0    0  502    0  0.00000000000E+00  0.00000000000E+00  0.76851522631E+03  0.76851522631E+03  0.00000000000E+00 0.  1.
         -2   -1    0    0    0  501 -0.00000000000E+00 -0.00000000000E+00 -0.39879024985E+02  0.39879024985E+02  0.00000000000E+00 0. -1.
          6    1    1    2  502    0 -0.12968180233E+02 -0.23223728208E+02  0.35661795269E+03  0.39725669212E+03  0.17300000000E+03 0.  1.
         -6    1    1    2    0  501  0.12968180233E+02  0.23223728208E+02  0.37201824863E+03  0.41113755918E+03  0.17300000000E+03 0. -1.
</event>
<event>
 4    1  0.1116913E+000  0.1000000E+03  0.7546771E-02  0.1280296E+00
         -2   -1    0    0    0  501 -0.00000000000E+00  0.00000000000E+00  0.26638123118E+04  0.26638123118E+04  0.00000000000E+00 0.  1.
          2   -1    0    0  502    0  0.00000000000E+00 -0.00000000000E+00 -0.32287635631E+02  0.32287635631E+02  0.00000000000E+00 0. -1.
          6    1    1    2  502    0 -0.64857575191E+01 -0.23652502248E+03  0.12714224837E+04  0.13047721193E+04  0.17300000000E+03 0. -1.
         -6    1    1    2    0  501  0.64857575191E+01  0.23652502248E+03  0.13601021925E+04  0.13913278281E+04  0.17300000000E+03 0.  1.
</event>
<event>
 4    1  0.1116913E+000  0.1000000E+03  0.7546771E-02  0.1280296E+00
          2   -1    0    0  502    0  0.00000000000E+00  0.00000000000E+00  0.35384296709E+03  0.35384296709E+03  0.00000000000E+00 0.  1.
         -2   -1    0    0    0  501 -0.00000000000E+00 -0.00000000000E+00 -0.11666627109E+03  0.11666627109E+03  0.00000000000E+00 0. -1.
          6    1    1    2  502    0 -0.58350751347E+02  0.89148220335E+02  0.11924757400E+03  0.23558692510E+03  0.17300000000E+03 0.  1.
         -6    1    1    2    0  501  0.58350751347E+02 -0.89148220335E+02  0.11792912200E+03  0.23492231309E+03  0.17300000000E+03 0.  1.
</event>
<event>
 4    1  0.1116913E+000  0.1000000E+03  0.7546771E-02  0.1280296E+00
          2   -1    0    0  502    0  0.00000000000E+00  0.00000000000E+00  0.11702829362E+04  0.11702829362E+04  0.00000000000E+00 0.  1.
         -2   -1    0    0    0  501 -0.00000000000E+00 -0.00000000000E+00 -0.14151723003E+04  0.14151723003E+04  0.00000000000E+00 0. -1.
          6    1    1    2  502    0 -0.62884963041E+02 -0.10272220132E+04  0.63400562438E+03  0.12210780952E+04  0.17300000000E+03 0. -1.
         -6    1    1    2    0  501  0.62884963041E+02  0.10272220132E+04 -0.87889498843E+03  0.13643771412E+04  0.17300000000E+03 0. -1.
</event>
<event>
 4    1  0.1116913E+000  0.1000000E+03  0.7546771E-02  0.1280296E+00
          2   -1    0    0  502    0  0.00000000000E+00  0.00000000000E+00  0.14338530872E+04  0.14338530872E+04  0.00000000000E+00 0.  1.
         -2   -1    0    0    0  501 -0.00000000000E+00 -0.00000000000E+00 -0.39663933497E+02  0.39663933497E+02  0.00000000000E+00 0. -1.
          6    1    1    2  502    0  0.87136329057E+02 -0.12072366098E+03  0.91060606931E+03  0.93877545538E+03  0.17300000000E+03 0. -1.
         -6    1    1    2    0  501 -0.87136329057E+02  0.12072366098E+03  0.48358308436E+03  0.53474156528E+03  0.17300000000E+03 0. -1.
</event>
<event>
 4    1  0.1116913E+000  0.1000000E+03  0.7546771E-02  0.1280296E+00
          2   -1    0    0  502    0  0.00000000000E+00  0.00000000000E+00  0.19853566894E+03  0.19853566894E+03  0.00000000000E+00 0. -1.
         -2   -1    0    0    0  501 -0.00000000000E+00 -0.00000000000E+00 -0.37494861956E+03  0.37494861956E+03  0.00000000000E+00 0.  1.
          6    1    1    2  502    0  0.41532662749E+02 -0.71706128757E+02 -0.29211702959E+03  0.34946829606E+03  0.17300000000E+03 0. -1.
         -6    1    1    2    0  501 -0.41532662749E+02  0.71706128757E+02  0.11570407897E+03  0.22401599243E+03  0.17300000000E+03 0.  1.
</event>
<event>
 4    1  0.1116913E+000  0.1000000E+03  0.7546771E-02  0.1280296E+00
          1   -1    0    0  502    0  0.00000000000E+00  0.00000000000E+00  0.22706839515E+03  0.22706839515E+03  0.00000000000E+00 0. -1.
         -1   -1    0    0    0  501 -0.00000000000E+00 -0.00000000000E+00 -0.28050736224E+03  0.28050736224E+03  0.00000000000E+00 0.  1.
          6    1    1    2  502    0 -0.11572880520E+02 -0.18000475797E+03 -0.61982716359E+02  0.25750048851E+03  0.17300000000E+03 0. -1.
         -6    1    1    2    0  501  0.11572880520E+02  0.18000475797E+03  0.85437492699E+01  0.25007526888E+03  0.17300000000E+03 0.  1.
</event>
<event>
 4    1  0.1116913E+000  0.1000000E+03  0.7546771E-02  0.1280296E+00
          1   -1    0    0  502    0  0.00000000000E+00  0.00000000000E+00  0.46783819611E+03  0.46783819611E+03  0.00000000000E+00 0. -1.
         -1   -1    0    0    0  501 -0.00000000000E+00 -0.00000000000E+00 -0.68857807916E+02  0.68857807916E+02  0.00000000000E+00 0.  1.
          6    1    1    2  502    0  0.28585979098E+02  0.37875429583E+02  0.20815750007E+03  0.27479128662E+03  0.17300000000E+03 0. -1.
         -6    1    1    2    0  501 -0.28585979098E+02 -0.37875429583E+02  0.19082288813E+03  0.26190471741E+03  0.17300000000E+03 0.  1.
</event>
<event>
 4    1  0.1116913E+000  0.1000000E+03  0.7546771E-02  0.1280296E+00
          2   -1    0    0  502    0  0.00000000000E+00  0.00000000000E+00  0.39914942773E+03  0.39914942773E+03  0.00000000000E+00 0.  1.
         -2   -1    0    0    0  501 -0.00000000000E+00 -0.00000000000E+00 -0.19008520120E+03  0.19008520120E+03  0.00000000000E+00 0. -1.
          6    1    1    2  502    0  0.75959281923E+02 -0.17025710992E+03 -0.85921516504E+01  0.25448009953E+03  0.17300000000E+03 0. -1.
         -6    1    1    2    0  501 -0.75959281923E+02  0.17025710992E+03  0.21765637819E+03  0.33475452940E+03  0.17300000000E+03 0.  1.
</event>
<event>
 4    1  0.1116913E+000  0.1000000E+03  0.7546771E-02  0.1280296E+00
         -1   -1    0    0    0  501 -0.00000000000E+00  0.00000000000E+00  0.25583800247E+03  0.25583800247E+03  0.00000000000E+00 0. -1.
          1   -1    0    0  502    0  0.00000000000E+00 -0.00000000000E+00 -0.21100839015E+03  0.21100839015E+03  0.00000000000E+00 0.  1.
          6    1    1    2  502    0  0.12207830544E+03  0.91939044915E+02 -0.41477713793E+01  0.23087248569E+03  0.17300000000E+03 0. -1.
         -6    1    1    2    0  501 -0.12207830544E+03 -0.91939044915E+02  0.48977383706E+02  0.23597390693E+03  0.17300000000E+03 0.  1.
</event>
<event>
 4    1  0.1116913E+000  0.1000000E+03  0.7546771E-02  0.1280296E+00
         -2   -1    0    0    0  501 -0.00000000000E+00  0.00000000000E+00  0.10973892115E+03  0.10973892115E+03  0.00000000000E+00 0. -1.
          2   -1    0    0  502    0  0.00000000000E+00 -0.00000000000E+00 -0.31141119663E+03  0.31141119663E+03  0.00000000000E+00 0.  1.
          6    1    1    2  502    0  0.36789776122E+02  0.29788383800E+02 -0.49842212173E+02  0.18615606773E+03  0.17300000000E+03 0. -1.
         -6    1    1    2    0  501 -0.36789776122E+02 -0.29788383800E+02 -0.15183006330E+03  0.23499405005E+03  0.17300000000E+03 0.  1.
</event>
<event>
 4    1  0.1116913E+000  0.1000000E+03  0.7546771E-02  0.1280296E+00
         -2   -1    0    0    0  501 -0.00000000000E+00  0.00000000000E+00  0.59711851147E+02  0.59711851147E+02  0.00000000000E+00 0. -1.
          2   -1    0    0  502    0  0.00000000000E+00 -0.00000000000E+00 -0.88212801300E+03  0.88212801300E+03  0.00000000000E+00 0.  1.
          6    1    1    2  502    0 -0.42451052422E+02  0.14380997595E+03 -0.37805294978E+03  0.44196881549E+03  0.17300000000E+03 0. -1.
         -6    1    1    2    0  501  0.42451052422E+02 -0.14380997595E+03 -0.44436321208E+03  0.49987104865E+03  0.17300000000E+03 0.  1.
</event>
<event>
 4    1  0.1116913E+000  0.1000000E+03  0.7546771E-02  0.1280296E+00
          1   -1    0    0  502    0  0.00000000000E+00  0.00000000000E+00  0.57147431342E+02  0.57147431342E+02  0.00000000000E+00 0.  1.
         -1   -1    0    0    0  501 -0.00000000000E+00 -0.00000000000E+00 -0.70356056216E+03  0.70356056216E+03  0.00000000000E+00 0. -1.
          6    1    1    2  502    0 -0.43698493066E+02  0.86401487110E+02 -0.26620856927E+03  0.33191983614E+03  0.17300000000E+03 0.  1.
         -6    1    1    2    0  501  0.43698493066E+02 -0.86401487110E+02 -0.38020456155E+03  0.42878815736E+03  0.17300000000E+03 0.  1.
</event>
<event>
 4    1  0.1116913E+000  0.1000000E+03  0.7546771E-02  0.1280296E+00
          2   -1    0    0  502    0  0.00000000000E+00  0.00000000000E+00  0.93433268114E+03  0.93433268114E+03  0.00000000000E+00 0.  1.
         -2   -1    0    0    0  501 -0.00000000000E+00 -0.00000000000E+00 -0.52996678862E+02  0.52996678862E+02  0.00000000000E+00 0. -1.
          6    1    1    2  502    0  0.87690057725E+02  0.78789945693E+02  0.60801500822E+03  0.64304638401E+03  0.17300000000E+03 0.  1.
         -6    1    1    2    0  501 -0.87690057725E+02 -0.78789945693E+02  0.27332099406E+03  0.34428297599E+03  0.17300000000E+03 0.  1.
</event>
<event>
 4    1  0.1116913E+000  0.1000000E+03  0.7546771E-02  0.1280296E+00
          2   -1    0    0  502    0  0.00000000000E+00  0.00000000000E+00  0.19528336278E+03  0.19528336278E+03  0.00000000000E+00 0. -1.
         -2   -1    0    0    0  501 -0.00000000000E+00 -0.00000000000E+00 -0.15733435756E+03  0.15733435756E+03  0.00000000000E+00 0.  1.
          6    1    1    2  502    0 -0.19538114882E+02 -0.24032153399E+01 -0.13492059355E+01  0.17412160617E+03  0.17300000000E+03 0.  1.
         -6    1    1    2    0  501  0.19538114882E+02  0.24032153399E+01  0.39298211155E+02  0.17849611418E+03  0.17300000000E+03 0. -1.
</event>
<event>
 4    1  0.1116913E+000  0.1000000E+03  0.7546771E-02  0.1280296E+00
         -2   -1    0    0    0  501 -0.00000000000E+00  0.00000000000E+00  0.13591100817E+03  0.13591100817E+03  0.00000000000E+00 0.  1.
          2   -1    0    0  502    0  0.00000000000E+00 -0.00000000000E+00 -0.24919271535E+03  0.24919271535E+03  0.00000000000E+00 0. -1.
          6    1    1    2  502    0  0.50213867009E+02 -0.34117723010E+02 -0.39979445740E+02  0.18765075951E+03  0.17300000000E+03 0. -1.
         -6    1    1    2    0  501 -0.50213867009E+02  0.34117723010E+02 -0.73302261444E+02  0.19745296401E+03  0.17300000000E+03 0.  1.
</event>
<event>
 4    1  0.1116913E+000  0.1000000E+03  0.7546771E-02  0.1280296E+00
         -2   -1    0    0    0  501 -0.00000000000E+00  0.00000000000E+00  0.64965045058E+02  0.64965045058E+02  0.00000000000E+00 0.  1.
          2   -1    0    0  502    0  0.00000000000E+00 -0.00000000000E+00 -0.10778721585E+04  0.10778721585E+04  0.00000000000E+00 0. -1.
          6    1    1    2  502    0  0.66857344536E+02  0.17000271267E+03 -0.68352590650E+03  0.72835945225E+03  0.17300000000E+03 0. -1.
         -6    1    1    2    0  501 -0.66857344536E+02 -0.17000271267E+03 -0.32938120692E+03  0.41447775128E+03  0.17300000000E+03 0.  1.
</event>
<event>
 4    1  0.1116913E+000  0.1000000E+03  0.7546771E-02  0.1280296E+00
         -1   -1    0    0    0  501 -0.00000000000E+00  0.00000000000E+00  0.10730252320E+02  0.10730252320E+02  0.00000000000E+00 0. -1.
          1   -1    0    0  502    0  0.00000000000E+00 -0.00000000000E+00 -0.28502106610E+04  0.28502106610E+04  0.00000000000E+00 0.  1.
          6    1    1    2  502    0  0.20229043358E+02  0.99210354363E+01 -0.15188588349E+04  0.15288455780E+04  0.17300000000E+03 0.  1.
         -6    1    1    2    0  501 -0.20229043358E+02 -0.99210354363E+01 -0.13206215738E+04  0.13320953353E+04  0.17300000000E+03 0. -1.
</event>
<event>
 4    1  0.1116913E+000  0.1000000E+03  0.7546771E-02  0.1280296E+00
         -2   -1    0    0    0  501 -0.00000000000E+00  0.00000000000E+00  0.18931489288E+03  0.18931489288E+03  0.00000000000E+00 0. -1.
          2   -1    0    0  502    0  0.00000000000E+00 -0.00000000000E+00 -0.41907625265E+03  0.41907625265E+03  0.00000000000E+00 0.  1.
          6    1    1    2  502    0  0.19752416815E+03  0.85614558448E+02 -0.17464858917E+03  0.32676716377E+03  0.17300000000E+03 0.  1.
         -6    1    1    2    0  501 -0.19752416815E+03 -0.85614558448E+02 -0.55112770604E+02  0.28162398177E+03  0.17300000000E+03 0. -1.
</event>
<event>
 4    1  0.1116913E+000  0.1000000E+03  0.7546771E-02  0.1280296E+00
         -1   -1    0    0    0  501 -0.00000000000E+00  0.00000000000E+00  0.79377393661E+02  0.79377393661E+02  0.00000000000E+00 0. -1.
          1   -1    0    0  502    0  0.00000000000E+00 -0.00000000000E+00 -0.71324336399E+03  0.71324336399E+03  0.00000000000E+00 0.  1.
          6    1    1    2  502    0  0.45176156261E+02  0.34017053078E+02 -0.57219985518E+03  0.60044959761E+03  0.17300000000E+03 0.  1.
         -6    1    1    2    0  501 -0.45176156261E+02 -0.34017053078E+02 -0.61666115143E+02  0.19217116004E+03  0.17300000000E+03 0. -1.
</event>
<event>
 4    1  0.1116913E+000  0.1000000E+03  0.7546771E-02  0.1280296E+00
         -1   -1    0    0    0  501 -0.00000000000E+00  0.00000000000E+00  0.37183495593E+03  0.37183495593E+03  0.00000000000E+00 0. -1.
          1   -1    0    0  502    0  0.00000000000E+00 -0.00000000000E+00 -0.87806122344E+03  0.87806122344E+03  0.00000000000E+00 0.  1.
          6    1    1    2  502    0  0.29203066973E+03 -0.29474663577E+03 -0.63888405118E+03  0.78119096399E+03  0.17300000000E+03 0. -1.
         -6    1    1    2    0  501 -0.29203066973E+03  0.29474663577E+03  0.13265778367E+03  0.46870521538E+03  0.17300000000E+03 0.  1.
</event>
<event>
 4    1  0.1116913E+000  0.1000000E+03  0.7546771E-02  0.1280296E+00
         -1   -1    0    0    0  501 -0.00000000000E+00  0.00000000000E+00  0.77006563307E+02  0.77006563307E+02  0.00000000000E+00 0. -1.
          1   -1    0    0  502    0  0.00000000000E+00 -0.00000000000E+00 -0.62565520476E+03  0.62565520476E+03  0.00000000000E+00 0.  1.
          6    1    1    2  502    0  0.58945758959E+02 -0.32711770410E+02 -0.86937681470E+02  0.20501664050E+03  0.17300000000E+03 0. -1.
         -6    1    1    2    0  501 -0.58945758959E+02  0.32711770410E+02 -0.46171095998E+03  0.49764512757E+03  0.17300000000E+03 0.  1.
</event>
<event>
 4    1  0.1116913E+000  0.1000000E+03  0.7546771E-02  0.1280296E+00
         -3   -1    0    0    0  501 -0.00000000000E+00  0.00000000000E+00  0.25815278901E+03  0.25815278901E+03  0.00000000000E+00 0.  1.
          3   -1    0    0  502    0  0.00000000000E+00 -0.00000000000E+00 -0.20164890962E+03  0.20164890962E+03  0.00000000000E+00 0. -1.
          6    1    1    2  502    0 -0.10584033727E+03 -0.63295085881E+02  0.11206642790E+03  0.24020060189E+03  0.17300000000E+03 0. -1.
         -6    1    1    2    0  501  0.10584033727E+03  0.63295085881E+02 -0.55562548510E+02  0.21960109673E+03  0.17300000000E+03 0.  1.
</event>
<event>
 4    1  0.1116913E+000  0.1000000E+03  0.7546771E-02  0.1280296E+00
         -4   -1    0    0    0  501 -0.00000000000E+00  0.00000000000E+00  0.32647804192E+03  0.32647804192E+03  0.00000000000E+00 0.  1.
          4   -1    0    0  502    0  0.00000000000E+00 -0.00000000000E+00 -0.11834225059E+03  0.11834225059E+03  0.00000000000E+00 0. -1.
          6    1    1    2  502    0 -0.15172951138E+02  0.40492645338E+02  0.10505965945E+02  0.17863159881E+03  0.17300000000E+03 0. -1.
         -6    1    1    2    0  501  0.15172951138E+02 -0.40492645338E+02  0.19762982538E+03  0.26618869370E+03  0.17300000000E+03 0.  1.
</event>
<event>
 4    1  0.1116913E+000  0.1000000E+03  0.7546771E-02  0.1280296E+00
         -2   -1    0    0    0  501 -0.00000000000E+00  0.00000000000E+00  0.22594038703E+02  0.22594038703E+02  0.00000000000E+00 0.  1.
          2   -1    0    0  502    0  0.00000000000E+00 -0.00000000000E+00 -0.13647108761E+04  0.13647108761E+04  0.00000000000E+00 0. -1.
          6    1    1    2  502    0 -0.45540654557E+01 -0.26794046293E+02 -0.62006040175E+03  0.64431557660E+03  0.17300000000E+03 0.  1.
         -6    1    1    2    0  501  0.45540654557E+01  0.26794046293E+02 -0.72205643568E+03  0.74298933824E+03  0.17300000000E+03 0. -1.
</event>
<event>
 4    1  0.1116913E+000  0.1000000E+03  0.7546771E-02  0.1280296E+00
         -1   -1    0    0    0  501 -0.00000000000E+00  0.00000000000E+00  0.15377541290E+03  0.15377541290E+03  0.00000000000E+00 0.  1.
          1   -1    0    0  502    0  0.00000000000E+00 -0.00000000000E+00 -0.46659266993E+03  0.46659266993E+03  0.00000000000E+00 0. -1.
          6    1    1    2  502    0  0.73885435972E+01  0.15678863722E+03 -0.46085945773E+01  0.23363969372E+03  0.17300000000E+03 0.  1.
         -6    1    1    2    0  501 -0.73885435972E+01 -0.15678863722E+03 -0.30820866245E+03  0.38672838911E+03  0.17300000000E+03 0. -1.
</event>
<event>
 4    1  0.1116913E+000  0.1000000E+03  0.7546771E-02  0.1280296E+00
         -2   -1    0    0    0  501 -0.00000000000E+00  0.00000000000E+00  0.67597080733E+02  0.67597080733E+02  0.00000000000E+00 0. -1.
          2   -1    0    0  502    0  0.00000000000E+00 -0.00000000000E+00 -0.11988414250E+04  0.11988414250E+04  0.00000000000E+00 0.  1.
          6    1    1    2  502    0 -0.64719781074E+02 -0.74680637854E+02 -0.11333735193E+03  0.22921649826E+03  0.17300000000E+03 0.  1.
         -6    1    1    2    0  501  0.64719781074E+02  0.74680637854E+02 -0.10179069924E+04  0.10372220075E+04  0.17300000000E+03 0.  1.
</event>
<event>
 4    1  0.1116913E+000  0.1000000E+03  0.7546771E-02  0.1280296E+00
         -2   -1    0    0    0  501 -0.00000000000E+00  0.00000000000E+00  0.18309882522E+04  0.18309882522E+04  0.00000000000E+00 0.  1.
          2   -1    0    0  502    0  0.00000000000E+00 -0.00000000000E+00 -0.44647332047E+02  0.44647332047E+02  0.00000000000E+00 0. -1.
          6    1    1    2  502    0  0.18431420613E+03 -0.81105247221E+02  0.12413786493E+04  0.12694485963E+04  0.17300000000E+03 0.  1.
         -6    1    1    2    0  501 -0.18431420613E+03  0.81105247221E+02  0.54496227089E+03  0.60618698799E+03  0.17300000000E+03 0. -1.
</event>
<event>
 4    1  0.1116913E+000  0.1000000E+03  0.7546771E-02  0.1280296E+00
          2   -1    0    0  502    0  0.00000000000E+00  0.00000000000E+00  0.10909666612E+04  0.10909666612E+04  0.00000000000E+00 0. -1.
         -2   -1    0    0    0  501 -0.00000000000E+00 -0.00000000000E+00 -0.95173507542E+02  0.95173507542E+02  0.00000000000E+00 0.  1.
          6    1    1    2  502    0  0.18882071460E+03  0.18280749764E+03  0.62581361867E+03  0.70045951258E+03  0.17300000000E+03 0.  1.
         -6    1    1    2    0  501 -0.18882071460E+03 -0.18280749764E+03  0.36997953497E+03  0.48568065615E+03  0.17300000000E+03 0. -1.
</event>
<event>
 4    1  0.1116913E+000  0.1000000E+03  0.7546771E-02  0.1280296E+00
          2   -1    0    0  502    0  0.00000000000E+00  0.00000000000E+00  0.75931901204E+03  0.75931901204E+03  0.00000000000E+00 0. -1.
         -2   -1    0    0    0  501 -0.00000000000E+00 -0.00000000000E+00 -0.43360197149E+02  0.43360197149E+02  0.00000000000E+00 0.  1.
          6    1    1    2  502    0  0.10818578825E+02 -0.34905835851E+02  0.44809030212E+03  0.48171503805E+03  0.17300000000E+03 0.  1.
         -6    1    1    2    0  501 -0.10818578825E+02  0.34905835851E+02  0.26786851277E+03  0.32096417114E+03  0.17300000000E+03 0. -1.
</event>
<event>
 4    1  0.1116913E+000  0.1000000E+03  0.7546771E-02  0.1280296E+00
          4   -1    0    0  502    0  0.00000000000E+00  0.00000000000E+00  0.88851099670E+02  0.88851099670E+02  0.00000000000E+00 0. -1.
         -4   -1    0    0    0  501 -0.00000000000E+00 -0.00000000000E+00 -0.16914875114E+04  0.16914875114E+04  0.00000000000E+00 0.  1.
          6    1    1    2  502    0  0.13191496863E+03 -0.31954547252E+03 -0.73434760665E+03  0.82988329019E+03  0.17300000000E+03 0.  1.
         -6    1    1    2    0  501 -0.13191496863E+03  0.31954547252E+03 -0.86828880511E+03  0.95045532090E+03  0.17300000000E+03 0. -1.
</event>
<event>
 4    1  0.1116913E+000  0.1000000E+03  0.7546771E-02  0.1280296E+00
         -2   -1    0    0    0  501 -0.00000000000E+00  0.00000000000E+00  0.44260739686E+02  0.44260739686E+02  0.00000000000E+00 0. -1.
          2   -1    0    0  502    0  0.00000000000E+00 -0.00000000000E+00 -0.10724113245E+04  0.10724113245E+04  0.00000000000E+00 0.  1.
          6    1    1    2  502    0  0.11689035277E+03 -0.61903848709E+02 -0.49761028786E+03  0.54317625099E+03  0.17300000000E+03 0. -1.
         -6    1    1    2    0  501 -0.11689035277E+03  0.61903848709E+02 -0.53054029692E+03  0.57349581316E+03  0.17300000000E+03 0.  1.
</event>
<event>
 4    1  0.1116913E+000  0.1000000E+03  0.7546771E-02  0.1280296E+00
         -3   -1    0    0    0  501 -0.00000000000E+00  0.00000000000E+00  0.80938158580E+02  0.80938158580E+02  0.00000000000E+00 0. -1.
          3   -1    0    0  502    0  0.00000000000E+00 -0.00000000000E+00 -0.99192696262E+03  0.99192696262E+03  0.00000000000E+00 0.  1.
          6    1    1    2  502    0 -0.37340652315E+02 -0.12132431265E+03 -0.80582421584E+03  0.83390381938E+03  0.17300000000E+03 0. -1.
         -6    1    1    2    0  501  0.37340652315E+02  0.12132431265E+03 -0.10516458821E+03  0.23896130182E+03  0.17300000000E+03 0.  1.
</event>
<event>
 4    1  0.1116913E+000  0.1000000E+03  0.7546771E-02  0.1280296E+00
         -2   -1    0    0    0  501 -0.00000000000E+00  0.00000000000E+00  0.24251889191E+03  0.24251889191E+03  0.00000000000E+00 0.  1.
          2   -1    0    0  502    0  0.00000000000E+00 -0.00000000000E+00 -0.25934688582E+03  0.25934688582E+03  0.00000000000E+00 0. -1.
          6    1    1    2  502    0 -0.65052700912E+02  0.10154986278E+03  0.12739479441E+03  0.24637910254E+03  0.17300000000E+03 0. -1.
         -6    1    1    2    0  501  0.65052700912E+02 -0.10154986278E+03 -0.14422278832E+03  0.25548667518E+03  0.17300000000E+03 0. -1.
</event>
<event>
 4    1  0.1116913E+000  0.1000000E+03  0.7546771E-02  0.1280296E+00
         -2   -1    0    0    0  501 -0.00000000000E+00  0.00000000000E+00  0.12525373586E+03  0.12525373586E+03  0.00000000000E+00 0.  1.
          2   -1    0    0  502    0  0.00000000000E+00 -0.00000000000E+00 -0.28626426788E+03  0.28626426788E+03  0.00000000000E+00 0. -1.
          6    1    1    2  502    0 -0.28640739886E+02 -0.59839079396E+02 -0.38061976472E+02  0.18915264063E+03  0.17300000000E+03 0. -1.
         -6    1    1    2    0  501  0.28640739886E+02  0.59839079396E+02 -0.12294855555E+03  0.22236536312E+03  0.17300000000E+03 0. -1.
</event>
<event>
 4    1  0.1116913E+000  0.1000000E+03  0.7546771E-02  0.1280296E+00
         -1   -1    0    0    0  501 -0.00000000000E+00  0.00000000000E+00  0.78998671230E+03  0.78998671230E+03  0.00000000000E+00 0. -1.
          1   -1    0    0  502    0  0.00000000000E+00 -0.00000000000E+00 -0.14633300389E+03  0.14633300389E+03  0.00000000000E+00 0.  1.
          6    1    1    2  502    0  0.25923682250E+03 -0.11368410806E+03  0.42435364443E+03  0.53863978882E+03  0.17300000000E+03 0.  1.
         -6    1    1    2    0  501 -0.25923682250E+03  0.11368410806E+03  0.21930006398E+03  0.39767992736E+03  0.17300000000E+03 0.  1.
</event>
<event>
 4    1  0.1116913E+000  0.1000000E+03  0.7546771E-02  0.1280296E+00
         -2   -1    0    0    0  501 -0.00000000000E+00  0.00000000000E+00  0.46034857000E+02  0.46034857000E+02  0.00000000000E+00 0. -1.
          2   -1    0    0  502    0  0.00000000000E+00 -0.00000000000E+00 -0.73471215150E+03  0.73471215150E+03  0.00000000000E+00 0.  1.
          6    1    1    2  502    0  0.57411619288E+02 -0.26899669042E+01 -0.29277796712E+03  0.34489312545E+03  0.17300000000E+03 0.  1.
         -6    1    1    2    0  501 -0.57411619288E+02  0.26899669042E+01 -0.39589932738E+03  0.43585388305E+03  0.17300000000E+03 0.  1.
</event>
<event>
 4    1  0.1116913E+000  0.1000000E+03  0.7546771E-02  0.1280296E+00
         -1   -1    0    0    0  501 -0.00000000000E+00  0.00000000000E+00  0.23693076642E+03  0.23693076642E+03  0.00000000000E+00 0.  1.
          1   -1    0    0  502    0  0.00000000000E+00 -0.00000000000E+00 -0.15419058470E+03  0.15419058470E+03  0.00000000000E+00 0. -1.
          6    1    1    2  502    0 -0.45504485744E+02  0.60982658031E+02  0.12179633703E+02  0.18938554929E+03  0.17300000000E+03 0. -1.
         -6    1    1    2    0  501  0.45504485744E+02 -0.60982658031E+02  0.70560548014E+02  0.20173580183E+03  0.17300000000E+03 0. -1.
</event>
<event>
 4    1  0.1116913E+000  0.1000000E+03  0.7546771E-02  0.1280296E+00
         -2   -1    0    0    0  501 -0.00000000000E+00  0.00000000000E+00  0.37743770300E+02  0.37743770300E+02  0.00000000000E+00 0.  1.
          2   -1    0    0  502    0  0.00000000000E+00 -0.00000000000E+00 -0.12568072086E+04  0.12568072086E+04  0.00000000000E+00 0. -1.
          6    1    1    2  502    0  0.13078692495E+03 -0.16012328336E+02 -0.64544462512E+03  0.68109425081E+03  0.17300000000E+03 0. -1.
         -6    1    1    2    0  501 -0.13078692495E+03  0.16012328336E+02 -0.57361881315E+03  0.61345672806E+03  0.17300000000E+03 0. -1.
</event>
<event>
 4    1  0.1116913E+000  0.1000000E+03  0.7546771E-02  0.1280296E+00
         -2   -1    0    0    0  501 -0.00000000000E+00  0.00000000000E+00  0.90825184670E+02  0.90825184670E+02  0.00000000000E+00 0.  1.
          2   -1    0    0  502    0  0.00000000000E+00 -0.00000000000E+00 -0.56228755995E+03  0.56228755995E+03  0.00000000000E+00 0. -1.
          6    1    1    2  502    0  0.40947287321E+02  0.10419734623E+03 -0.36979276039E+03  0.42333137485E+03  0.17300000000E+03 0. -1.
         -6    1    1    2    0  501 -0.40947287321E+02 -0.10419734623E+03 -0.10166961489E+03  0.22978136977E+03  0.17300000000E+03 0.  1.
</event>
<event>
 4    1  0.1116913E+000  0.1000000E+03  0.7546771E-02  0.1280296E+00
         -1   -1    0    0    0  501 -0.00000000000E+00  0.00000000000E+00  0.61765655603E+02  0.61765655603E+02  0.00000000000E+00 0.  1.
          1   -1    0    0  502    0  0.00000000000E+00 -0.00000000000E+00 -0.57672511694E+03  0.57672511694E+03  0.00000000000E+00 0. -1.
          6    1    1    2  502    0 -0.46808496629E+02  0.38507026141E+02 -0.33348304292E+03  0.38054403994E+03  0.17300000000E+03 0. -1.
         -6    1    1    2    0  501  0.46808496629E+02 -0.38507026141E+02 -0.18147641841E+03  0.25794673260E+03  0.17300000000E+03 0.  1.
</event>
<event>
 4    1  0.1116913E+000  0.1000000E+03  0.7546771E-02  0.1280296E+00
         -1   -1    0    0    0  501 -0.00000000000E+00  0.00000000000E+00  0.39616866807E+02  0.39616866807E+02  0.00000000000E+00 0.  1.
          1   -1    0    0  502    0  0.00000000000E+00 -0.00000000000E+00 -0.14696982092E+04  0.14696982092E+04  0.00000000000E+00 0. -1.
          6    1    1    2  502    0  0.12237743365E+03 -0.14918144806E+02 -0.35712350623E+03  0.41552976550E+03  0.17300000000E+03 0.  1.
         -6    1    1    2    0  501 -0.12237743365E+03  0.14918144806E+02 -0.10729578362E+04  0.10937853105E+04  0.17300000000E+03 0. -1.
</event>
<event>
 4    1  0.1116913E+000  0.1000000E+03  0.7546771E-02  0.1280296E+00
         -1   -1    0    0    0  501 -0.00000000000E+00  0.00000000000E+00  0.30038421180E+03  0.30038421180E+03  0.00000000000E+00 0.  1.
          1   -1    0    0  502    0  0.00000000000E+00 -0.00000000000E+00 -0.17985769927E+03  0.17985769927E+03  0.00000000000E+00 0. -1.
          6    1    1    2  502    0  0.90125234374E+02 -0.12634584717E+03  0.56747459939E+02  0.23923859467E+03  0.17300000000E+03 0.  1.
         -6    1    1    2    0  501 -0.90125234374E+02  0.12634584717E+03  0.63779052585E+02  0.24100331640E+03  0.17300000000E+03 0. -1.
</event>
<event>
 4    1  0.1116913E+000  0.1000000E+03  0.7546771E-02  0.1280296E+00
         -2   -1    0    0    0  501 -0.00000000000E+00  0.00000000000E+00  0.48765202574E+02  0.48765202574E+02  0.00000000000E+00 0.  1.
          2   -1    0    0  502    0  0.00000000000E+00 -0.00000000000E+00 -0.77639406095E+03  0.77639406095E+03  0.00000000000E+00 0. -1.
          6    1    1    2  502    0 -0.70303174571E+02 -0.71372563279E+01 -0.47875602909E+03  0.51393561092E+03  0.17300000000E+03 0.  1.
         -6    1    1    2    0  501  0.70303174571E+02  0.71372563279E+01 -0.24887282928E+03  0.31122365260E+03  0.17300000000E+03 0. -1.
</event>
<event>
 4    1  0.1116913E+000  0.1000000E+03  0.7546771E-02  0.1280296E+00
         -1   -1    0    0    0  501 -0.00000000000E+00  0.00000000000E+00  0.37025483069E+03  0.37025483069E+03  0.00000000000E+00 0.  1.
          1   -1    0    0  502    0  0.00000000000E+00 -0.00000000000E+00 -0.95520863195E+02  0.95520863195E+02  0.00000000000E+00 0. -1.
          6    1    1    2  502    0 -0.19007440121E+02  0.68606896665E+02  0.16118321593E+03  0.24693565588E+03  0.17300000000E+03 0.  1.
         -6    1    1    2    0  501  0.19007440121E+02 -0.68606896665E+02  0.11355075156E+03  0.21884003800E+03  0.17300000000E+03 0. -1.
</event>
<event>
 4    1  0.1116913E+000  0.1000000E+03  0.7546771E-02  0.1280296E+00
         -2   -1    0    0    0  501 -0.00000000000E+00  0.00000000000E+00  0.12688532145E+03  0.12688532145E+03  0.00000000000E+00 0.  1.
          2   -1    0    0  502    0  0.00000000000E+00 -0.00000000000E+00 -0.30893555667E+03  0.30893555667E+03  0.00000000000E+00 0. -1.
          6    1    1    2  502    0  0.10571270623E+02  0.95486046447E+02 -0.98076886555E+02  0.22085609003E+03  0.17300000000E+03 0.  1.
         -6    1    1    2    0  501 -0.10571270623E+02 -0.95486046447E+02 -0.83973348669E+02  0.21496478808E+03  0.17300000000E+03 0. -1.
</event>
<event>
 4    1  0.1116913E+000  0.1000000E+03  0.7546771E-02  0.1280296E+00
         -2   -1    0    0    0  501 -0.00000000000E+00  0.00000000000E+00  0.16628398932E+03  0.16628398932E+03  0.00000000000E+00 0.  1.
          2   -1    0    0  502    0  0.00000000000E+00 -0.00000000000E+00 -0.27022686411E+03  0.27022686411E+03  0.00000000000E+00 0. -1.
          6    1    1    2  502    0  0.80168982403E+02  0.78708384017E+02 -0.17062558657E+01  0.20628617686E+03  0.17300000000E+03 0.  1.
         -6    1    1    2    0  501 -0.80168982403E+02 -0.78708384017E+02 -0.10223661893E+03  0.23022467657E+03  0.17300000000E+03 0. -1.
</event>
<event>
 4    1  0.1116913E+000  0.1000000E+03  0.7546771E-02  0.1280296E+00
          1   -1    0    0  502    0  0.00000000000E+00  0.00000000000E+00  0.17084479536E+03  0.17084479536E+03  0.00000000000E+00 0. -1.
         -1   -1    0    0    0  501 -0.00000000000E+00 -0.00000000000E+00 -0.39869196843E+03  0.39869196843E+03  0.00000000000E+00 0.  1.
          6    1    1    2  502    0  0.17527180163E+03 -0.74102037488E+02 -0.16240331408E+03  0.30416303660E+03  0.17300000000E+03 0.  1.
         -6    1    1    2    0  501 -0.17527180163E+03  0.74102037488E+02 -0.65443858980E+02  0.26537372719E+03  0.17300000000E+03 0. -1.
</event>
<event>
 4    1  0.1116913E+000  0.1000000E+03  0.7546771E-02  0.1280296E+00
         -2   -1    0    0    0  501 -0.00000000000E+00  0.00000000000E+00  0.64227660920E+02  0.64227660920E+02  0.00000000000E+00 0. -1.
          2   -1    0    0  502    0  0.00000000000E+00 -0.00000000000E+00 -0.81736057728E+03  0.81736057728E+03  0.00000000000E+00 0.  1.
          6    1    1    2  502    0  0.99915951064E-01 -0.13909824772E+03 -0.26740129624E+03  0.34753530142E+03  0.17300000000E+03 0. -1.
         -6    1    1    2    0  501 -0.99915951064E-01  0.13909824772E+03 -0.48573162012E+03  0.53405293679E+03  0.17300000000E+03 0.  1.
</event>
<event>
 4    1  0.1116913E+000  0.1000000E+03  0.7546771E-02  0.1280296E+00
         -1   -1    0    0    0  501 -0.00000000000E+00  0.00000000000E+00  0.24402813707E+03  0.24402813707E+03  0.00000000000E+00 0.  1.
          1   -1    0    0  502    0  0.00000000000E+00 -0.00000000000E+00 -0.12593693087E+04  0.12593693087E+04  0.00000000000E+00 0. -1.
          6    1    1    2  502    0  0.33522813029E+03  0.30019369762E+03 -0.87876425999E+03  0.10023221937E+04  0.17300000000E+03 0.  1.
         -6    1    1    2    0  501 -0.33522813029E+03 -0.30019369762E+03 -0.13657691169E+03  0.50107525207E+03  0.17300000000E+03 0. -1.
</event>
<event>
 4    1  0.1116913E+000  0.1000000E+03  0.7546771E-02  0.1280296E+00
         -2   -1    0    0    0  501 -0.00000000000E+00  0.00000000000E+00  0.20826398228E+02  0.20826398228E+02  0.00000000000E+00 0. -1.
          2   -1    0    0  502    0  0.00000000000E+00 -0.00000000000E+00 -0.14684355638E+04  0.14684355638E+04  0.00000000000E+00 0.  1.
          6    1    1    2  502    0 -0.23828832417E+02  0.91147763995E+01 -0.73030613330E+03  0.75095069128E+03  0.17300000000E+03 0. -1.
         -6    1    1    2    0  501  0.23828832417E+02 -0.91147763995E+01 -0.71730303229E+03  0.73831127076E+03  0.17300000000E+03 0. -1.
</event>
<event>
 4    1  0.1116913E+000  0.1000000E+03  0.7546771E-02  0.1280296E+00
         -2   -1    0    0    0  501 -0.00000000000E+00  0.00000000000E+00  0.98054583572E+02  0.98054583572E+02  0.00000000000E+00 0. -1.
          2   -1    0    0  502    0  0.00000000000E+00 -0.00000000000E+00 -0.78785591394E+03  0.78785591394E+03  0.00000000000E+00 0.  1.
          6    1    1    2  502    0 -0.20733467786E+03  0.18546090127E+02 -0.24420476864E+03  0.36454985274E+03  0.17300000000E+03 0. -1.
         -6    1    1    2    0  501  0.20733467786E+03 -0.18546090127E+02 -0.44559656172E+03  0.52136064478E+03  0.17300000000E+03 0. -1.
</event>
<event>
 4    1  0.1116913E+000  0.1000000E+03  0.7546771E-02  0.1280296E+00
          1   -1    0    0  502    0  0.00000000000E+00  0.00000000000E+00  0.16004047521E+04  0.16004047521E+04  0.00000000000E+00 0.  1.
         -1   -1    0    0    0  501 -0.00000000000E+00 -0.00000000000E+00 -0.29658238052E+02  0.29658238052E+02  0.00000000000E+00 0. -1.
          6    1    1    2  502    0 -0.83589529819E+02 -0.76791794218E+02  0.10405296572E+04  0.10609029912E+04  0.17300000000E+03 0.  1.
         -6    1    1    2    0  501  0.83589529819E+02  0.76791794218E+02  0.53021685678E+03  0.56915999892E+03  0.17300000000E+03 0. -1.
</event>
<event>
 4    1  0.1116913E+000  0.1000000E+03  0.7546771E-02  0.1280296E+00
         -2   -1    0    0    0  501 -0.00000000000E+00  0.00000000000E+00  0.67533919803E+03  0.67533919803E+03  0.00000000000E+00 0. -1.
          2   -1    0    0  502    0  0.00000000000E+00 -0.00000000000E+00 -0.10613341955E+03  0.10613341955E+03  0.00000000000E+00 0.  1.
          6    1    1    2  502    0 -0.91912587088E+02  0.70488390736E+02  0.38948800603E+02  0.21180780430E+03  0.17300000000E+03 0.  1.
         -6    1    1    2    0  501  0.91912587088E+02 -0.70488390736E+02  0.53025697789E+03  0.56966481328E+03  0.17300000000E+03 0. -1.
</event>
<event>
 4    1  0.1116913E+000  0.1000000E+03  0.7546771E-02  0.1280296E+00
         -2   -1    0    0    0  501 -0.00000000000E+00  0.00000000000E+00  0.23028083651E+03  0.23028083651E+03  0.00000000000E+00 0. -1.
          2   -1    0    0  502    0  0.00000000000E+00 -0.00000000000E+00 -0.34046445153E+03  0.34046445153E+03  0.00000000000E+00 0.  1.
          6    1    1    2  502    0  0.12342700552E+03 -0.16599500145E+03  0.21751830563E+02  0.27053781312E+03  0.17300000000E+03 0.  1.
         -6    1    1    2    0  501 -0.12342700552E+03  0.16599500145E+03 -0.13193544558E+03  0.30020747492E+03  0.17300000000E+03 0. -1.
</event>
<event>
 4    1  0.1116913E+000  0.1000000E+03  0.7546771E-02  0.1280296E+00
         -1   -1    0    0    0  501 -0.00000000000E+00  0.00000000000E+00  0.47570359064E+03  0.47570359064E+03  0.00000000000E+00 0. -1.
          1   -1    0    0  502    0  0.00000000000E+00 -0.00000000000E+00 -0.86969414714E+02  0.86969414714E+02  0.00000000000E+00 0.  1.
          6    1    1    2  502    0 -0.63931509512E+02 -0.83806633204E+02  0.21956477472E+03  0.29874484092E+03  0.17300000000E+03 0.  1.
         -6    1    1    2    0  501  0.63931509512E+02  0.83806633204E+02  0.16916940120E+03  0.26392816443E+03  0.17300000000E+03 0. -1.
</event>
<event>
 4    1  0.1116913E+000  0.1000000E+03  0.7546771E-02  0.1280296E+00
          2   -1    0    0  502    0  0.00000000000E+00  0.00000000000E+00  0.35289553375E+03  0.35289553375E+03  0.00000000000E+00 0.  1.
         -2   -1    0    0    0  501 -0.00000000000E+00 -0.00000000000E+00 -0.26261085145E+03  0.26261085145E+03  0.00000000000E+00 0. -1.
          6    1    1    2  502    0  0.36645222358E+02 -0.11470793515E+03  0.26719024071E+03  0.34032397423E+03  0.17300000000E+03 0. -1.
         -6    1    1    2    0  501 -0.36645222358E+02  0.11470793515E+03 -0.17690555841E+03  0.27518241097E+03  0.17300000000E+03 0.  1.
</event>
<event>
 4    1  0.1116913E+000  0.1000000E+03  0.7546771E-02  0.1280296E+00
          1   -1    0    0  502    0  0.00000000000E+00  0.00000000000E+00  0.35044505806E+03  0.35044505806E+03  0.00000000000E+00 0.  1.
         -1   -1    0    0    0  501 -0.00000000000E+00 -0.00000000000E+00 -0.25095818957E+03  0.25095818957E+03  0.00000000000E+00 0. -1.
          6    1    1    2  502    0 -0.15072023969E+03  0.17451334721E+03 -0.20846347330E+02  0.28902434016E+03  0.17300000000E+03 0. -1.
         -6    1    1    2    0  501  0.15072023969E+03 -0.17451334721E+03  0.12033321582E+03  0.31237890748E+03  0.17300000000E+03 0.  1.
</event>
<event>
 4    1  0.1116913E+000  0.1000000E+03  0.7546771E-02  0.1280296E+00
          2   -1    0    0  502    0  0.00000000000E+00  0.00000000000E+00  0.31634518885E+03  0.31634518885E+03  0.00000000000E+00 0.  1.
         -2   -1    0    0    0  501 -0.00000000000E+00 -0.00000000000E+00 -0.11078387133E+03  0.11078387133E+03  0.00000000000E+00 0. -1.
          6    1    1    2  502    0 -0.39509413266E+02 -0.28781924766E+02  0.16236014308E+03  0.24223791815E+03  0.17300000000E+03 0. -1.
         -6    1    1    2    0  501  0.39509413266E+02  0.28781924766E+02  0.43201174439E+02  0.18489114203E+03  0.17300000000E+03 0.  1.
</event>
<event>
 4    1  0.1116913E+000  0.1000000E+03  0.7546771E-02  0.1280296E+00
          2   -1    0    0  502    0  0.00000000000E+00  0.00000000000E+00  0.21049545012E+03  0.21049545012E+03  0.00000000000E+00 0.  1.
         -2   -1    0    0    0  501 -0.00000000000E+00 -0.00000000000E+00 -0.17067483556E+03  0.17067483556E+03  0.00000000000E+00 0. -1.
          6    1    1    2  502    0 -0.68196444240E+02 -0.10538625713E+02 -0.15432175424E+02  0.18689293640E+03  0.17300000000E+03 0.  1.
         -6    1    1    2    0  501  0.68196444240E+02  0.10538625713E+02  0.55252789982E+02  0.19427734927E+03  0.17300000000E+03 0. -1.
</event>
<event>
 4    1  0.1116913E+000  0.1000000E+03  0.7546771E-02  0.1280296E+00
          1   -1    0    0  502    0  0.00000000000E+00  0.00000000000E+00  0.83405635612E+03  0.83405635612E+03  0.00000000000E+00 0.  1.
         -1   -1    0    0    0  501 -0.00000000000E+00 -0.00000000000E+00 -0.40646038691E+02  0.40646038691E+02  0.00000000000E+00 0. -1.
          6    1    1    2  502    0  0.36550368372E+00 -0.17761478642E+02  0.25307180530E+03  0.30706667412E+03  0.17300000000E+03 0. -1.
         -6    1    1    2    0  501 -0.36550368372E+00  0.17761478642E+02  0.54033851212E+03  0.56763572069E+03  0.17300000000E+03 0.  1.
</event>
<event>
 4    1  0.1116913E+000  0.1000000E+03  0.7546771E-02  0.1280296E+00
          2   -1    0    0  502    0  0.00000000000E+00  0.00000000000E+00  0.11906010028E+04  0.11906010028E+04  0.00000000000E+00 0.  1.
         -2   -1    0    0    0  501 -0.00000000000E+00 -0.00000000000E+00 -0.31813032834E+02  0.31813032834E+02  0.00000000000E+00 0. -1.
          6    1    1    2  502    0  0.64596477972E+02  0.61324000063E+02  0.59126619575E+03  0.62246128569E+03  0.17300000000E+03 0. -1.
         -6    1    1    2    0  501 -0.64596477972E+02 -0.61324000063E+02  0.56752177418E+03  0.59995274991E+03  0.17300000000E+03 0.  1.
</event>
<event>
 4    1  0.1116913E+000  0.1000000E+03  0.7546771E-02  0.1280296E+00
          2   -1    0    0  502    0  0.00000000000E+00  0.00000000000E+00  0.10610136613E+04  0.10610136613E+04  0.00000000000E+00 0. -1.
         -2   -1    0    0    0  501 -0.00000000000E+00 -0.00000000000E+00 -0.62680087014E+02  0.62680087014E+02  0.00000000000E+00 0.  1.
          6    1    1    2  502    0  0.17434521336E+03 -0.48713132820E+02  0.36475454559E+03  0.44242976986E+03  0.17300000000E+03 0.  1.
         -6    1    1    2    0  501 -0.17434521336E+03  0.48713132820E+02  0.63357902866E+03  0.68126397842E+03  0.17300000000E+03 0. -1.
</event>
<event>
 4    1  0.1116913E+000  0.1000000E+03  0.7546771E-02  0.1280296E+00
          2   -1    0    0  502    0  0.00000000000E+00  0.00000000000E+00  0.36741519148E+02  0.36741519148E+02  0.00000000000E+00 0. -1.
         -2   -1    0    0    0  501 -0.00000000000E+00 -0.00000000000E+00 -0.89216705093E+03  0.89216705093E+03  0.00000000000E+00 0.  1.
          6    1    1    2  502    0  0.48214763146E+02  0.18902594189E+01 -0.48634229980E+03  0.51844582073E+03  0.17300000000E+03 0.  1.
         -6    1    1    2    0  501 -0.48214763146E+02 -0.18902594189E+01 -0.36908323198E+03  0.41046274934E+03  0.17300000000E+03 0. -1.
</event>
<event>
 4    1  0.1116913E+000  0.1000000E+03  0.7546771E-02  0.1280296E+00
          2   -1    0    0  502    0  0.00000000000E+00  0.00000000000E+00  0.74466810728E+02  0.74466810728E+02  0.00000000000E+00 0. -1.
         -2   -1    0    0    0  501 -0.00000000000E+00 -0.00000000000E+00 -0.62243850229E+03  0.62243850229E+03  0.00000000000E+00 0.  1.
          6    1    1    2  502    0  0.95863563754E+02  0.35150494986E+02 -0.14865216209E+03  0.24990367234E+03  0.17300000000E+03 0.  1.
         -6    1    1    2    0  501 -0.95863563754E+02 -0.35150494986E+02 -0.39931952947E+03  0.44700164068E+03  0.17300000000E+03 0. -1.
</event>
<event>
 4    1  0.1116913E+000  0.1000000E+03  0.7546771E-02  0.1280296E+00
          2   -1    0    0  502    0  0.00000000000E+00  0.00000000000E+00  0.29375227916E+04  0.29375227916E+04  0.00000000000E+00 0.  1.
         -2   -1    0    0    0  501 -0.00000000000E+00 -0.00000000000E+00 -0.12254000866E+02  0.12254000866E+02  0.00000000000E+00 0. -1.
          6    1    1    2  502    0 -0.22178402921E+02  0.13684964106E+02  0.89200606147E+03  0.90900108553E+03  0.17300000000E+03 0.  1.
         -6    1    1    2    0  501  0.22178402921E+02 -0.13684964106E+02  0.20332627292E+04  0.20407757069E+04  0.17300000000E+03 0. -1.
</event>
<event>
 4    1  0.1116913E+000  0.1000000E+03  0.7546771E-02  0.1280296E+00
         -2   -1    0    0    0  501 -0.00000000000E+00  0.00000000000E+00  0.10912920039E+02  0.10912920039E+02  0.00000000000E+00 0.  1.
          2   -1    0    0  502    0  0.00000000000E+00 -0.00000000000E+00 -0.32855862548E+04  0.32855862548E+04  0.00000000000E+00 0. -1.
          6    1    1    2  502    0 -0.62170651907E+02 -0.44631733134E+02 -0.17097250538E+04  0.17201586965E+04  0.17300000000E+03 0. -1.
         -6    1    1    2    0  501  0.62170651907E+02  0.44631733134E+02 -0.15649482810E+04  0.15763404784E+04  0.17300000000E+03 0.  1.
</event>
<event>
 4    1  0.1116913E+000  0.1000000E+03  0.7546771E-02  0.1280296E+00
         -2   -1    0    0    0  501 -0.00000000000E+00  0.00000000000E+00  0.35144042444E+02  0.35144042444E+02  0.00000000000E+00 0.  1.
          2   -1    0    0  502    0  0.00000000000E+00 -0.00000000000E+00 -0.15353174881E+04  0.15353174881E+04  0.00000000000E+00 0. -1.
          6    1    1    2  502    0  0.62677089925E+02  0.14082162925E+03 -0.69463173949E+03  0.73225774313E+03  0.17300000000E+03 0. -1.
         -6    1    1    2    0  501 -0.62677089925E+02 -0.14082162925E+03 -0.80554170617E+03  0.83820378742E+03  0.17300000000E+03 0.  1.
</event>
<event>
 4    1  0.1116913E+000  0.1000000E+03  0.7546771E-02  0.1280296E+00
         -2   -1    0    0    0  501 -0.00000000000E+00  0.00000000000E+00  0.38469257465E+03  0.38469257465E+03  0.00000000000E+00 0. -1.
          2   -1    0    0  502    0  0.00000000000E+00 -0.00000000000E+00 -0.89618578860E+02  0.89618578860E+02  0.00000000000E+00 0.  1.
          6    1    1    2  502    0  0.60809678867E+02 -0.12651909970E+02  0.11401754981E+03  0.21630277283E+03  0.17300000000E+03 0. -1.
         -6    1    1    2    0  501 -0.60809678867E+02  0.12651909970E+02  0.18105644597E+03  0.25800838068E+03  0.17300000000E+03 0.  1.
</event>
<event>
 4    1  0.1116913E+000  0.1000000E+03  0.7546771E-02  0.1280296E+00
          2   -1    0    0  502    0  0.00000000000E+00  0.00000000000E+00  0.69034393855E+03  0.69034393855E+03  0.00000000000E+00 0. -1.
         -2   -1    0    0    0  501 -0.00000000000E+00 -0.00000000000E+00 -0.11002939511E+03  0.11002939511E+03  0.00000000000E+00 0.  1.
          6    1    1    2  502    0 -0.10079949776E+03  0.16667606751E+03  0.42074048762E+03  0.49486665694E+03  0.17300000000E+03 0.  1.
         -6    1    1    2    0  501  0.10079949776E+03 -0.16667606751E+03  0.15957405582E+03  0.30550667672E+03  0.17300000000E+03 0. -1.
</event>
<event>
 4    1  0.1116913E+000  0.1000000E+03  0.7546771E-02  0.1280296E+00
          3   -1    0    0  502    0  0.00000000000E+00  0.00000000000E+00  0.14276680623E+03  0.14276680623E+03  0.00000000000E+00 0.  1.
         -3   -1    0    0    0  501 -0.00000000000E+00 -0.00000000000E+00 -0.26697112358E+03  0.26697112358E+03  0.00000000000E+00 0. -1.
          6    1    1    2  502    0  0.24969749423E+02  0.99894916788E+01 -0.15275216029E+03  0.23234780137E+03  0.17300000000E+03 0. -1.
         -6    1    1    2    0  501 -0.24969749423E+02 -0.99894916788E+01  0.28547842939E+02  0.17739012844E+03  0.17300000000E+03 0.  1.
</event>
<event>
 4    1  0.1116913E+000  0.1000000E+03  0.7546771E-02  0.1280296E+00
          2   -1    0    0  502    0  0.00000000000E+00  0.00000000000E+00  0.48361178754E+03  0.48361178754E+03  0.00000000000E+00 0.  1.
         -2   -1    0    0    0  501 -0.00000000000E+00 -0.00000000000E+00 -0.71506821319E+02  0.71506821319E+02  0.00000000000E+00 0. -1.
          6    1    1    2  502    0 -0.13917593493E+02  0.56501153641E+02  0.15293595489E+03  0.23812703767E+03  0.17300000000E+03 0. -1.
         -6    1    1    2    0  501  0.13917593493E+02 -0.56501153641E+02  0.25916901133E+03  0.31699157119E+03  0.17300000000E+03 0.  1.
</event>
<event>
 4    1  0.1116913E+000  0.1000000E+03  0.7546771E-02  0.1280296E+00
         -2   -1    0    0    0  501 -0.00000000000E+00  0.00000000000E+00  0.65386057906E+03  0.65386057906E+03  0.00000000000E+00 0.  1.
          2   -1    0    0  502    0  0.00000000000E+00 -0.00000000000E+00 -0.20475551768E+03  0.20475551768E+03  0.00000000000E+00 0. -1.
          6    1    1    2  502    0  0.26870442175E+03 -0.14370575979E+03  0.34816250052E+03  0.49396309420E+03  0.17300000000E+03 0.  1.
         -6    1    1    2    0  501 -0.26870442175E+03  0.14370575979E+03  0.10094256085E+03  0.36465300253E+03  0.17300000000E+03 0.  1.
</event>
<event>
 4    1  0.1116913E+000  0.1000000E+03  0.7546771E-02  0.1280296E+00
          1   -1    0    0  502    0  0.00000000000E+00  0.00000000000E+00  0.23458301755E+04  0.23458301755E+04  0.00000000000E+00 0. -1.
         -1   -1    0    0    0  501 -0.00000000000E+00 -0.00000000000E+00 -0.16856883842E+02  0.16856883842E+02  0.00000000000E+00 0.  1.
          6    1    1    2  502    0  0.41844164147E+01  0.31924068464E+02  0.17146928641E+04  0.17236987189E+04  0.17300000000E+03 0.  1.
         -6    1    1    2    0  501 -0.41844164147E+01 -0.31924068464E+02  0.61428042758E+03  0.63898834042E+03  0.17300000000E+03 0. -1.
</event>
<event>
 4    1  0.1116913E+000  0.1000000E+03  0.7546771E-02  0.1280296E+00
          1   -1    0    0  502    0  0.00000000000E+00  0.00000000000E+00  0.18502384263E+04  0.18502384263E+04  0.00000000000E+00 0. -1.
         -1   -1    0    0    0  501 -0.00000000000E+00 -0.00000000000E+00 -0.27683678466E+02  0.27683678466E+02  0.00000000000E+00 0.  1.
          6    1    1    2  502    0 -0.11749918183E+03 -0.85391025668E+02  0.96917061675E+03  0.99514741087E+03  0.17300000000E+03 0.  1.
         -6    1    1    2    0  501  0.11749918183E+03  0.85391025668E+02  0.85338413113E+03  0.88277469394E+03  0.17300000000E+03 0. -1.
</event>
<event>
 4    1  0.1116913E+000  0.1000000E+03  0.7546771E-02  0.1280296E+00
         -2   -1    0    0    0  501 -0.00000000000E+00  0.00000000000E+00  0.42497247620E+02  0.42497247620E+02  0.00000000000E+00 0.  1.
          2   -1    0    0  502    0  0.00000000000E+00 -0.00000000000E+00 -0.96581555026E+03  0.96581555026E+03  0.00000000000E+00 0. -1.
          6    1    1    2  502    0 -0.45956817631E+02 -0.94492107681E+02 -0.48316922807E+03  0.52385331005E+03  0.17300000000E+03 0. -1.
         -6    1    1    2    0  501  0.45956817631E+02  0.94492107681E+02 -0.44014907458E+03  0.48445948783E+03  0.17300000000E+03 0.  1.
</event>
<event>
 4    1  0.1116913E+000  0.1000000E+03  0.7546771E-02  0.1280296E+00
         -2   -1    0    0    0  501 -0.00000000000E+00  0.00000000000E+00  0.15341413579E+02  0.15341413579E+02  0.00000000000E+00 0. -1.
          2   -1    0    0  502    0  0.00000000000E+00 -0.00000000000E+00 -0.23667650506E+04  0.23667650506E+04  0.00000000000E+00 0.  1.
          6    1    1    2  502    0  0.47730041103E+02  0.11482390026E+02 -0.15695742606E+04  0.15798425116E+04  0.17300000000E+03 0. -1.
         -6    1    1    2    0  501 -0.47730041103E+02 -0.11482390026E+02 -0.78184937642E+03  0.80226395252E+03  0.17300000000E+03 0.  1.
</event>
<event>
 4    1  0.1116913E+000  0.1000000E+03  0.7546771E-02  0.1280296E+00
         -3   -1    0    0    0  501 -0.00000000000E+00  0.00000000000E+00  0.99706797216E+02  0.99706797216E+02  0.00000000000E+00 0. -1.
          3   -1    0    0  502    0  0.00000000000E+00 -0.00000000000E+00 -0.41899643088E+03  0.41899643088E+03  0.00000000000E+00 0.  1.
          6    1    1    2  502    0 -0.98593718867E+02  0.40127010396E+02 -0.18849323958E+03  0.27710936420E+03  0.17300000000E+03 0. -1.
         -6    1    1    2    0  501  0.98593718867E+02 -0.40127010396E+02 -0.13079639408E+03  0.24159386389E+03  0.17300000000E+03 0. -1.
</event>
<event>
 4    1  0.1116913E+000  0.1000000E+03  0.7546771E-02  0.1280296E+00
         -2   -1    0    0    0  501 -0.00000000000E+00  0.00000000000E+00  0.34042833271E+02  0.34042833271E+02  0.00000000000E+00 0. -1.
          2   -1    0    0  502    0  0.00000000000E+00 -0.00000000000E+00 -0.11661751229E+04  0.11661751229E+04  0.00000000000E+00 0.  1.
          6    1    1    2  502    0  0.15458181749E+02 -0.41969829382E+02 -0.30056927510E+03  0.34967314895E+03  0.17300000000E+03 0. -1.
         -6    1    1    2    0  501 -0.15458181749E+02  0.41969829382E+02 -0.83156301452E+03  0.85054480722E+03  0.17300000000E+03 0. -1.
</event>
<event>
 4    1  0.1116913E+000  0.1000000E+03  0.7546771E-02  0.1280296E+00
         -1   -1    0    0    0  501 -0.00000000000E+00  0.00000000000E+00  0.39034714459E+03  0.39034714459E+03  0.00000000000E+00 0.  1.
          1   -1    0    0  502    0  0.00000000000E+00 -0.00000000000E+00 -0.10314156856E+03  0.10314156856E+03  0.00000000000E+00 0. -1.
          6    1    1    2  502    0 -0.92069707629E+02  0.38410202003E+02  0.11963618922E+03  0.23279603186E+03  0.17300000000E+03 0. -1.
         -6    1    1    2    0  501  0.92069707629E+02 -0.38410202003E+02  0.16756938681E+03  0.26069268128E+03  0.17300000000E+03 0.  1.
</event>
<event>
 4    1  0.1116913E+000  0.1000000E+03  0.7546771E-02  0.1280296E+00
         -1   -1    0    0    0  501 -0.00000000000E+00  0.00000000000E+00  0.10985637872E+04  0.10985637872E+04  0.00000000000E+00 0.  1.
          1   -1    0    0  502    0  0.00000000000E+00 -0.00000000000E+00 -0.13563829835E+03  0.13563829835E+03  0.00000000000E+00 0. -1.
          6    1    1    2  502    0  0.31868382642E+03 -0.19108801168E+01  0.69303618138E+03  0.78217081344E+03  0.17300000000E+03 0. -1.
         -6    1    1    2    0  501 -0.31868382642E+03  0.19108801168E+01  0.26988930748E+03  0.45203127212E+03  0.17300000000E+03 0.  1.
</event>
<event>
 4    1  0.1116913E+000  0.1000000E+03  0.7546771E-02  0.1280296E+00
          2   -1    0    0  502    0  0.00000000000E+00  0.00000000000E+00  0.17086368487E+04  0.17086368487E+04  0.00000000000E+00 0. -1.
         -2   -1    0    0    0  501 -0.00000000000E+00 -0.00000000000E+00 -0.24989486547E+02  0.24989486547E+02  0.00000000000E+00 0.  1.
          6    1    1    2  502    0 -0.10619914057E+02 -0.58127986725E+02  0.12458717483E+04  0.12592128727E+04  0.17300000000E+03 0. -1.
         -6    1    1    2    0  501  0.10619914057E+02  0.58127986725E+02  0.43777561384E+03  0.47441346259E+03  0.17300000000E+03 0.  1.
</event>
<event>
 4    1  0.1116913E+000  0.1000000E+03  0.7546771E-02  0.1280296E+00
          1   -1    0    0  502    0  0.00000000000E+00  0.00000000000E+00  0.29071923067E+03  0.29071923067E+03  0.00000000000E+00 0. -1.
         -1   -1    0    0    0  501 -0.00000000000E+00 -0.00000000000E+00 -0.13257730470E+03  0.13257730470E+03  0.00000000000E+00 0.  1.
          6    1    1    2  502    0 -0.21079303905E+02  0.57017584599E+02  0.34649226980E+01  0.18340214747E+03  0.17300000000E+03 0. -1.
         -6    1    1    2    0  501  0.21079303905E+02 -0.57017584599E+02  0.15467700326E+03  0.23989438790E+03  0.17300000000E+03 0.  1.
</event>
<event>
 4    1  0.1116913E+000  0.1000000E+03  0.7546771E-02  0.1280296E+00
          2   -1    0    0  502    0  0.00000000000E+00  0.00000000000E+00  0.88366742651E+02  0.88366742651E+02  0.00000000000E+00 0. -1.
         -2   -1    0    0    0  501 -0.00000000000E+00 -0.00000000000E+00 -0.89504429468E+03  0.89504429468E+03  0.00000000000E+00 0.  1.
          6    1    1    2  502    0 -0.80190355923E+02  0.13218158049E+01 -0.76475650962E+03  0.78817114853E+03  0.17300000000E+03 0.  1.
         -6    1    1    2    0  501  0.80190355923E+02 -0.13218158049E+01 -0.41921042411E+02  0.19523988880E+03  0.17300000000E+03 0. -1.
</event>
<event>
 4    1  0.1116913E+000  0.1000000E+03  0.7546771E-02  0.1280296E+00
          1   -1    0    0  502    0  0.00000000000E+00  0.00000000000E+00  0.12315502039E+03  0.12315502039E+03  0.00000000000E+00 0. -1.
         -1   -1    0    0    0  501 -0.00000000000E+00 -0.00000000000E+00 -0.65959705686E+03  0.65959705686E+03  0.00000000000E+00 0.  1.
          6    1    1    2  502    0  0.16277834736E+03  0.13246809881E+03 -0.38521681254E+03  0.47155655041E+03  0.17300000000E+03 0. -1.
         -6    1    1    2    0  501 -0.16277834736E+03 -0.13246809881E+03 -0.15122522393E+03  0.31119552684E+03  0.17300000000E+03 0.  1.
</event>
<event>
 4    1  0.1116913E+000  0.1000000E+03  0.7546771E-02  0.1280296E+00
          2   -1    0    0  502    0  0.00000000000E+00  0.00000000000E+00  0.24162885512E+03  0.24162885512E+03  0.00000000000E+00 0.  1.
         -2   -1    0    0    0  501 -0.00000000000E+00 -0.00000000000E+00 -0.16022330639E+03  0.16022330639E+03  0.00000000000E+00 0. -1.
          6    1    1    2  502    0 -0.77191114441E+01  0.80755666762E+02  0.88649093656E+02  0.21063884780E+03  0.17300000000E+03 0. -1.
         -6    1    1    2    0  501  0.77191114441E+01 -0.80755666762E+02 -0.72435449225E+01  0.19121331371E+03  0.17300000000E+03 0.  1.
</event>
<event>
 4    1  0.1116913E+000  0.1000000E+03  0.7546771E-02  0.1280296E+00
          3   -1    0    0  502    0  0.00000000000E+00  0.00000000000E+00  0.76640611847E+03  0.76640611847E+03  0.00000000000E+00 0.  1.
         -3   -1    0    0    0  501 -0.00000000000E+00 -0.00000000000E+00 -0.11768433055E+03  0.11768433055E+03  0.00000000000E+00 0. -1.
          6    1    1    2  502    0  0.41828552268E+02  0.98456334750E+02  0.64958625853E+03  0.68068684791E+03  0.17300000000E+03 0. -1.
         -6    1    1    2    0  501 -0.41828552268E+02 -0.98456334750E+02 -0.86447061382E+00  0.20340360112E+03  0.17300000000E+03 0.  1.
</event>
<event>
 4    1  0.1116913E+000  0.1000000E+03  0.7546771E-02  0.1280296E+00
          1   -1    0    0  502    0  0.00000000000E+00  0.00000000000E+00  0.51732990934E+03  0.51732990934E+03  0.00000000000E+00 0.  1.
         -1   -1    0    0    0  501 -0.00000000000E+00 -0.00000000000E+00 -0.14548896416E+03  0.14548896416E+03  0.00000000000E+00 0. -1.
          6    1    1    2  502    0 -0.12566509270E+03 -0.17165680581E+03  0.17518232337E+03  0.32538534221E+03  0.17300000000E+03 0. -1.
         -6    1    1    2    0  501  0.12566509270E+03  0.17165680581E+03  0.19665862181E+03  0.33743353128E+03  0.17300000000E+03 0.  1.
</event>
<event>
 4    1  0.1116913E+000  0.1000000E+03  0.7546771E-02  0.1280296E+00
          1   -1    0    0  502    0  0.00000000000E+00  0.00000000000E+00  0.18680113821E+04  0.18680113821E+04  0.00000000000E+00 0.  1.
         -1   -1    0    0    0  501 -0.00000000000E+00 -0.00000000000E+00 -0.24242692064E+02  0.24242692064E+02  0.00000000000E+00 0. -1.
          6    1    1    2  502    0 -0.46698770471E+02  0.20406344232E+02  0.14240938405E+04  0.14354683767E+04  0.17300000000E+03 0. -1.
         -6    1    1    2    0  501  0.46698770471E+02 -0.20406344232E+02  0.41967484958E+03  0.45678569747E+03  0.17300000000E+03 0.  1.
</event>
<event>
 4    1  0.1116913E+000  0.1000000E+03  0.7546771E-02  0.1280296E+00
         -2   -1    0    0    0  501 -0.00000000000E+00  0.00000000000E+00  0.80220751098E+03  0.80220751098E+03  0.00000000000E+00 0.  1.
          2   -1    0    0  502    0  0.00000000000E+00 -0.00000000000E+00 -0.76629593793E+02  0.76629593793E+02  0.00000000000E+00 0. -1.
          6    1    1    2  502    0 -0.16928894118E+03 -0.97898864329E+01  0.26918798893E+03  0.36214052640E+03  0.17300000000E+03 0. -1.
         -6    1    1    2    0  501  0.16928894118E+03  0.97898864329E+01  0.45638992826E+03  0.51669657837E+03  0.17300000000E+03 0.  1.
</event>
<event>
 4    1  0.1116913E+000  0.1000000E+03  0.7546771E-02  0.1280296E+00
         -2   -1    0    0    0  501 -0.00000000000E+00  0.00000000000E+00  0.11914511624E+03  0.11914511624E+03  0.00000000000E+00 0.  1.
          2   -1    0    0  502    0  0.00000000000E+00 -0.00000000000E+00 -0.29659519716E+03  0.29659519716E+03  0.00000000000E+00 0. -1.
          6    1    1    2  502    0 -0.70530746019E+02 -0.13897797281E+02 -0.71553807007E+02  0.20054097387E+03  0.17300000000E+03 0. -1.
         -6    1    1    2    0  501  0.70530746019E+02  0.13897797281E+02 -0.10589627392E+03  0.21519933953E+03  0.17300000000E+03 0.  1.
</event>
<event>
 4    1  0.1116913E+000  0.1000000E+03  0.7546771E-02  0.1280296E+00
          2   -1    0    0  502    0  0.00000000000E+00  0.00000000000E+00  0.31291591810E+04  0.31291591810E+04  0.00000000000E+00 0. -1.
         -2   -1    0    0    0  501 -0.00000000000E+00 -0.00000000000E+00 -0.12462192086E+02  0.12462192086E+02  0.00000000000E+00 0.  1.
          6    1    1    2  502    0 -0.58841239213E+02  0.53756036347E+02  0.19728366304E+04  0.19820104372E+04  0.17300000000E+03 0. -1.
         -6    1    1    2    0  501  0.58841239213E+02 -0.53756036347E+02  0.11438603585E+04  0.11596109359E+04  0.17300000000E+03 0.  1.
</event>
<event>
 4    1  0.1116913E+000  0.1000000E+03  0.7546771E-02  0.1280296E+00
          3   -1    0    0  502    0  0.00000000000E+00  0.00000000000E+00  0.99014098148E+02  0.99014098148E+02  0.00000000000E+00 0. -1.
         -3   -1    0    0    0  501 -0.00000000000E+00 -0.00000000000E+00 -0.56560704116E+03  0.56560704116E+03  0.00000000000E+00 0.  1.
          6    1    1    2  502    0 -0.47613043365E+02 -0.15413206240E+03 -0.24326319359E+03  0.33930764199E+03  0.17300000000E+03 0. -1.
         -6    1    1    2    0  501  0.47613043365E+02  0.15413206240E+03 -0.22332974943E+03  0.32531349732E+03  0.17300000000E+03 0.  1.
</event>
<event>
 4    1  0.1116913E+000  0.1000000E+03  0.7546771E-02  0.1280296E+00
         -1   -1    0    0    0  501 -0.00000000000E+00  0.00000000000E+00  0.49207600587E+02  0.49207600587E+02  0.00000000000E+00 0. -1.
          1   -1    0    0  502    0  0.00000000000E+00 -0.00000000000E+00 -0.67960088740E+03  0.67960088740E+03  0.00000000000E+00 0.  1.
          6    1    1    2  502    0 -0.28866092473E+02  0.15941354981E+02 -0.41332843990E+03  0.44928473970E+03  0.17300000000E+03 0.  1.
         -6    1    1    2    0  501  0.28866092473E+02 -0.15941354981E+02 -0.21706484691E+03  0.27952374829E+03  0.17300000000E+03 0. -1.
</event>
<event>
 4    1  0.1116913E+000  0.1000000E+03  0.7546771E-02  0.1280296E+00
         -1   -1    0    0    0  501 -0.00000000000E+00  0.00000000000E+00  0.73435126260E+03  0.73435126260E+03  0.00000000000E+00 0. -1.
          1   -1    0    0  502    0  0.00000000000E+00 -0.00000000000E+00 -0.13360815446E+03  0.13360815446E+03  0.00000000000E+00 0.  1.
          6    1    1    2  502    0 -0.12517948256E+03  0.22061900867E+03  0.38626774397E+03  0.49343127168E+03  0.17300000000E+03 0.  1.
         -6    1    1    2    0  501  0.12517948256E+03 -0.22061900867E+03  0.21447536418E+03  0.37452814538E+03  0.17300000000E+03 0. -1.
</event>
<event>
 4    1  0.1116913E+000  0.1000000E+03  0.7546771E-02  0.1280296E+00
          2   -1    0    0  502    0  0.00000000000E+00  0.00000000000E+00  0.54797954577E+03  0.54797954577E+03  0.00000000000E+00 0.  1.
         -2   -1    0    0    0  501 -0.00000000000E+00 -0.00000000000E+00 -0.14309343784E+03  0.14309343784E+03  0.00000000000E+00 0. -1.
          6    1    1    2  502    0 -0.64347801918E+02  0.14389331395E+03  0.12728217918E+02  0.23438629000E+03  0.17300000000E+03 0. -1.
         -6    1    1    2    0  501  0.64347801918E+02 -0.14389331395E+03  0.39215789002E+03  0.45668669361E+03  0.17300000000E+03 0.  1.
</event>
<event>
 4    1  0.1116913E+000  0.1000000E+03  0.7546771E-02  0.1280296E+00
         -2   -1    0    0    0  501 -0.00000000000E+00  0.00000000000E+00  0.34900362911E+02  0.34900362911E+02  0.00000000000E+00 0.  1.
          2   -1    0    0  502    0  0.00000000000E+00 -0.00000000000E+00 -0.13851461927E+04  0.13851461927E+04  0.00000000000E+00 0. -1.
          6    1    1    2  502    0  0.21176535747E+02  0.13328312046E+03 -0.72082295827E+03  0.75347698905E+03  0.17300000000E+03 0. -1.
         -6    1    1    2    0  501 -0.21176535747E+02 -0.13328312046E+03 -0.62942287153E+03  0.66656956656E+03  0.17300000000E+03 0.  1.
</event>
<event>
 4    1  0.1116913E+000  0.1000000E+03  0.7546771E-02  0.1280296E+00
         -1   -1    0    0    0  501 -0.00000000000E+00  0.00000000000E+00  0.41083000475E+02  0.41083000475E+02  0.00000000000E+00 0.  1.
          1   -1    0    0  502    0  0.00000000000E+00 -0.00000000000E+00 -0.84820333326E+03  0.84820333326E+03  0.00000000000E+00 0. -1.
          6    1    1    2  502    0 -0.28425050736E+02  0.26043797466E+02 -0.54309125436E+03  0.57128221874E+03  0.17300000000E+03 0. -1.
         -6    1    1    2    0  501  0.28425050736E+02 -0.26043797466E+02 -0.26402907843E+03  0.31800411500E+03  0.17300000000E+03 0.  1.
</event>
<event>
 4    1  0.1116913E+000  0.1000000E+03  0.7546771E-02  0.1280296E+00
         -3   -1    0    0    0  501 -0.00000000000E+00  0.00000000000E+00  0.66042535372E+02  0.66042535372E+02  0.00000000000E+00 0.  1.
          3   -1    0    0  502    0  0.00000000000E+00 -0.00000000000E+00 -0.85696501167E+03  0.85696501167E+03  0.00000000000E+00 0. -1.
          6    1    1    2  502    0  0.15322601182E+03 -0.53859735277E+02 -0.36253640691E+03  0.43329058161E+03  0.17300000000E+03 0. -1.
         -6    1    1    2    0  501 -0.15322601182E+03  0.53859735277E+02 -0.42838606939E+03  0.48971696543E+03  0.17300000000E+03 0.  1.
</event>
<event>
 4    1  0.1116913E+000  0.1000000E+03  0.7546771E-02  0.1280296E+00
          1   -1    0    0  502    0  0.00000000000E+00  0.00000000000E+00  0.28359426134E+04  0.28359426134E+04  0.00000000000E+00 0.  1.
         -1   -1    0    0    0  501 -0.00000000000E+00 -0.00000000000E+00 -0.16172205660E+02  0.16172205660E+02  0.00000000000E+00 0. -1.
          6    1    1    2  502    0 -0.10709618007E+03  0.60945128447E+02  0.15923136369E+04  0.16064170127E+04  0.17300000000E+03 0. -1.
         -6    1    1    2    0  501  0.10709618007E+03 -0.60945128447E+02  0.12274567709E+04  0.12456978064E+04  0.17300000000E+03 0.  1.
</event>
<event>
 4    1  0.1116913E+000  0.1000000E+03  0.7546771E-02  0.1280296E+00
          2   -1    0    0  502    0  0.00000000000E+00  0.00000000000E+00  0.19416173662E+04  0.19416173662E+04  0.00000000000E+00 0.  1.
         -2   -1    0    0    0  501 -0.00000000000E+00 -0.00000000000E+00 -0.28503124842E+02  0.28503124842E+02  0.00000000000E+00 0. -1.
          6    1    1    2  502    0 -0.32172425267E+02 -0.37194380177E+02  0.32159418977E+03  0.36847022914E+03  0.17300000000E+03 0. -1.
         -6    1    1    2    0  501  0.32172425267E+02  0.37194380177E+02  0.15915200515E+04  0.16016502619E+04  0.17300000000E+03 0.  1.
</event>
<event>
 4    1  0.1116913E+000  0.1000000E+03  0.7546771E-02  0.1280296E+00
          2   -1    0    0  502    0  0.00000000000E+00  0.00000000000E+00  0.10986213330E+04  0.10986213330E+04  0.00000000000E+00 0.  1.
         -2   -1    0    0    0  501 -0.00000000000E+00 -0.00000000000E+00 -0.44349197489E+02  0.44349197489E+02  0.00000000000E+00 0. -1.
          6    1    1    2  502    0 -0.12011703208E+03  0.60010092673E+02  0.45554269021E+03  0.50544777695E+03  0.17300000000E+03 0. -1.
         -6    1    1    2    0  501  0.12011703208E+03 -0.60010092673E+02  0.59872944534E+03  0.63752275358E+03  0.17300000000E+03 0. -1.
</event>
<event>
 4    1  0.1116913E+000  0.1000000E+03  0.7546771E-02  0.1280296E+00
          2   -1    0    0  502    0  0.00000000000E+00  0.00000000000E+00  0.39302053611E+04  0.39302053611E+04  0.00000000000E+00 0.  1.
         -2   -1    0    0    0  501 -0.00000000000E+00 -0.00000000000E+00 -0.25280456848E+02  0.25280456848E+02  0.00000000000E+00 0. -1.
          6    1    1    2  502    0  0.12660939307E+03  0.22144863168E+03  0.15382140842E+04  0.15687896621E+04  0.17300000000E+03 0.  1.
         -6    1    1    2    0  501 -0.12660939307E+03 -0.22144863168E+03  0.23667108200E+04  0.23866961559E+04  0.17300000000E+03 0. -1.
</event>
<event>
 4    1  0.1116913E+000  0.1000000E+03  0.7546771E-02  0.1280296E+00
          1   -1    0    0  502    0  0.00000000000E+00  0.00000000000E+00  0.79328605177E+03  0.79328605177E+03  0.00000000000E+00 0.  1.
         -1   -1    0    0    0  501 -0.00000000000E+00 -0.00000000000E+00 -0.46092943016E+02  0.46092943016E+02  0.00000000000E+00 0. -1.
          6    1    1    2  502    0 -0.91387854848E+01 -0.38538514106E+02  0.21736166008E+03  0.28061330286E+03  0.17300000000E+03 0.  1.
         -6    1    1    2    0  501  0.91387854848E+01  0.38538514106E+02  0.52983144867E+03  0.55876569192E+03  0.17300000000E+03 0. -1.
</event>
<event>
 4    1  0.1116913E+000  0.1000000E+03  0.7546771E-02  0.1280296E+00
          2   -1    0    0  502    0  0.00000000000E+00  0.00000000000E+00  0.13001127867E+04  0.13001127867E+04  0.00000000000E+00 0.  1.
         -2   -1    0    0    0  501 -0.00000000000E+00 -0.00000000000E+00 -0.31558448023E+02  0.31558448023E+02  0.00000000000E+00 0. -1.
          6    1    1    2  502    0  0.44162143850E+01  0.40275628687E+02  0.31457962856E+03  0.36129070279E+03  0.17300000000E+03 0.  1.
         -6    1    1    2    0  501 -0.44162143850E+01 -0.40275628687E+02  0.95397471013E+03  0.97038053195E+03  0.17300000000E+03 0. -1.
</event>
<event>
 4    1  0.1116913E+000  0.1000000E+03  0.7546771E-02  0.1280296E+00
          2   -1    0    0  502    0  0.00000000000E+00  0.00000000000E+00  0.40290715386E+03  0.40290715386E+03  0.00000000000E+00 0.  1.
         -2   -1    0    0    0  501 -0.00000000000E+00 -0.00000000000E+00 -0.17918712196E+04  0.17918712196E+04  0.00000000000E+00 0. -1.
          6    1    1    2  502    0 -0.23180959941E+03  0.52448777640E+03 -0.14728430326E+04  0.15899744390E+04  0.17300000000E+03 0.  1.
         -6    1    1    2    0  501  0.23180959941E+03 -0.52448777640E+03  0.83878966925E+02  0.60480393440E+03  0.17300000000E+03 0. -1.
</event>
<event>
 4    1  0.1116913E+000  0.1000000E+03  0.7546771E-02  0.1280296E+00
          1   -1    0    0  502    0  0.00000000000E+00  0.00000000000E+00  0.23547659043E+03  0.23547659043E+03  0.00000000000E+00 0. -1.
         -1   -1    0    0    0  501 -0.00000000000E+00 -0.00000000000E+00 -0.22451768953E+03  0.22451768953E+03  0.00000000000E+00 0.  1.
          6    1    1    2  502    0 -0.14386126658E+03  0.81948530178E+01  0.52145030846E+02  0.23110890048E+03  0.17300000000E+03 0.  1.
         -6    1    1    2    0  501  0.14386126658E+03 -0.81948530178E+01 -0.41186129949E+02  0.22888537948E+03  0.17300000000E+03 0. -1.
</event>
<event>
 4    1  0.1116913E+000  0.1000000E+03  0.7546771E-02  0.1280296E+00
          1   -1    0    0  502    0  0.00000000000E+00  0.00000000000E+00  0.26770152782E+03  0.26770152782E+03  0.00000000000E+00 0. -1.
         -1   -1    0    0    0  501 -0.00000000000E+00 -0.00000000000E+00 -0.23934378499E+03  0.23934378499E+03  0.00000000000E+00 0.  1.
          6    1    1    2  502    0  0.16527820627E+03  0.82155912258E+02  0.53777456953E+01  0.25303043204E+03  0.17300000000E+03 0.  1.
         -6    1    1    2    0  501 -0.16527820627E+03 -0.82155912258E+02  0.22979997128E+02  0.25401488078E+03  0.17300000000E+03 0. -1.
</event>
<event>
 4    1  0.1116913E+000  0.1000000E+03  0.7546771E-02  0.1280296E+00
          1   -1    0    0  502    0  0.00000000000E+00  0.00000000000E+00  0.41086745968E+02  0.41086745968E+02  0.00000000000E+00 0. -1.
         -1   -1    0    0    0  501 -0.00000000000E+00 -0.00000000000E+00 -0.93036461305E+03  0.93036461305E+03  0.00000000000E+00 0.  1.
          6    1    1    2  502    0  0.34953878639E+02  0.79723092381E+02 -0.37801794246E+03  0.42474004981E+03  0.17300000000E+03 0. -1.
         -6    1    1    2    0  501 -0.34953878639E+02 -0.79723092381E+02 -0.51125992462E+03  0.54671130921E+03  0.17300000000E+03 0. -1.
</event>
<event>
 4    1  0.1116913E+000  0.1000000E+03  0.7546771E-02  0.1280296E+00
          2   -1    0    0  502    0  0.00000000000E+00  0.00000000000E+00  0.52334315443E+03  0.52334315443E+03  0.00000000000E+00 0.  1.
         -2   -1    0    0    0  501 -0.00000000000E+00 -0.00000000000E+00 -0.16616033266E+03  0.16616033266E+03  0.00000000000E+00 0. -1.
          6    1    1    2  502    0 -0.19577022192E+03  0.56620305912E+02  0.33049583727E+02  0.26935685218E+03  0.17300000000E+03 0. -1.
         -6    1    1    2    0  501  0.19577022192E+03 -0.56620305912E+02  0.32413323804E+03  0.42014663492E+03  0.17300000000E+03 0.  1.
</event>
<event>
 4    1  0.1116913E+000  0.1000000E+03  0.7546771E-02  0.1280296E+00
          1   -1    0    0  502    0  0.00000000000E+00  0.00000000000E+00  0.30805179913E+03  0.30805179913E+03  0.00000000000E+00 0.  1.
         -1   -1    0    0    0  501 -0.00000000000E+00 -0.00000000000E+00 -0.31035384797E+03  0.31035384797E+03  0.00000000000E+00 0. -1.
          6    1    1    2  502    0 -0.24462055347E+03 -0.31195999081E+02  0.68589373453E+02  0.30894321110E+03  0.17300000000E+03 0. -1.
         -6    1    1    2    0  501  0.24462055347E+03  0.31195999081E+02 -0.70891422294E+02  0.30946243599E+03  0.17300000000E+03 0.  1.
</event>
<event>
 4    1  0.1116913E+000  0.1000000E+03  0.7546771E-02  0.1280296E+00
         -2   -1    0    0    0  501 -0.00000000000E+00  0.00000000000E+00  0.41619124796E+02  0.41619124796E+02  0.00000000000E+00 0. -1.
          2   -1    0    0  502    0  0.00000000000E+00 -0.00000000000E+00 -0.12307840709E+04  0.12307840709E+04  0.00000000000E+00 0.  1.
          6    1    1    2  502    0 -0.43519779728E+02 -0.13361144491E+03 -0.48394394595E+03  0.53280083733E+03  0.17300000000E+03 0.  1.
         -6    1    1    2    0  501  0.43519779728E+02  0.13361144491E+03 -0.70522100012E+03  0.73960235833E+03  0.17300000000E+03 0.  1.
</event>
<event>
 4    1  0.1116913E+000  0.1000000E+03  0.7546771E-02  0.1280296E+00
          2   -1    0    0  502    0  0.00000000000E+00  0.00000000000E+00  0.11916404535E+03  0.11916404535E+03  0.00000000000E+00 0.  1.
         -2   -1    0    0    0  501 -0.00000000000E+00 -0.00000000000E+00 -0.39831978042E+03  0.39831978042E+03  0.00000000000E+00 0. -1.
          6    1    1    2  502    0  0.10662219271E+03 -0.75397193022E+02 -0.11346725655E+03  0.24465658995E+03  0.17300000000E+03 0.  1.
         -6    1    1    2    0  501 -0.10662219271E+03  0.75397193022E+02 -0.16568847851E+03  0.27282723582E+03  0.17300000000E+03 0. -1.
</event>
<event>
 4    1  0.1116913E+000  0.1000000E+03  0.7546771E-02  0.1280296E+00
          2   -1    0    0  502    0  0.00000000000E+00  0.00000000000E+00  0.94028090985E+03  0.94028090985E+03  0.00000000000E+00 0.  1.
         -2   -1    0    0    0  501 -0.00000000000E+00 -0.00000000000E+00 -0.43869894474E+02  0.43869894474E+02  0.00000000000E+00 0. -1.
          6    1    1    2  502    0  0.83684465027E+02 -0.25918885976E+02  0.59450289708E+03  0.62532997127E+03  0.17300000000E+03 0.  1.
         -6    1    1    2    0  501 -0.83684465027E+02  0.25918885976E+02  0.30190811830E+03  0.35882083305E+03  0.17300000000E+03 0. -1.
</event>
<event>
 4    1  0.1116913E+000  0.1000000E+03  0.7546771E-02  0.1280296E+00
         -1   -1    0    0    0  501 -0.00000000000E+00  0.00000000000E+00  0.79847579868E+03  0.79847579868E+03  0.00000000000E+00 0. -1.
          1   -1    0    0  502    0  0.00000000000E+00 -0.00000000000E+00 -0.63704503819E+02  0.63704503819E+02  0.00000000000E+00 0.  1.
          6    1    1    2  502    0  0.26821530444E+02 -0.38377795045E+02  0.62908209600E+03  0.65411431199E+03  0.17300000000E+03 0. -1.
         -6    1    1    2    0  501 -0.26821530444E+02  0.38377795045E+02  0.10568919886E+03  0.20806599050E+03  0.17300000000E+03 0.  1.
</event>
<event>
 4    1  0.1116913E+000  0.1000000E+03  0.7546771E-02  0.1280296E+00
         -2   -1    0    0    0  501 -0.00000000000E+00  0.00000000000E+00  0.43277947507E+03  0.43277947507E+03  0.00000000000E+00 0. -1.
          2   -1    0    0  502    0  0.00000000000E+00 -0.00000000000E+00 -0.16561724888E+03  0.16561724888E+03  0.00000000000E+00 0.  1.
          6    1    1    2  502    0  0.13651702305E+03  0.13434374030E+03  0.21309030692E+03  0.33469630569E+03  0.17300000000E+03 0. -1.
         -6    1    1    2    0  501 -0.13651702305E+03 -0.13434374030E+03  0.54071919270E+02  0.26370041827E+03  0.17300000000E+03 0.  1.
</event>
<event>
 4    1  0.1116913E+000  0.1000000E+03  0.7546771E-02  0.1280296E+00
          2   -1    0    0  502    0  0.00000000000E+00  0.00000000000E+00  0.24808370837E+02  0.24808370837E+02  0.00000000000E+00 0. -1.
         -2   -1    0    0    0  501 -0.00000000000E+00 -0.00000000000E+00 -0.18850994656E+04  0.18850994656E+04  0.00000000000E+00 0.  1.
          6    1    1    2  502    0  0.53198744698E+02  0.54913928217E+02 -0.46718218028E+03  0.50401769366E+03  0.17300000000E+03 0.  1.
         -6    1    1    2    0  501 -0.53198744698E+02 -0.54913928217E+02 -0.13931089145E+04  0.14058901428E+04  0.17300000000E+03 0. -1.
</event>
<event>
 4    1  0.1116913E+000  0.1000000E+03  0.7546771E-02  0.1280296E+00
          3   -1    0    0  502    0  0.00000000000E+00  0.00000000000E+00  0.86323497222E+03  0.86323497222E+03  0.00000000000E+00 0. -1.
         -3   -1    0    0    0  501 -0.00000000000E+00 -0.00000000000E+00 -0.56957863940E+02  0.56957863940E+02  0.00000000000E+00 0.  1.
          6    1    1    2  502    0  0.11275196958E+03 -0.72667629563E+02  0.47636483728E+03  0.52425761723E+03  0.17300000000E+03 0.  1.
         -6    1    1    2    0  501 -0.11275196958E+03  0.72667629563E+02  0.32991227100E+03  0.39593521893E+03  0.17300000000E+03 0. -1.
</event>
<event>
 4    1  0.1116913E+000  0.1000000E+03  0.7546771E-02  0.1280296E+00
          1   -1    0    0  502    0  0.00000000000E+00  0.00000000000E+00  0.50942595982E+03  0.50942595982E+03  0.00000000000E+00 0. -1.
         -1   -1    0    0    0  501 -0.00000000000E+00 -0.00000000000E+00 -0.10512672893E+03  0.10512672893E+03  0.00000000000E+00 0.  1.
          6    1    1    2  502    0 -0.54750615791E+02  0.89290440912E+02  0.35151876018E+03  0.40554266302E+03  0.17300000000E+03 0.  1.
         -6    1    1    2    0  501  0.54750615791E+02 -0.89290440912E+02  0.52780470714E+02  0.20901002573E+03  0.17300000000E+03 0. -1.
</event>
<event>
 4    1  0.1116913E+000  0.1000000E+03  0.7546771E-02  0.1280296E+00
          1   -1    0    0  502    0  0.00000000000E+00  0.00000000000E+00  0.10079334065E+04  0.10079334065E+04  0.00000000000E+00 0. -1.
         -1   -1    0    0    0  501 -0.00000000000E+00 -0.00000000000E+00 -0.42858964911E+02  0.42858964911E+02  0.00000000000E+00 0.  1.
          6    1    1    2  502    0  0.11246206491E+03 -0.80493541553E+01  0.42285257731E+03  0.47058029101E+03  0.17300000000E+03 0.  1.
         -6    1    1    2    0  501 -0.11246206491E+03  0.80493541553E+01  0.54222186428E+03  0.58021208041E+03  0.17300000000E+03 0. -1.
</event>
<event>
 4    1  0.1116913E+000  0.1000000E+03  0.7546771E-02  0.1280296E+00
          1   -1    0    0  502    0  0.00000000000E+00  0.00000000000E+00  0.93990629732E+02  0.93990629732E+02  0.00000000000E+00 0.  1.
         -1   -1    0    0    0  501 -0.00000000000E+00 -0.00000000000E+00 -0.47483240933E+03  0.47483240933E+03  0.00000000000E+00 0. -1.
          6    1    1    2  502    0  0.35473908436E+01  0.66055367499E+02 -0.32721824063E+03  0.37600089436E+03  0.17300000000E+03 0.  1.
         -6    1    1    2    0  501 -0.35473908436E+01 -0.66055367499E+02 -0.53623538969E+02  0.19282214471E+03  0.17300000000E+03 0. -1.
</event>
<event>
 4    1  0.1116913E+000  0.1000000E+03  0.7546771E-02  0.1280296E+00
          2   -1    0    0  502    0  0.00000000000E+00  0.00000000000E+00  0.69761524078E+03  0.69761524078E+03  0.00000000000E+00 0.  1.
         -2   -1    0    0    0  501 -0.00000000000E+00 -0.00000000000E+00 -0.57088407783E+02  0.57088407783E+02  0.00000000000E+00 0. -1.
          6    1    1    2  502    0 -0.16539850216E+02  0.85118065379E+02  0.22805325092E+03  0.29909185371E+03  0.17300000000E+03 0. -1.
         -6    1    1    2    0  501  0.16539850216E+02 -0.85118065379E+02  0.41247358208E+03  0.45561179485E+03  0.17300000000E+03 0.  1.
</event>
<event>
 4    1  0.1116913E+000  0.1000000E+03  0.7546771E-02  0.1280296E+00
          2   -1    0    0  502    0  0.00000000000E+00  0.00000000000E+00  0.24318306200E+04  0.24318306200E+04  0.00000000000E+00 0.  1.
         -2   -1    0    0    0  501 -0.00000000000E+00 -0.00000000000E+00 -0.40513852855E+02  0.40513852855E+02  0.00000000000E+00 0. -1.
          6    1    1    2  502    0  0.23355761861E+03 -0.24662987821E+02  0.73914651466E+03  0.79462191910E+03  0.17300000000E+03 0. -1.
         -6    1    1    2    0  501 -0.23355761861E+03  0.24662987821E+02  0.16521702524E+04  0.16777225537E+04  0.17300000000E+03 0.  1.
</event>
<event>
 4    1  0.1116913E+000  0.1000000E+03  0.7546771E-02  0.1280296E+00
          1   -1    0    0  502    0  0.00000000000E+00  0.00000000000E+00  0.21822146312E+04  0.21822146312E+04  0.00000000000E+00 0.  1.
         -1   -1    0    0    0  501 -0.00000000000E+00 -0.00000000000E+00 -0.17389917515E+02  0.17389917515E+02  0.00000000000E+00 0. -1.
          6    1    1    2  502    0  0.34539689277E+02  0.48644256203E+02  0.14594616371E+04  0.14708897049E+04  0.17300000000E+03 0. -1.
         -6    1    1    2    0  501 -0.34539689277E+02 -0.48644256203E+02  0.70536307662E+03  0.72871484385E+03  0.17300000000E+03 0.  1.
</event>
<event>
 4    1  0.1116913E+000  0.1000000E+03  0.7546771E-02  0.1280296E+00
          2   -1    0    0  502    0  0.00000000000E+00  0.00000000000E+00  0.68294999680E+03  0.68294999680E+03  0.00000000000E+00 0.  1.
         -2   -1    0    0    0  501 -0.00000000000E+00 -0.00000000000E+00 -0.17965073305E+03  0.17965073305E+03  0.00000000000E+00 0. -1.
          6    1    1    2  502    0  0.90103195482E+02 -0.13454447260E+03 -0.65979973826E+02  0.24597389677E+03  0.17300000000E+03 0. -1.
         -6    1    1    2    0  501 -0.90103195482E+02  0.13454447260E+03  0.56927923758E+03  0.61662683309E+03  0.17300000000E+03 0.  1.
</event>
<event>
 4    1  0.1116913E+000  0.1000000E+03  0.7546771E-02  0.1280296E+00
          2   -1    0    0  502    0  0.00000000000E+00  0.00000000000E+00  0.81491661089E+03  0.81491661089E+03  0.00000000000E+00 0.  1.
         -2   -1    0    0    0  501 -0.00000000000E+00 -0.00000000000E+00 -0.72227460338E+02  0.72227460338E+02  0.00000000000E+00 0. -1.
          6    1    1    2  502    0  0.14594696867E+03  0.61381820673E+02  0.25772090547E+03  0.34844986826E+03  0.17300000000E+03 0. -1.
         -6    1    1    2    0  501 -0.14594696867E+03 -0.61381820673E+02  0.48496824508E+03  0.53869420296E+03  0.17300000000E+03 0.  1.
</event>
<event>
 4    1  0.1116913E+000  0.1000000E+03  0.7546771E-02  0.1280296E+00
         -2   -1    0    0    0  501 -0.00000000000E+00  0.00000000000E+00  0.83950135354E+02  0.83950135354E+02  0.00000000000E+00 0.  1.
          2   -1    0    0  502    0  0.00000000000E+00 -0.00000000000E+00 -0.13626462698E+04  0.13626462698E+04  0.00000000000E+00 0. -1.
          6    1    1    2  502    0  0.71047389010E+02 -0.42097272636E+02 -0.43448512612E+02  0.19656216599E+03  0.17300000000E+03 0.  1.
         -6    1    1    2    0  501 -0.71047389010E+02  0.42097272636E+02 -0.12352476218E+04  0.12500342392E+04  0.17300000000E+03 0.  1.
</event>
<event>
 4    1  0.1116913E+000  0.1000000E+03  0.7546771E-02  0.1280296E+00
         -2   -1    0    0    0  501 -0.00000000000E+00  0.00000000000E+00  0.21403580184E+03  0.21403580184E+03  0.00000000000E+00 0.  1.
          2   -1    0    0  502    0  0.00000000000E+00 -0.00000000000E+00 -0.54703843725E+03  0.54703843725E+03  0.00000000000E+00 0. -1.
          6    1    1    2  502    0  0.21077464787E+03 -0.13766489270E+03 -0.33799330724E+03  0.45557222326E+03  0.17300000000E+03 0.  1.
         -6    1    1    2    0  501 -0.21077464787E+03  0.13766489270E+03  0.49906718269E+01  0.30550201582E+03  0.17300000000E+03 0.  1.
</event>
<event>
 4    1  0.1116913E+000  0.1000000E+03  0.7546771E-02  0.1280296E+00
          1   -1    0    0  502    0  0.00000000000E+00  0.00000000000E+00  0.31196756757E+03  0.31196756757E+03  0.00000000000E+00 0.  1.
         -1   -1    0    0    0  501 -0.00000000000E+00 -0.00000000000E+00 -0.16676024558E+03  0.16676024558E+03  0.00000000000E+00 0. -1.
          6    1    1    2  502    0 -0.13506655015E+03  0.61945936901E+02  0.68605292297E+02  0.23815112471E+03  0.17300000000E+03 0.  1.
         -6    1    1    2    0  501  0.13506655015E+03 -0.61945936901E+02  0.76602029692E+02  0.24057668844E+03  0.17300000000E+03 0. -1.
</event>
<event>
 4    1  0.1116913E+000  0.1000000E+03  0.7546771E-02  0.1280296E+00
          1   -1    0    0  502    0  0.00000000000E+00  0.00000000000E+00  0.14187142308E+03  0.14187142308E+03  0.00000000000E+00 0.  1.
         -1   -1    0    0    0  501 -0.00000000000E+00 -0.00000000000E+00 -0.48117499464E+03  0.48117499464E+03  0.00000000000E+00 0. -1.
          6    1    1    2  502    0  0.12138837444E+03  0.15212194099E+03 -0.19521741430E+03  0.32544594210E+03  0.17300000000E+03 0.  1.
         -6    1    1    2    0  501 -0.12138837444E+03 -0.15212194099E+03 -0.14408615725E+03  0.29760047562E+03  0.17300000000E+03 0. -1.
</event>
<event>
 4    1  0.1116913E+000  0.1000000E+03  0.7546771E-02  0.1280296E+00
          2   -1    0    0  502    0  0.00000000000E+00  0.00000000000E+00  0.95814627022E+03  0.95814627022E+03  0.00000000000E+00 0. -1.
         -2   -1    0    0    0  501 -0.00000000000E+00 -0.00000000000E+00 -0.85740223750E+02  0.85740223750E+02  0.00000000000E+00 0.  1.
          6    1    1    2  502    0  0.22409670863E+03 -0.12421929725E+02  0.35789832780E+03  0.45650175487E+03  0.17300000000E+03 0.  1.
         -6    1    1    2    0  501 -0.22409670863E+03  0.12421929725E+02  0.51450771867E+03  0.58738473910E+03  0.17300000000E+03 0. -1.
</event>
<event>
 4    1  0.1116913E+000  0.1000000E+03  0.7546771E-02  0.1280296E+00
          2   -1    0    0  502    0  0.00000000000E+00  0.00000000000E+00  0.62100276720E+03  0.62100276720E+03  0.00000000000E+00 0. -1.
         -2   -1    0    0    0  501 -0.00000000000E+00 -0.00000000000E+00 -0.11777789453E+03  0.11777789453E+03  0.00000000000E+00 0.  1.
          6    1    1    2  502    0  0.90088618356E+02  0.17884712342E+02 -0.30964109458E+01  0.19589387396E+03  0.17300000000E+03 0.  1.
         -6    1    1    2    0  501 -0.90088618356E+02 -0.17884712342E+02  0.50632128361E+03  0.54288678777E+03  0.17300000000E+03 0. -1.
</event>
<event>
 4    1  0.1116913E+000  0.1000000E+03  0.7546771E-02  0.1280296E+00
          1   -1    0    0  502    0  0.00000000000E+00  0.00000000000E+00  0.28908737998E+03  0.28908737998E+03  0.00000000000E+00 0. -1.
         -1   -1    0    0    0  501 -0.00000000000E+00 -0.00000000000E+00 -0.16786896173E+03  0.16786896173E+03  0.00000000000E+00 0.  1.
          6    1    1    2  502    0 -0.84050674564E+02 -0.10719952010E+03  0.53765119345E+02  0.22666261505E+03  0.17300000000E+03 0.  1.
         -6    1    1    2    0  501  0.84050674564E+02  0.10719952010E+03  0.67453298908E+02  0.23029372666E+03  0.17300000000E+03 0. -1.
</event>
<event>
 4    1  0.1116913E+000  0.1000000E+03  0.7546771E-02  0.1280296E+00
         -2   -1    0    0    0  501 -0.00000000000E+00  0.00000000000E+00  0.79321933849E+03  0.79321933849E+03  0.00000000000E+00 0. -1.
          2   -1    0    0  502    0  0.00000000000E+00 -0.00000000000E+00 -0.19843810383E+03  0.19843810383E+03  0.00000000000E+00 0.  1.
          6    1    1    2  502    0  0.10613631159E+03 -0.62744739057E+02  0.71614786205E+03  0.74699302489E+03  0.17300000000E+03 0.  1.
         -6    1    1    2    0  501 -0.10613631159E+03  0.62744739057E+02 -0.12136662739E+03  0.24466441744E+03  0.17300000000E+03 0. -1.
</event>
<event>
 4    1  0.1116913E+000  0.1000000E+03  0.7546771E-02  0.1280296E+00
          2   -1    0    0  502    0  0.00000000000E+00  0.00000000000E+00  0.22582972801E+04  0.22582972801E+04  0.00000000000E+00 0.  1.
         -2   -1    0    0    0  501 -0.00000000000E+00 -0.00000000000E+00 -0.49513976847E+02  0.49513976847E+02  0.00000000000E+00 0. -1.
          6    1    1    2  502    0 -0.15306854063E+03 -0.15083755170E+03  0.17564530088E+04  0.17779870971E+04  0.17300000000E+03 0. -1.
         -6    1    1    2    0  501  0.15306854063E+03  0.15083755170E+03  0.45233029443E+03  0.52982415988E+03  0.17300000000E+03 0. -1.
</event>
<event>
 4    1  0.1116913E+000  0.1000000E+03  0.7546771E-02  0.1280296E+00
         -2   -1    0    0    0  501 -0.00000000000E+00  0.00000000000E+00  0.50303367805E+02  0.50303367805E+02  0.00000000000E+00 0. -1.
          2   -1    0    0  502    0  0.00000000000E+00 -0.00000000000E+00 -0.76660467096E+03  0.76660467096E+03  0.00000000000E+00 0.  1.
          6    1    1    2  502    0  0.81764488718E+02  0.43329120932E+02 -0.34063031594E+03  0.39309140982E+03  0.17300000000E+03 0.  1.
         -6    1    1    2    0  501 -0.81764488718E+02 -0.43329120932E+02 -0.37567098721E+03  0.42381662894E+03  0.17300000000E+03 0.  1.
</event>
<event>
 4    1  0.1116913E+000  0.1000000E+03  0.7546771E-02  0.1280296E+00
         -2   -1    0    0    0  501 -0.00000000000E+00  0.00000000000E+00  0.10841446428E+03  0.10841446428E+03  0.00000000000E+00 0. -1.
          2   -1    0    0  502    0  0.00000000000E+00 -0.00000000000E+00 -0.48862891447E+03  0.48862891447E+03  0.00000000000E+00 0.  1.
          6    1    1    2  502    0 -0.13578963551E+03 -0.33848742483E+02 -0.26640922749E+03  0.34711300606E+03  0.17300000000E+03 0.  1.
         -6    1    1    2    0  501  0.13578963551E+03  0.33848742483E+02 -0.11380522271E+03  0.24993037270E+03  0.17300000000E+03 0.  1.
</event>
<event>
 4    1  0.1116913E+000  0.1000000E+03  0.7546771E-02  0.1280296E+00
          2   -1    0    0  502    0  0.00000000000E+00  0.00000000000E+00  0.19900179442E+04  0.19900179442E+04  0.00000000000E+00 0. -1.
         -2   -1    0    0    0  501 -0.00000000000E+00 -0.00000000000E+00 -0.66459779422E+02  0.66459779422E+02  0.00000000000E+00 0.  1.
          6    1    1    2  502    0  0.21833643235E+03 -0.74516206018E+02  0.33524725361E+03  0.44220265004E+03  0.17300000000E+03 0.  1.
         -6    1    1    2    0  501 -0.21833643235E+03  0.74516206018E+02  0.15883109111E+04  0.16142750736E+04  0.17300000000E+03 0. -1.
</event>
<event>
 4    1  0.1116913E+000  0.1000000E+03  0.7546771E-02  0.1280296E+00
          2   -1    0    0  502    0  0.00000000000E+00  0.00000000000E+00  0.24825067024E+04  0.24825067024E+04  0.00000000000E+00 0. -1.
         -2   -1    0    0    0  501 -0.00000000000E+00 -0.00000000000E+00 -0.12642483529E+02  0.12642483529E+02  0.00000000000E+00 0.  1.
          6    1    1    2  502    0  0.22328684971E+02  0.68953110243E+01  0.14473593464E+04  0.14578491668E+04  0.17300000000E+03 0.  1.
         -6    1    1    2    0  501 -0.22328684971E+02 -0.68953110243E+01  0.10225048725E+04  0.10373000192E+04  0.17300000000E+03 0. -1.
</event>
<event>
 4    1  0.1116913E+000  0.1000000E+03  0.7546771E-02  0.1280296E+00
          1   -1    0    0  502    0  0.00000000000E+00  0.00000000000E+00  0.52480254338E+03  0.52480254338E+03  0.00000000000E+00 0.  1.
         -1   -1    0    0    0  501 -0.00000000000E+00 -0.00000000000E+00 -0.75875226097E+02  0.75875226097E+02  0.00000000000E+00 0. -1.
          6    1    1    2  502    0 -0.98230387671E+02  0.31797880435E+01  0.24734858665E+03  0.31744234662E+03  0.17300000000E+03 0.  1.
         -6    1    1    2    0  501  0.98230387671E+02 -0.31797880435E+01  0.20157873064E+03  0.28323542286E+03  0.17300000000E+03 0. -1.
</event>
<event>
 4    1  0.1116913E+000  0.1000000E+03  0.7546771E-02  0.1280296E+00
          1   -1    0    0  502    0  0.00000000000E+00  0.00000000000E+00  0.19430279836E+03  0.19430279836E+03  0.00000000000E+00 0.  1.
         -1   -1    0    0    0  501 -0.00000000000E+00 -0.00000000000E+00 -0.19989502640E+03  0.19989502640E+03  0.00000000000E+00 0. -1.
          6    1    1    2  502    0  0.69062233195E+01  0.84738076338E+02  0.38231489715E+02  0.19651688047E+03  0.17300000000E+03 0.  1.
         -6    1    1    2    0  501 -0.69062233195E+01 -0.84738076338E+02 -0.43823717754E+02  0.19768094430E+03  0.17300000000E+03 0. -1.
</event>
<event>
 4    1  0.1116913E+000  0.1000000E+03  0.7546771E-02  0.1280296E+00
          1   -1    0    0  502    0  0.00000000000E+00  0.00000000000E+00  0.18293082823E+04  0.18293082823E+04  0.00000000000E+00 0. -1.
         -1   -1    0    0    0  501 -0.00000000000E+00 -0.00000000000E+00 -0.34089696087E+02  0.34089696087E+02  0.00000000000E+00 0.  1.
          6    1    1    2  502    0  0.17592673724E+03  0.28050886180E+02  0.79928633144E+03  0.83697354123E+03  0.17300000000E+03 0.  1.
         -6    1    1    2    0  501 -0.17592673724E+03 -0.28050886180E+02  0.99593225475E+03  0.10264244371E+04  0.17300000000E+03 0. -1.
</event>
<event>
 4    1  0.1116913E+000  0.1000000E+03  0.7546771E-02  0.1280296E+00
          1   -1    0    0  502    0  0.00000000000E+00  0.00000000000E+00  0.49716446562E+03  0.49716446562E+03  0.00000000000E+00 0. -1.
         -1   -1    0    0    0  501 -0.00000000000E+00 -0.00000000000E+00 -0.69999567004E+02  0.69999567004E+02  0.00000000000E+00 0.  1.
          6    1    1    2  502    0  0.25999959993E+02 -0.51426039962E+02  0.27346213413E+03  0.32868096128E+03  0.17300000000E+03 0.  1.
         -6    1    1    2    0  501 -0.25999959993E+02  0.51426039962E+02  0.15370276448E+03  0.23848307134E+03  0.17300000000E+03 0. -1.
</event>
<event>
 4    1  0.1116913E+000  0.1000000E+03  0.7546771E-02  0.1280296E+00
          2   -1    0    0  502    0  0.00000000000E+00  0.00000000000E+00  0.31765992865E+02  0.31765992865E+02  0.00000000000E+00 0.  1.
         -2   -1    0    0    0  501 -0.00000000000E+00 -0.00000000000E+00 -0.13616199997E+04  0.13616199997E+04  0.00000000000E+00 0. -1.
          6    1    1    2  502    0  0.11539941839E+03  0.19411445651E+01 -0.65873431416E+03  0.69078266514E+03  0.17300000000E+03 0.  1.
         -6    1    1    2    0  501 -0.11539941839E+03 -0.19411445651E+01 -0.67111969263E+03  0.70260332738E+03  0.17300000000E+03 0. -1.
</event>
<event>
 4    1  0.1116913E+000  0.1000000E+03  0.7546771E-02  0.1280296E+00
         -1   -1    0    0    0  501 -0.00000000000E+00  0.00000000000E+00  0.12439878239E+03  0.12439878239E+03  0.00000000000E+00 0. -1.
          1   -1    0    0  502    0  0.00000000000E+00 -0.00000000000E+00 -0.92172563954E+03  0.92172563954E+03  0.00000000000E+00 0.  1.
          6    1    1    2  502    0  0.13863101803E+02  0.27392496843E+03 -0.54926563003E+03  0.63784700850E+03  0.17300000000E+03 0.  1.
         -6    1    1    2    0  501 -0.13863101803E+02 -0.27392496843E+03 -0.24806122712E+03  0.40827741343E+03  0.17300000000E+03 0.  1.
</event>
<event>
 4    1  0.1116913E+000  0.1000000E+03  0.7546771E-02  0.1280296E+00
         -2   -1    0    0    0  501 -0.00000000000E+00  0.00000000000E+00  0.99926012814E+02  0.99926012814E+02  0.00000000000E+00 0. -1.
          2   -1    0    0  502    0  0.00000000000E+00 -0.00000000000E+00 -0.49606484418E+03  0.49606484418E+03  0.00000000000E+00 0.  1.
          6    1    1    2  502    0 -0.76115441379E+01  0.90927634478E+02 -0.34044273167E+03  0.39262707989E+03  0.17300000000E+03 0.  1.
         -6    1    1    2    0  501  0.76115441379E+01 -0.90927634478E+02 -0.55696099693E+02  0.20336377710E+03  0.17300000000E+03 0.  1.
</event>
<event>
 4    1  0.1116913E+000  0.1000000E+03  0.7546771E-02  0.1280296E+00
         -1   -1    0    0    0  501 -0.00000000000E+00  0.00000000000E+00  0.10709681122E+03  0.10709681122E+03  0.00000000000E+00 0. -1.
          1   -1    0    0  502    0  0.00000000000E+00 -0.00000000000E+00 -0.47126963533E+03  0.47126963533E+03  0.00000000000E+00 0.  1.
          6    1    1    2  502    0  0.37178925900E+02 -0.12155803089E+03 -0.96859289321E+02  0.23551931839E+03  0.17300000000E+03 0.  1.
         -6    1    1    2    0  501 -0.37178925900E+02  0.12155803089E+03 -0.26731353479E+03  0.34284712816E+03  0.17300000000E+03 0.  1.
</event>
<event>
 4    1  0.1116913E+000  0.1000000E+03  0.7546771E-02  0.1280296E+00
          2   -1    0    0  502    0  0.00000000000E+00  0.00000000000E+00  0.40529090777E+03  0.40529090777E+03  0.00000000000E+00 0.  1.
         -2   -1    0    0    0  501 -0.00000000000E+00 -0.00000000000E+00 -0.17381989239E+03  0.17381989239E+03  0.00000000000E+00 0. -1.
          6    1    1    2  502    0  0.93099683888E+02 -0.17175861427E+03  0.16862105249E+03  0.31069379147E+03  0.17300000000E+03 0.  1.
         -6    1    1    2    0  501 -0.93099683888E+02  0.17175861427E+03  0.62849962893E+02  0.26841700868E+03  0.17300000000E+03 0. -1.
</event>
<event>
 4    1  0.1116913E+000  0.1000000E+03  0.7546771E-02  0.1280296E+00
          2   -1    0    0  502    0  0.00000000000E+00  0.00000000000E+00  0.62041935769E+02  0.62041935769E+02  0.00000000000E+00 0.  1.
         -2   -1    0    0    0  501 -0.00000000000E+00 -0.00000000000E+00 -0.83528616783E+03  0.83528616783E+03  0.00000000000E+00 0. -1.
          6    1    1    2  502    0 -0.67821741157E+02 -0.88104935195E+02 -0.19420591116E+03  0.28285544738E+03  0.17300000000E+03 0.  1.
         -6    1    1    2    0  501  0.67821741157E+02  0.88104935195E+02 -0.57903832090E+03  0.61447265623E+03  0.17300000000E+03 0. -1.
</event>
<event>
 4    1  0.1116913E+000  0.1000000E+03  0.7546771E-02  0.1280296E+00
         -2   -1    0    0    0  501 -0.00000000000E+00  0.00000000000E+00  0.24593070670E+03  0.24593070670E+03  0.00000000000E+00 0. -1.
          2   -1    0    0  502    0  0.00000000000E+00 -0.00000000000E+00 -0.23023571075E+03  0.23023571075E+03  0.00000000000E+00 0.  1.
          6    1    1    2  502    0  0.11915980458E+02 -0.14169254258E+03 -0.72659056882E+02  0.23542961955E+03  0.17300000000E+03 0.  1.
         -6    1    1    2    0  501 -0.11915980458E+02  0.14169254258E+03  0.88354052834E+02  0.24073679790E+03  0.17300000000E+03 0. -1.
</event>
<event>
 4    1  0.1116913E+000  0.1000000E+03  0.7546771E-02  0.1280296E+00
         -2   -1    0    0    0  501 -0.00000000000E+00  0.00000000000E+00  0.22457015298E+03  0.22457015298E+03  0.00000000000E+00 0. -1.
          2   -1    0    0  502    0  0.00000000000E+00 -0.00000000000E+00 -0.10818428999E+04  0.10818428999E+04  0.00000000000E+00 0.  1.
          6    1    1    2  502    0 -0.44430690471E+03  0.12466292773E+03 -0.43981512512E+03  0.66054206181E+03  0.17300000000E+03 0.  1.
         -6    1    1    2    0  501  0.44430690471E+03 -0.12466292773E+03 -0.41745762184E+03  0.64587099112E+03  0.17300000000E+03 0. -1.
</event>
<event>
 4    1  0.1116913E+000  0.1000000E+03  0.7546771E-02  0.1280296E+00
         -4   -1    0    0    0  501 -0.00000000000E+00  0.00000000000E+00  0.19414583525E+03  0.19414583525E+03  0.00000000000E+00 0.  1.
          4   -1    0    0  502    0  0.00000000000E+00 -0.00000000000E+00 -0.36249213617E+03  0.36249213617E+03  0.00000000000E+00 0. -1.
          6    1    1    2  502    0 -0.12707352412E+03 -0.15578177358E+03 -0.90079767693E+02  0.28010534815E+03  0.17300000000E+03 0. -1.
         -6    1    1    2    0  501  0.12707352412E+03  0.15578177358E+03 -0.78266533229E+02  0.27653262328E+03  0.17300000000E+03 0. -1.
</event>
<event>
 4    1  0.1116913E+000  0.1000000E+03  0.7546771E-02  0.1280296E+00
         -1   -1    0    0    0  501 -0.00000000000E+00  0.00000000000E+00  0.52433793747E+03  0.52433793747E+03  0.00000000000E+00 0.  1.
          1   -1    0    0  502    0  0.00000000000E+00 -0.00000000000E+00 -0.12749412731E+03  0.12749412731E+03  0.00000000000E+00 0. -1.
          6    1    1    2  502    0  0.74573987815E+02  0.75021399175E+02  0.40062495201E+03  0.44901986834E+03  0.17300000000E+03 0. -1.
         -6    1    1    2    0  501 -0.74573987815E+02 -0.75021399175E+02 -0.37811418495E+01  0.20281219644E+03  0.17300000000E+03 0. -1.
</event>
<event>
 4    1  0.1116913E+000  0.1000000E+03  0.7546771E-02  0.1280296E+00
         -1   -1    0    0    0  501 -0.00000000000E+00  0.00000000000E+00  0.46769012937E+03  0.46769012937E+03  0.00000000000E+00 0.  1.
          1   -1    0    0  502    0  0.00000000000E+00 -0.00000000000E+00 -0.81097099797E+02  0.81097099797E+02  0.00000000000E+00 0. -1.
          6    1    1    2  502    0  0.35684027963E+02  0.10575117438E+02  0.30788173527E+03  0.35511314517E+03  0.17300000000E+03 0. -1.
         -6    1    1    2    0  501 -0.35684027963E+02 -0.10575117438E+02  0.78711294300E+02  0.19367408399E+03  0.17300000000E+03 0. -1.
</event>
<event>
 4    1  0.1116913E+000  0.1000000E+03  0.7546771E-02  0.1280296E+00
         -2   -1    0    0    0  501 -0.00000000000E+00  0.00000000000E+00  0.19562783333E+02  0.19562783333E+02  0.00000000000E+00 0. -1.
          2   -1    0    0  502    0  0.00000000000E+00 -0.00000000000E+00 -0.22651058579E+04  0.22651058579E+04  0.00000000000E+00 0.  1.
          6    1    1    2  502    0  0.54518461586E+02  0.10276603209E+03 -0.12809527826E+04  0.12978066695E+04  0.17300000000E+03 0.  1.
         -6    1    1    2    0  501 -0.54518461586E+02 -0.10276603209E+03 -0.96459029197E+03  0.98686197180E+03  0.17300000000E+03 0. -1.
</event>
<event>
 4    1  0.1116913E+000  0.1000000E+03  0.7546771E-02  0.1280296E+00
         -2   -1    0    0    0  501 -0.00000000000E+00  0.00000000000E+00  0.49910767155E+02  0.49910767155E+02  0.00000000000E+00 0. -1.
          2   -1    0    0  502    0  0.00000000000E+00 -0.00000000000E+00 -0.78925210873E+03  0.78925210873E+03  0.00000000000E+00 0.  1.
          6    1    1    2  502    0 -0.47518451401E+02  0.35940519159E+02 -0.53223748065E+03  0.56281032325E+03  0.17300000000E+03 0.  1.
         -6    1    1    2    0  501  0.47518451401E+02 -0.35940519159E+02 -0.20710386092E+03  0.27635255264E+03  0.17300000000E+03 0. -1.
</event>
<event>
 4    1  0.1116913E+000  0.1000000E+03  0.7546771E-02  0.1280296E+00
         -3   -1    0    0    0  501 -0.00000000000E+00  0.00000000000E+00  0.11211546138E+04  0.11211546138E+04  0.00000000000E+00 0. -1.
          3   -1    0    0  502    0  0.00000000000E+00 -0.00000000000E+00 -0.35918283584E+02  0.35918283584E+02  0.00000000000E+00 0.  1.
          6    1    1    2  502    0 -0.98499049582E+02 -0.17674092052E+02  0.49052383432E+03  0.52967638076E+03  0.17300000000E+03 0.  1.
         -6    1    1    2    0  501  0.98499049582E+02  0.17674092052E+02  0.59471249593E+03  0.62739651666E+03  0.17300000000E+03 0. -1.
</event>
<event>
 4    1  0.1116913E+000  0.1000000E+03  0.7546771E-02  0.1280296E+00
         -1   -1    0    0    0  501 -0.00000000000E+00  0.00000000000E+00  0.38756443546E+02  0.38756443546E+02  0.00000000000E+00 0. -1.
          1   -1    0    0  502    0  0.00000000000E+00 -0.00000000000E+00 -0.95989384541E+03  0.95989384541E+03  0.00000000000E+00 0.  1.
          6    1    1    2  502    0 -0.31268508221E+02 -0.18825329949E+02 -0.26102953582E+03  0.31527374014E+03  0.17300000000E+03 0. -1.
         -6    1    1    2    0  501  0.31268508221E+02  0.18825329949E+02 -0.66010786604E+03  0.68337654881E+03  0.17300000000E+03 0.  1.
</event>
<event>
 4    1  0.1116913E+000  0.1000000E+03  0.7546771E-02  0.1280296E+00
          1   -1    0    0  502    0  0.00000000000E+00  0.00000000000E+00  0.10215506514E+04  0.10215506514E+04  0.00000000000E+00 0. -1.
         -1   -1    0    0    0  501 -0.00000000000E+00 -0.00000000000E+00 -0.16823327286E+03  0.16823327286E+03  0.00000000000E+00 0.  1.
          6    1    1    2  502    0  0.27384670672E+03 -0.24034630510E+03  0.56408537354E+03  0.69345488231E+03  0.17300000000E+03 0.  1.
         -6    1    1    2    0  501 -0.27384670672E+03  0.24034630510E+03  0.28923200500E+03  0.49632904194E+03  0.17300000000E+03 0. -1.
</event>
<event>
 4    1  0.1116913E+000  0.1000000E+03  0.7546771E-02  0.1280296E+00
          1   -1    0    0  502    0  0.00000000000E+00  0.00000000000E+00  0.48024865462E+03  0.48024865462E+03  0.00000000000E+00 0. -1.
         -1   -1    0    0    0  501 -0.00000000000E+00 -0.00000000000E+00 -0.98412670237E+02  0.98412670237E+02  0.00000000000E+00 0.  1.
          6    1    1    2  502    0  0.12091030235E+03  0.46662384723E+02  0.16008102181E+03  0.26898255130E+03  0.17300000000E+03 0.  1.
         -6    1    1    2    0  501 -0.12091030235E+03 -0.46662384723E+02  0.22175496257E+03  0.30967877355E+03  0.17300000000E+03 0. -1.
</event>
<event>
 4    1  0.1116913E+000  0.1000000E+03  0.7546771E-02  0.1280296E+00
         -1   -1    0    0    0  501 -0.00000000000E+00  0.00000000000E+00  0.47421096348E+02  0.47421096348E+02  0.00000000000E+00 0. -1.
          1   -1    0    0  502    0  0.00000000000E+00 -0.00000000000E+00 -0.20385444238E+04  0.20385444238E+04  0.00000000000E+00 0.  1.
          6    1    1    2  502    0  0.68765565786E+02 -0.50063677247E+02 -0.17726384661E+03  0.26189033226E+03  0.17300000000E+03 0. -1.
         -6    1    1    2    0  501 -0.68765565786E+02  0.50063677247E+02 -0.18138594808E+04  0.18240751879E+04  0.17300000000E+03 0.  1.
</event>
<event>
 4    1  0.1116913E+000  0.1000000E+03  0.7546771E-02  0.1280296E+00
         -2   -1    0    0    0  501 -0.00000000000E+00  0.00000000000E+00  0.84773604668E+03  0.84773604668E+03  0.00000000000E+00 0.  1.
          2   -1    0    0  502    0  0.00000000000E+00 -0.00000000000E+00 -0.89359156157E+02  0.89359156157E+02  0.00000000000E+00 0. -1.
          6    1    1    2  502    0 -0.15368550040E+03  0.38403569844E+02  0.62429367548E+03  0.66690753516E+03  0.17300000000E+03 0. -1.
         -6    1    1    2    0  501  0.15368550040E+03 -0.38403569844E+02  0.13408321505E+03  0.27018766768E+03  0.17300000000E+03 0. -1.
</event>
<event>
 4    1  0.1116913E+000  0.1000000E+03  0.7546771E-02  0.1280296E+00
         -2   -1    0    0    0  501 -0.00000000000E+00  0.00000000000E+00  0.22877178877E+02  0.22877178877E+02  0.00000000000E+00 0.  1.
          2   -1    0    0  502    0  0.00000000000E+00 -0.00000000000E+00 -0.20475175822E+04  0.20475175822E+04  0.00000000000E+00 0. -1.
          6    1    1    2  502    0  0.21560737968E+02 -0.12389066668E+03 -0.11708607708E+04  0.11902343078E+04  0.17300000000E+03 0. -1.
         -6    1    1    2    0  501 -0.21560737968E+02  0.12389066668E+03 -0.85377963246E+03  0.88016045327E+03  0.17300000000E+03 0. -1.
</event>
<event>
 4    1  0.1116913E+000  0.1000000E+03  0.7546771E-02  0.1280296E+00
         -2   -1    0    0    0  501 -0.00000000000E+00  0.00000000000E+00  0.61313077669E+02  0.61313077669E+02  0.00000000000E+00 0. -1.
          2   -1    0    0  502    0  0.00000000000E+00 -0.00000000000E+00 -0.70195304034E+03  0.70195304034E+03  0.00000000000E+00 0.  1.
          6    1    1    2  502    0 -0.36293148550E+02  0.10814768211E+03 -0.30222221200E+03  0.36644287304E+03  0.17300000000E+03 0.  1.
         -6    1    1    2    0  501  0.36293148550E+02 -0.10814768211E+03 -0.33841775067E+03  0.39682324497E+03  0.17300000000E+03 0.  1.
</event>
<event>
 4    1  0.1116913E+000  0.1000000E+03  0.7546771E-02  0.1280296E+00
         -2   -1    0    0    0  501 -0.00000000000E+00  0.00000000000E+00  0.36556880068E+02  0.36556880068E+02  0.00000000000E+00 0. -1.
          2   -1    0    0  502    0  0.00000000000E+00 -0.00000000000E+00 -0.12613064951E+04  0.12613064951E+04  0.00000000000E+00 0.  1.
          6    1    1    2  502    0  0.54294098227E+02 -0.61416810555E+02 -0.31843226499E+03  0.37154808721E+03  0.17300000000E+03 0.  1.
         -6    1    1    2    0  501 -0.54294098227E+02  0.61416810555E+02 -0.90631735004E+03  0.92631528796E+03  0.17300000000E+03 0.  1.
</event>
<event>
 4    1  0.1116913E+000  0.1000000E+03  0.7546771E-02  0.1280296E+00
          2   -1    0    0  502    0  0.00000000000E+00  0.00000000000E+00  0.18070103701E+03  0.18070103701E+03  0.00000000000E+00 0. -1.
         -2   -1    0    0    0  501 -0.00000000000E+00 -0.00000000000E+00 -0.34609110119E+03  0.34609110119E+03  0.00000000000E+00 0.  1.
          6    1    1    2  502    0 -0.15278925825E+03  0.43964003572E+02  0.74960570261E+01  0.23507994793E+03  0.17300000000E+03 0. -1.
         -6    1    1    2    0  501  0.15278925825E+03 -0.43964003572E+02 -0.17288612121E+03  0.29171219027E+03  0.17300000000E+03 0.  1.
</event>
<event>
 4    1  0.1116913E+000  0.1000000E+03  0.7546771E-02  0.1280296E+00
          2   -1    0    0  502    0  0.00000000000E+00  0.00000000000E+00  0.32074630437E+03  0.32074630437E+03  0.00000000000E+00 0.  1.
         -2   -1    0    0    0  501 -0.00000000000E+00 -0.00000000000E+00 -0.21981594209E+03  0.21981594209E+03  0.00000000000E+00 0. -1.
          6    1    1    2  502    0  0.21875033038E+02 -0.10809430441E+03  0.22204483547E+03  0.30231739062E+03  0.17300000000E+03 0.  1.
         -6    1    1    2    0  501 -0.21875033038E+02  0.10809430441E+03 -0.12111447319E+03  0.23824485584E+03  0.17300000000E+03 0. -1.
</event>
<event>
 4    1  0.1116913E+000  0.1000000E+03  0.7546771E-02  0.1280296E+00
          1   -1    0    0  502    0  0.00000000000E+00  0.00000000000E+00  0.33992038670E+02  0.33992038670E+02  0.00000000000E+00 0.  1.
         -1   -1    0    0    0  501 -0.00000000000E+00 -0.00000000000E+00 -0.17443060030E+04  0.17443060030E+04  0.00000000000E+00 0. -1.
          6    1    1    2  502    0  0.17890606383E+02 -0.60230074936E+02 -0.27301845351E+03  0.32926556406E+03  0.17300000000E+03 0.  1.
         -6    1    1    2    0  501 -0.17890606383E+02  0.60230074936E+02 -0.14372955108E+04  0.14490324776E+04  0.17300000000E+03 0. -1.
</event>
<event>
 4    1  0.1116913E+000  0.1000000E+03  0.7546771E-02  0.1280296E+00
          1   -1    0    0  502    0  0.00000000000E+00  0.00000000000E+00  0.58564183495E+03  0.58564183495E+03  0.00000000000E+00 0.  1.
         -1   -1    0    0    0  501 -0.00000000000E+00 -0.00000000000E+00 -0.71846131351E+02  0.71846131351E+02  0.00000000000E+00 0. -1.
          6    1    1    2  502    0  0.80444498777E+02 -0.15507300789E+02  0.13874285585E+03  0.23641145025E+03  0.17300000000E+03 0.  1.
         -6    1    1    2    0  501 -0.80444498777E+02  0.15507300789E+02  0.37505284775E+03  0.42107651605E+03  0.17300000000E+03 0. -1.
</event>
<event>
 4    1  0.1116913E+000  0.1000000E+03  0.7546771E-02  0.1280296E+00
         -2   -1    0    0    0  501 -0.00000000000E+00  0.00000000000E+00  0.31108172936E+03  0.31108172936E+03  0.00000000000E+00 0.  1.
          2   -1    0    0  502    0  0.00000000000E+00 -0.00000000000E+00 -0.46417440435E+03  0.46417440435E+03  0.00000000000E+00 0. -1.
          6    1    1    2  502    0 -0.13152635311E+03 -0.17533159403E+03  0.18636488384E+03  0.33571002272E+03  0.17300000000E+03 0.  1.
         -6    1    1    2    0  501  0.13152635311E+03  0.17533159403E+03 -0.33945755883E+03  0.43954611098E+03  0.17300000000E+03 0. -1.
</event>
<event>
 4    1  0.1116913E+000  0.1000000E+03  0.7546771E-02  0.1280296E+00
         -1   -1    0    0    0  501 -0.00000000000E+00  0.00000000000E+00  0.26292237728E+03  0.26292237728E+03  0.00000000000E+00 0.  1.
          1   -1    0    0  502    0  0.00000000000E+00 -0.00000000000E+00 -0.17909163806E+03  0.17909163806E+03  0.00000000000E+00 0. -1.
          6    1    1    2  502    0  0.88740782050E+02  0.72508302921E+02 -0.22706828859E+02  0.20875100112E+03  0.17300000000E+03 0.  1.
         -6    1    1    2    0  501 -0.88740782050E+02 -0.72508302921E+02  0.10653756808E+03  0.23326301422E+03  0.17300000000E+03 0. -1.
</event>
<event>
 4    1  0.1116913E+000  0.1000000E+03  0.7546771E-02  0.1280296E+00
         -2   -1    0    0    0  501 -0.00000000000E+00  0.00000000000E+00  0.15919691597E+03  0.15919691597E+03  0.00000000000E+00 0.  1.
          2   -1    0    0  502    0  0.00000000000E+00 -0.00000000000E+00 -0.34547105624E+03  0.34547105624E+03  0.00000000000E+00 0. -1.
          6    1    1    2  502    0 -0.70322290813E+01 -0.94356978238E+01  0.76752837046E+02  0.18962722018E+03  0.17300000000E+03 0.  1.
         -6    1    1    2    0  501  0.70322290813E+01  0.94356978238E+01 -0.26302697732E+03  0.31504075203E+03  0.17300000000E+03 0. -1.
</event>
<event>
 4    1  0.1116913E+000  0.1000000E+03  0.7546771E-02  0.1280296E+00
         -1   -1    0    0    0  501 -0.00000000000E+00  0.00000000000E+00  0.12119796822E+04  0.12119796822E+04  0.00000000000E+00 0.  1.
          1   -1    0    0  502    0  0.00000000000E+00 -0.00000000000E+00 -0.26854833354E+02  0.26854833354E+02  0.00000000000E+00 0. -1.
          6    1    1    2  502    0  0.51831386277E+01  0.83594117673E+01  0.42014667274E+03  0.45447659049E+03  0.17300000000E+03 0. -1.
         -6    1    1    2    0  501 -0.51831386277E+01 -0.83594117673E+01  0.76497817614E+03  0.78435792510E+03  0.17300000000E+03 0.  1.
</event>
<event>
 4    1  0.1116913E+000  0.1000000E+03  0.7546771E-02  0.1280296E+00
          2   -1    0    0  502    0  0.00000000000E+00  0.00000000000E+00  0.18559692506E+04  0.18559692506E+04  0.00000000000E+00 0. -1.
         -2   -1    0    0    0  501 -0.00000000000E+00 -0.00000000000E+00 -0.39148365045E+02  0.39148365045E+02  0.00000000000E+00 0.  1.
          6    1    1    2  502    0  0.11259856488E+03  0.11190606384E+03  0.13738112708E+04  0.13937316139E+04  0.17300000000E+03 0. -1.
         -6    1    1    2    0  501 -0.11259856488E+03 -0.11190606384E+03  0.44300961479E+03  0.50138600173E+03  0.17300000000E+03 0. -1.
</event>
<event>
 4    1  0.1116913E+000  0.1000000E+03  0.7546771E-02  0.1280296E+00
          2   -1    0    0  502    0  0.00000000000E+00  0.00000000000E+00  0.12313951794E+04  0.12313951794E+04  0.00000000000E+00 0. -1.
         -2   -1    0    0    0  501 -0.00000000000E+00 -0.00000000000E+00 -0.57989981212E+02  0.57989981212E+02  0.00000000000E+00 0.  1.
          6    1    1    2  502    0  0.84411251938E+02 -0.15781985325E+03  0.35220984524E+03  0.43129240733E+03  0.17300000000E+03 0. -1.
         -6    1    1    2    0  501 -0.84411251938E+02  0.15781985325E+03  0.82119535297E+03  0.85809275331E+03  0.17300000000E+03 0. -1.
</event>
<event>
 4    1  0.1116913E+000  0.1000000E+03  0.7546771E-02  0.1280296E+00
          1   -1    0    0  502    0  0.00000000000E+00  0.00000000000E+00  0.22356324030E+04  0.22356324030E+04  0.00000000000E+00 0. -1.
         -1   -1    0    0    0  501 -0.00000000000E+00 -0.00000000000E+00 -0.21832544696E+02  0.21832544696E+02  0.00000000000E+00 0.  1.
          6    1    1    2  502    0  0.13694578314E+03 -0.68458938165E+01  0.10613376210E+04  0.10840514562E+04  0.17300000000E+03 0. -1.
         -6    1    1    2    0  501 -0.13694578314E+03  0.68458938165E+01  0.11524622373E+04  0.11734134915E+04  0.17300000000E+03 0.  1.
</event>
<event>
 4    1  0.1116913E+000  0.1000000E+03  0.7546771E-02  0.1280296E+00
          1   -1    0    0  502    0  0.00000000000E+00  0.00000000000E+00  0.52111297470E+03  0.52111297470E+03  0.00000000000E+00 0. -1.
         -1   -1    0    0    0  501 -0.00000000000E+00 -0.00000000000E+00 -0.72407962997E+02  0.72407962997E+02  0.00000000000E+00 0.  1.
          6    1    1    2  502    0 -0.64335642237E+02 -0.50027575604E+02  0.17227735550E+03  0.25739137592E+03  0.17300000000E+03 0. -1.
         -6    1    1    2    0  501  0.64335642237E+02  0.50027575604E+02  0.27642765620E+03  0.33612956177E+03  0.17300000000E+03 0.  1.
</event>
<event>
 4    1  0.1116913E+000  0.1000000E+03  0.7546771E-02  0.1280296E+00
         -2   -1    0    0    0  501 -0.00000000000E+00  0.00000000000E+00  0.15783169498E+03  0.15783169498E+03  0.00000000000E+00 0. -1.
          2   -1    0    0  502    0  0.00000000000E+00 -0.00000000000E+00 -0.37130242826E+03  0.37130242826E+03  0.00000000000E+00 0.  1.
          6    1    1    2  502    0 -0.15574293460E+03 -0.38332499205E+02 -0.47386040159E+02  0.24062352124E+03  0.17300000000E+03 0.  1.
         -6    1    1    2    0  501  0.15574293460E+03  0.38332499205E+02 -0.16608469312E+03  0.28851060199E+03  0.17300000000E+03 0. -1.
</event>
<event>
 4    1  0.1116913E+000  0.1000000E+03  0.7546771E-02  0.1280296E+00
         -2   -1    0    0    0  501 -0.00000000000E+00  0.00000000000E+00  0.16027797228E+03  0.16027797228E+03  0.00000000000E+00 0. -1.
          2   -1    0    0  502    0  0.00000000000E+00 -0.00000000000E+00 -0.87480969608E+03  0.87480969608E+03  0.00000000000E+00 0.  1.
          6    1    1    2  502    0 -0.14573406014E+03 -0.20912318699E+03 -0.63051493922E+02  0.31444461278E+03  0.17300000000E+03 0.  1.
         -6    1    1    2    0  501  0.14573406014E+03  0.20912318699E+03 -0.65148022988E+03  0.72064305557E+03  0.17300000000E+03 0. -1.
</event>
<event>
 4    1  0.1116913E+000  0.1000000E+03  0.7546771E-02  0.1280296E+00
          1   -1    0    0  502    0  0.00000000000E+00  0.00000000000E+00  0.26065612184E+04  0.26065612184E+04  0.00000000000E+00 0.  1.
         -1   -1    0    0    0  501 -0.00000000000E+00 -0.00000000000E+00 -0.12094911928E+02  0.12094911928E+02  0.00000000000E+00 0. -1.
          6    1    1    2  502    0 -0.44625443719E+00  0.23114585423E+02  0.15376181141E+04  0.15474924710E+04  0.17300000000E+03 0.  1.
         -6    1    1    2    0  501  0.44625443719E+00 -0.23114585423E+02  0.10568481924E+04  0.10711636593E+04  0.17300000000E+03 0. -1.
</event>
<event>
 4    1  0.1116913E+000  0.1000000E+03  0.7546771E-02  0.1280296E+00
          1   -1    0    0  502    0  0.00000000000E+00  0.00000000000E+00  0.92250955491E+03  0.92250955491E+03  0.00000000000E+00 0.  1.
         -1   -1    0    0    0  501 -0.00000000000E+00 -0.00000000000E+00 -0.51620422626E+02  0.51620422626E+02  0.00000000000E+00 0. -1.
          6    1    1    2  502    0 -0.95685425542E+02 -0.72189554411E+01  0.64102355223E+03  0.67085617571E+03  0.17300000000E+03 0.  1.
         -6    1    1    2    0  501  0.95685425542E+02  0.72189554411E+01  0.22986558006E+03  0.30327380183E+03  0.17300000000E+03 0. -1.
</event>
<event>
 4    1  0.1116913E+000  0.1000000E+03  0.7546771E-02  0.1280296E+00
          2   -1    0    0  502    0  0.00000000000E+00  0.00000000000E+00  0.43189806472E+03  0.43189806472E+03  0.00000000000E+00 0.  1.
         -2   -1    0    0    0  501 -0.00000000000E+00 -0.00000000000E+00 -0.87848373102E+02  0.87848373102E+02  0.00000000000E+00 0. -1.
          6    1    1    2  502    0 -0.69738939136E+01  0.87017337370E+02  0.19843592816E+03  0.27735621461E+03  0.17300000000E+03 0.  1.
         -6    1    1    2    0  501  0.69738939136E+01 -0.87017337370E+02  0.14561376346E+03  0.24239022321E+03  0.17300000000E+03 0. -1.
</event>
<event>
 4    1  0.1116913E+000  0.1000000E+03  0.7546771E-02  0.1280296E+00
          2   -1    0    0  502    0  0.00000000000E+00  0.00000000000E+00  0.39489999469E+04  0.39489999469E+04  0.00000000000E+00 0. -1.
         -2   -1    0    0    0  501 -0.00000000000E+00 -0.00000000000E+00 -0.12978400811E+02  0.12978400811E+02  0.00000000000E+00 0.  1.
          6    1    1    2  502    0  0.11326552849E+02  0.10900312182E+03  0.11235752064E+04  0.11420859056E+04  0.17300000000E+03 0. -1.
         -6    1    1    2    0  501 -0.11326552849E+02 -0.10900312182E+03  0.28124463397E+04  0.28198924421E+04  0.17300000000E+03 0.  1.
</event>
<event>
 4    1  0.1116913E+000  0.1000000E+03  0.7546771E-02  0.1280296E+00
          2   -1    0    0  502    0  0.00000000000E+00  0.00000000000E+00  0.18768585132E+03  0.18768585132E+03  0.00000000000E+00 0. -1.
         -2   -1    0    0    0  501 -0.00000000000E+00 -0.00000000000E+00 -0.24859477358E+03  0.24859477358E+03  0.00000000000E+00 0.  1.
          6    1    1    2  502    0 -0.41391164471E+02  0.68897276961E+02  0.71882147563E+02  0.20385314912E+03  0.17300000000E+03 0. -1.
         -6    1    1    2    0  501  0.41391164471E+02 -0.68897276961E+02 -0.13279106983E+03  0.23242747577E+03  0.17300000000E+03 0.  1.
</event>
<event>
 4    1  0.1116913E+000  0.1000000E+03  0.7546771E-02  0.1280296E+00
          1   -1    0    0  502    0  0.00000000000E+00  0.00000000000E+00  0.16429085256E+04  0.16429085256E+04  0.00000000000E+00 0. -1.
         -1   -1    0    0    0  501 -0.00000000000E+00 -0.00000000000E+00 -0.59554937078E+02  0.59554937078E+02  0.00000000000E+00 0.  1.
          6    1    1    2  502    0 -0.24813888342E+03 -0.78681490816E+02  0.82507629648E+03  0.88229449589E+03  0.17300000000E+03 0. -1.
         -6    1    1    2    0  501  0.24813888342E+03  0.78681490816E+02  0.75827729209E+03  0.82016896683E+03  0.17300000000E+03 0.  1.
</event>
<event>
 4    1  0.1116913E+000  0.1000000E+03  0.7546771E-02  0.1280296E+00
          1   -1    0    0  502    0  0.00000000000E+00  0.00000000000E+00  0.46453336863E+03  0.46453336863E+03  0.00000000000E+00 0. -1.
         -1   -1    0    0    0  501 -0.00000000000E+00 -0.00000000000E+00 -0.12143787485E+03  0.12143787485E+03  0.00000000000E+00 0.  1.
          6    1    1    2  502    0 -0.77072688674E+02 -0.12266003669E+03  0.26300832768E+03  0.34653724817E+03  0.17300000000E+03 0. -1.
         -6    1    1    2    0  501  0.77072688674E+02  0.12266003669E+03  0.80087166103E+02  0.23943399532E+03  0.17300000000E+03 0.  1.
</event>
<event>
 4    1  0.1116913E+000  0.1000000E+03  0.7546771E-02  0.1280296E+00
          2   -1    0    0  502    0  0.00000000000E+00  0.00000000000E+00  0.18278151455E+03  0.18278151455E+03  0.00000000000E+00 0.  1.
         -2   -1    0    0    0  501 -0.00000000000E+00 -0.00000000000E+00 -0.78609961352E+03  0.78609961352E+03  0.00000000000E+00 0. -1.
          6    1    1    2  502    0 -0.28576523727E+03 -0.17400302828E+03 -0.35613083306E+03  0.51835990869E+03  0.17300000000E+03 0.  1.
         -6    1    1    2    0  501  0.28576523727E+03  0.17400302828E+03 -0.24718726591E+03  0.45052121938E+03  0.17300000000E+03 0. -1.
</event>
<event>
 4    1  0.1116913E+000  0.1000000E+03  0.7546771E-02  0.1280296E+00
          2   -1    0    0  502    0  0.00000000000E+00  0.00000000000E+00  0.12469887223E+04  0.12469887223E+04  0.00000000000E+00 0.  1.
         -2   -1    0    0    0  501 -0.00000000000E+00 -0.00000000000E+00 -0.61154157935E+02  0.61154157935E+02  0.00000000000E+00 0. -1.
          6    1    1    2  502    0 -0.84344718306E+02  0.15717840685E+03  0.87823027591E+03  0.91270833272E+03  0.17300000000E+03 0.  1.
         -6    1    1    2    0  501  0.84344718306E+02 -0.15717840685E+03  0.30760428841E+03  0.39543454747E+03  0.17300000000E+03 0. -1.
</event>
<event>
 4    1  0.1116913E+000  0.1000000E+03  0.7546771E-02  0.1280296E+00
         -1   -1    0    0    0  501 -0.00000000000E+00  0.00000000000E+00  0.40470147676E+03  0.40470147676E+03  0.00000000000E+00 0.  1.
          1   -1    0    0  502    0  0.00000000000E+00 -0.00000000000E+00 -0.11415325999E+03  0.11415325999E+03  0.00000000000E+00 0. -1.
          6    1    1    2  502    0  0.11853946870E+02 -0.10460297878E+03  0.23220007642E+03  0.30810416212E+03  0.17300000000E+03 0.  1.
         -6    1    1    2    0  501 -0.11853946870E+02  0.10460297878E+03  0.58348140343E+02  0.21075057463E+03  0.17300000000E+03 0. -1.
</event>
<event>
 4    1  0.1116913E+000  0.1000000E+03  0.7546771E-02  0.1280296E+00
          1   -1    0    0  502    0  0.00000000000E+00  0.00000000000E+00  0.18245126600E+04  0.18245126600E+04  0.00000000000E+00 0.  1.
         -1   -1    0    0    0  501 -0.00000000000E+00 -0.00000000000E+00 -0.24088676046E+02  0.24088676046E+02  0.00000000000E+00 0. -1.
          6    1    1    2  502    0 -0.10246055282E+03  0.14258609739E+02  0.64618629598E+03  0.67689526660E+03  0.17300000000E+03 0.  1.
         -6    1    1    2    0  501  0.10246055282E+03 -0.14258609739E+02  0.11542376880E+04  0.11717060695E+04  0.17300000000E+03 0. -1.
</event>
<event>
 4    1  0.1116913E+000  0.1000000E+03  0.7546771E-02  0.1280296E+00
          1   -1    0    0  502    0  0.00000000000E+00  0.00000000000E+00  0.14506632486E+04  0.14506632486E+04  0.00000000000E+00 0. -1.
         -1   -1    0    0    0  501 -0.00000000000E+00 -0.00000000000E+00 -0.28688756320E+02  0.28688756320E+02  0.00000000000E+00 0.  1.
          6    1    1    2  502    0  0.28372918819E+02 -0.70061432124E+02  0.43071837301E+03  0.47027751769E+03  0.17300000000E+03 0.  1.
         -6    1    1    2    0  501 -0.28372918819E+02  0.70061432124E+02  0.99125611925E+03  0.10090744872E+04  0.17300000000E+03 0. -1.
</event>
<event>
 4    1  0.1116913E+000  0.1000000E+03  0.7546771E-02  0.1280296E+00
         -2   -1    0    0    0  501 -0.00000000000E+00  0.00000000000E+00  0.77704350015E+02  0.77704350015E+02  0.00000000000E+00 0.  1.
          2   -1    0    0  502    0  0.00000000000E+00 -0.00000000000E+00 -0.53141700804E+03  0.53141700804E+03  0.00000000000E+00 0. -1.
          6    1    1    2  502    0 -0.72037106328E+02  0.32072174658E+01 -0.10917913281E+03  0.21690715519E+03  0.17300000000E+03 0. -1.
         -6    1    1    2    0  501  0.72037106328E+02 -0.32072174658E+01 -0.34453352521E+03  0.39221420286E+03  0.17300000000E+03 0.  1.
</event>
<event>
 4    1  0.1116913E+000  0.1000000E+03  0.7546771E-02  0.1280296E+00
          2   -1    0    0  502    0  0.00000000000E+00  0.00000000000E+00  0.11844036712E+04  0.11844036712E+04  0.00000000000E+00 0. -1.
         -2   -1    0    0    0  501 -0.00000000000E+00 -0.00000000000E+00 -0.44937148012E+02  0.44937148012E+02  0.00000000000E+00 0.  1.
          6    1    1    2  502    0 -0.34388942985E+02 -0.12426903460E+03  0.35214733190E+03  0.41299168966E+03  0.17300000000E+03 0. -1.
         -6    1    1    2    0  501  0.34388942985E+02  0.12426903460E+03  0.78731919131E+03  0.81634912958E+03  0.17300000000E+03 0.  1.
</event>
<event>
 4    1  0.1116913E+000  0.1000000E+03  0.7546771E-02  0.1280296E+00
          2   -1    0    0  502    0  0.00000000000E+00  0.00000000000E+00  0.16332773660E+04  0.16332773660E+04  0.00000000000E+00 0. -1.
         -2   -1    0    0    0  501 -0.00000000000E+00 -0.00000000000E+00 -0.24692157419E+02  0.24692157419E+02  0.00000000000E+00 0.  1.
          6    1    1    2  502    0  0.87511027540E+02  0.48391190192E+02  0.88687837452E+03  0.90911063046E+03  0.17300000000E+03 0. -1.
         -6    1    1    2    0  501 -0.87511027540E+02 -0.48391190192E+02  0.72170683407E+03  0.74885889296E+03  0.17300000000E+03 0.  1.
</event>
<event>
 4    1  0.1116913E+000  0.1000000E+03  0.7546771E-02  0.1280296E+00
          2   -1    0    0  502    0  0.00000000000E+00  0.00000000000E+00  0.75230134556E+03  0.75230134556E+03  0.00000000000E+00 0.  1.
         -2   -1    0    0    0  501 -0.00000000000E+00 -0.00000000000E+00 -0.10574466887E+03  0.10574466887E+03  0.00000000000E+00 0. -1.
          6    1    1    2  502    0  0.12273162782E+03 -0.18165257808E+03  0.26315873505E+03  0.38372155454E+03  0.17300000000E+03 0. -1.
         -6    1    1    2    0  501 -0.12273162782E+03  0.18165257808E+03  0.38339794164E+03  0.47432445988E+03  0.17300000000E+03 0.  1.
</event>
<event>
 4    1  0.1116913E+000  0.1000000E+03  0.7546771E-02  0.1280296E+00
          1   -1    0    0  502    0  0.00000000000E+00  0.00000000000E+00  0.10302526885E+03  0.10302526885E+03  0.00000000000E+00 0.  1.
         -1   -1    0    0    0  501 -0.00000000000E+00 -0.00000000000E+00 -0.42978803176E+03  0.42978803176E+03  0.00000000000E+00 0. -1.
          6    1    1    2  502    0  0.31949734749E+02  0.10544964435E+03 -0.22289334481E+03  0.30290403794E+03  0.17300000000E+03 0. -1.
         -6    1    1    2    0  501 -0.31949734749E+02 -0.10544964435E+03 -0.10386941810E+03  0.22990926267E+03  0.17300000000E+03 0.  1.
</event>
<event>
 4    1  0.1116913E+000  0.1000000E+03  0.7546771E-02  0.1280296E+00
          1   -1    0    0  502    0  0.00000000000E+00  0.00000000000E+00  0.17982377050E+04  0.17982377050E+04  0.00000000000E+00 0.  1.
         -1   -1    0    0    0  501 -0.00000000000E+00 -0.00000000000E+00 -0.19369305567E+02  0.19369305567E+02  0.00000000000E+00 0. -1.
          6    1    1    2  502    0  0.16567985163E+02  0.67996564231E+02  0.89865389287E+03  0.91782669936E+03  0.17300000000E+03 0. -1.
         -6    1    1    2    0  501 -0.16567985163E+02 -0.67996564231E+02  0.88021450660E+03  0.89978031125E+03  0.17300000000E+03 0.  1.
</event>
<event>
 4    1  0.1116913E+000  0.1000000E+03  0.7546771E-02  0.1280296E+00
          1   -1    0    0  502    0  0.00000000000E+00  0.00000000000E+00  0.17947254037E+03  0.17947254037E+03  0.00000000000E+00 0.  1.
         -1   -1    0    0    0  501 -0.00000000000E+00 -0.00000000000E+00 -0.31972824914E+03  0.31972824914E+03  0.00000000000E+00 0. -1.
          6    1    1    2  502    0 -0.87769526828E+01  0.81018778395E+02 -0.22044774877E+03  0.29183434905E+03  0.17300000000E+03 0. -1.
         -6    1    1    2    0  501  0.87769526828E+01 -0.81018778395E+02  0.80192039999E+02  0.20736644046E+03  0.17300000000E+03 0.  1.
</event>
<event>
 4    1  0.1116913E+000  0.1000000E+03  0.7546771E-02  0.1280296E+00
         -2   -1    0    0    0  501 -0.00000000000E+00  0.00000000000E+00  0.47292247937E+02  0.47292247937E+02  0.00000000000E+00 0.  1.
          2   -1    0    0  502    0  0.00000000000E+00 -0.00000000000E+00 -0.12575778358E+04  0.12575778358E+04  0.00000000000E+00 0. -1.
          6    1    1    2  502    0  0.15054530814E+03 -0.82689125576E+02 -0.58753818265E+03  0.63610651416E+03  0.17300000000E+03 0. -1.
         -6    1    1    2    0  501 -0.15054530814E+03  0.82689125576E+02 -0.62274740524E+03  0.66876356960E+03  0.17300000000E+03 0.  1.
</event>
<event>
 4    1  0.1116913E+000  0.1000000E+03  0.7546771E-02  0.1280296E+00
         -2   -1    0    0    0  501 -0.00000000000E+00  0.00000000000E+00  0.95606643052E+02  0.95606643052E+02  0.00000000000E+00 0.  1.
          2   -1    0    0  502    0  0.00000000000E+00 -0.00000000000E+00 -0.11772253737E+04  0.11772253737E+04  0.00000000000E+00 0. -1.
          6    1    1    2  502    0  0.16524631273E+03  0.49126207544E+02 -0.10449186358E+03  0.26564502196E+03  0.17300000000E+03 0. -1.
         -6    1    1    2    0  501 -0.16524631273E+03 -0.49126207544E+02 -0.97712686707E+03  0.10071869948E+04  0.17300000000E+03 0.  1.
</event>
<event>
 4    1  0.1116913E+000  0.1000000E+03  0.7546771E-02  0.1280296E+00
         -2   -1    0    0    0  501 -0.00000000000E+00  0.00000000000E+00  0.19867468907E+04  0.19867468907E+04  0.00000000000E+00 0.  1.
          2   -1    0    0  502    0  0.00000000000E+00 -0.00000000000E+00 -0.26021049577E+02  0.26021049577E+02  0.00000000000E+00 0. -1.
          6    1    1    2  502    0 -0.45926856091E+02 -0.65387843306E+02  0.15293423918E+04  0.15411690360E+04  0.17300000000E+03 0. -1.
         -6    1    1    2    0  501  0.45926856091E+02  0.65387843306E+02  0.43138344925E+03  0.47159890421E+03  0.17300000000E+03 0.  1.
</event>
<event>
 4    1  0.1116913E+000  0.1000000E+03  0.7546771E-02  0.1280296E+00
          1   -1    0    0  502    0  0.00000000000E+00  0.00000000000E+00  0.65434018140E+03  0.65434018140E+03  0.00000000000E+00 0. -1.
         -1   -1    0    0    0  501 -0.00000000000E+00 -0.00000000000E+00 -0.15582691171E+03  0.15582691171E+03  0.00000000000E+00 0.  1.
          6    1    1    2  502    0 -0.80281089191E+02 -0.38980937284E+02  0.57036362671E+03  0.60266759779E+03  0.17300000000E+03 0.  1.
         -6    1    1    2    0  501  0.80281089191E+02  0.38980937284E+02 -0.71850357014E+02  0.20749949532E+03  0.17300000000E+03 0.  1.
</event>
<event>
 4    1  0.1116913E+000  0.1000000E+03  0.7546771E-02  0.1280296E+00
         -1   -1    0    0    0  501 -0.00000000000E+00  0.00000000000E+00  0.86715588854E+03  0.86715588854E+03  0.00000000000E+00 0.  1.
          1   -1    0    0  502    0  0.00000000000E+00 -0.00000000000E+00 -0.12557280762E+03  0.12557280762E+03  0.00000000000E+00 0. -1.
          6    1    1    2  502    0 -0.17907425116E+03 -0.53723862229E+02  0.68634414957E+03  0.73208683395E+03  0.17300000000E+03 0. -1.
         -6    1    1    2    0  501  0.17907425116E+03  0.53723862229E+02  0.55238931350E+02  0.26064186221E+03  0.17300000000E+03 0.  1.
</event>
<event>
 4    1  0.1116913E+000  0.1000000E+03  0.7546771E-02  0.1280296E+00
          1   -1    0    0  502    0  0.00000000000E+00  0.00000000000E+00  0.32630848143E+03  0.32630848143E+03  0.00000000000E+00 0.  1.
         -1   -1    0    0    0  501 -0.00000000000E+00 -0.00000000000E+00 -0.33194520571E+03  0.33194520571E+03  0.00000000000E+00 0. -1.
          6    1    1    2  502    0  0.22384119190E+03  0.15782745182E+03 -0.60899336776E+02  0.32962419960E+03  0.17300000000E+03 0. -1.
         -6    1    1    2    0  501 -0.22384119190E+03 -0.15782745182E+03  0.55262612492E+02  0.32862948754E+03  0.17300000000E+03 0.  1.
</event>
<event>
 4    1  0.1116913E+000  0.1000000E+03  0.7546771E-02  0.1280296E+00
          2   -1    0    0  502    0  0.00000000000E+00  0.00000000000E+00  0.16037874914E+03  0.16037874914E+03  0.00000000000E+00 0.  1.
         -2   -1    0    0    0  501 -0.00000000000E+00 -0.00000000000E+00 -0.28030731586E+03  0.28030731586E+03  0.00000000000E+00 0. -1.
          6    1    1    2  502    0  0.28717266597E+02 -0.82763883409E+02  0.29141396063E+02  0.19609376013E+03  0.17300000000E+03 0. -1.
         -6    1    1    2    0  501 -0.28717266597E+02  0.82763883409E+02 -0.14906996278E+03  0.24459230487E+03  0.17300000000E+03 0.  1.
</event>
<event>
 4    1  0.1116913E+000  0.1000000E+03  0.7546771E-02  0.1280296E+00
          1   -1    0    0  502    0  0.00000000000E+00  0.00000000000E+00  0.10681544071E+04  0.10681544071E+04  0.00000000000E+00 0.  1.
         -1   -1    0    0    0  501 -0.00000000000E+00 -0.00000000000E+00 -0.65595895545E+02  0.65595895545E+02  0.00000000000E+00 0. -1.
          6    1    1    2  502    0  0.47999513210E+01 -0.86887987225E+02  0.11481663254E+03  0.22513200787E+03  0.17300000000E+03 0. -1.
         -6    1    1    2    0  501 -0.47999513210E+01  0.86887987225E+02  0.88774187900E+03  0.90861829477E+03  0.17300000000E+03 0.  1.
</event>
<event>
 4    1  0.1116913E+000  0.1000000E+03  0.7546771E-02  0.1280296E+00
          2   -1    0    0  502    0  0.00000000000E+00  0.00000000000E+00  0.16694142649E+04  0.16694142649E+04  0.00000000000E+00 0.  1.
         -2   -1    0    0    0  501 -0.00000000000E+00 -0.00000000000E+00 -0.35802221901E+02  0.35802221901E+02  0.00000000000E+00 0. -1.
          6    1    1    2  502    0  0.67249837648E+02  0.41139025695E+02  0.28076705353E+03  0.33907830725E+03  0.17300000000E+03 0. -1.
         -6    1    1    2    0  501 -0.67249837648E+02 -0.41139025695E+02  0.13528449894E+04  0.13661381795E+04  0.17300000000E+03 0.  1.
</event>
<event>
 4    1  0.1116913E+000  0.1000000E+03  0.7546771E-02  0.1280296E+00
          2   -1    0    0  502    0  0.00000000000E+00  0.00000000000E+00  0.69615783951E+03  0.69615783951E+03  0.00000000000E+00 0.  1.
         -2   -1    0    0    0  501 -0.00000000000E+00 -0.00000000000E+00 -0.12137526282E+03  0.12137526282E+03  0.00000000000E+00 0. -1.
          6    1    1    2  502    0  0.98737207050E+02 -0.41700566294E+02  0.57926236422E+03  0.61397219798E+03  0.17300000000E+03 0. -1.
         -6    1    1    2    0  501 -0.98737207050E+02  0.41700566294E+02 -0.44797875373E+01  0.20356090435E+03  0.17300000000E+03 0. -1.
</event>
<event>
 4    1  0.1116913E+000  0.1000000E+03  0.7546771E-02  0.1280296E+00
          1   -1    0    0  502    0  0.00000000000E+00  0.00000000000E+00  0.14239166528E+04  0.14239166528E+04  0.00000000000E+00 0.  1.
         -1   -1    0    0    0  501 -0.00000000000E+00 -0.00000000000E+00 -0.33625891892E+02  0.33625891892E+02  0.00000000000E+00 0. -1.
          6    1    1    2  502    0  0.44347501999E+02 -0.12095650254E+03  0.81771082619E+03  0.84568148360E+03  0.17300000000E+03 0. -1.
         -6    1    1    2    0  501 -0.44347501999E+02  0.12095650254E+03  0.57257993477E+03  0.61186106114E+03  0.17300000000E+03 0. -1.
</event>
<event>
 4    1  0.1116913E+000  0.1000000E+03  0.7546771E-02  0.1280296E+00
         -2   -1    0    0    0  501 -0.00000000000E+00  0.00000000000E+00  0.36667242010E+02  0.36667242010E+02  0.00000000000E+00 0.  1.
          2   -1    0    0  502    0  0.00000000000E+00 -0.00000000000E+00 -0.12621048683E+04  0.12621048683E+04  0.00000000000E+00 0. -1.
          6    1    1    2  502    0  0.10700638798E+03  0.10521200420E+02 -0.40384402783E+03  0.45230527472E+03  0.17300000000E+03 0. -1.
         -6    1    1    2    0  501 -0.10700638798E+03 -0.10521200420E+02 -0.82159359851E+03  0.84646683564E+03  0.17300000000E+03 0.  1.
</event>
<event>
 4    1  0.1116913E+000  0.1000000E+03  0.7546771E-02  0.1280296E+00
         -2   -1    0    0    0  501 -0.00000000000E+00  0.00000000000E+00  0.11875695846E+03  0.11875695846E+03  0.00000000000E+00 0.  1.
          2   -1    0    0  502    0  0.00000000000E+00 -0.00000000000E+00 -0.63530098619E+03  0.63530098619E+03  0.00000000000E+00 0. -1.
          6    1    1    2  502    0 -0.17377324200E+03 -0.83911022522E+02 -0.13337560040E+03  0.29147255466E+03  0.17300000000E+03 0. -1.
         -6    1    1    2    0  501  0.17377324200E+03  0.83911022522E+02 -0.38316842732E+03  0.46258538999E+03  0.17300000000E+03 0.  1.
</event>
<event>
 4    1  0.1116913E+000  0.1000000E+03  0.7546771E-02  0.1280296E+00
         -2   -1    0    0    0  501 -0.00000000000E+00  0.00000000000E+00  0.47116848993E+03  0.47116848993E+03  0.00000000000E+00 0.  1.
          2   -1    0    0  502    0  0.00000000000E+00 -0.00000000000E+00 -0.37098750661E+03  0.37098750661E+03  0.00000000000E+00 0. -1.
          6    1    1    2  502    0 -0.32995142316E+03 -0.70898507833E+02  0.22734366478E+03  0.44216363710E+03  0.17300000000E+03 0. -1.
         -6    1    1    2    0  501  0.32995142316E+03  0.70898507833E+02 -0.12716268146E+03  0.39999235944E+03  0.17300000000E+03 0.  1.
</event>
<event>
 4    1  0.1116913E+000  0.1000000E+03  0.7546771E-02  0.1280296E+00
         -1   -1    0    0    0  501 -0.00000000000E+00  0.00000000000E+00  0.11918651147E+03  0.11918651147E+03  0.00000000000E+00 0.  1.
          1   -1    0    0  502    0  0.00000000000E+00 -0.00000000000E+00 -0.75070364877E+03  0.75070364877E+03  0.00000000000E+00 0. -1.
          6    1    1    2  502    0 -0.36616014035E+02 -0.16357552387E+03 -0.57902913109E+02  0.24774872722E+03  0.17300000000E+03 0. -1.
         -6    1    1    2    0  501  0.36616014035E+02  0.16357552387E+03 -0.57361422418E+03  0.62214143302E+03  0.17300000000E+03 0.  1.
</event>
<event>
 4    1  0.1116913E+000  0.1000000E+03  0.7546771E-02  0.1280296E+00
          1   -1    0    0  502    0  0.00000000000E+00  0.00000000000E+00  0.19829580159E+04  0.19829580159E+04  0.00000000000E+00 0.  1.
         -1   -1    0    0    0  501 -0.00000000000E+00 -0.00000000000E+00 -0.19945142724E+02  0.19945142724E+02  0.00000000000E+00 0. -1.
          6    1    1    2  502    0  0.50901458482E+02 -0.21805687660E+02  0.57380824162E+03  0.60187319648E+03  0.17300000000E+03 0.  1.
         -6    1    1    2    0  501 -0.50901458482E+02  0.21805687660E+02  0.13892046316E+04  0.14010299621E+04  0.17300000000E+03 0. -1.
</event>
<event>
 4    1  0.1116913E+000  0.1000000E+03  0.7546771E-02  0.1280296E+00
          2   -1    0    0  502    0  0.00000000000E+00  0.00000000000E+00  0.49753353660E+03  0.49753353660E+03  0.00000000000E+00 0.  1.
         -2   -1    0    0    0  501 -0.00000000000E+00 -0.00000000000E+00 -0.13481816956E+03  0.13481816956E+03  0.00000000000E+00 0. -1.
          6    1    1    2  502    0 -0.79510851516E+02 -0.17422351556E+03  0.15484216665E+03  0.30096661851E+03  0.17300000000E+03 0.  1.
         -6    1    1    2    0  501  0.79510851516E+02  0.17422351556E+03  0.20787320039E+03  0.33138508766E+03  0.17300000000E+03 0. -1.
</event>
<event>
 4    1  0.1116913E+000  0.1000000E+03  0.7546771E-02  0.1280296E+00
          2   -1    0    0  502    0  0.00000000000E+00  0.00000000000E+00  0.19334451299E+04  0.19334451299E+04  0.00000000000E+00 0.  1.
         -2   -1    0    0    0  501 -0.00000000000E+00 -0.00000000000E+00 -0.54526448986E+02  0.54526448986E+02  0.00000000000E+00 0. -1.
          6    1    1    2  502    0 -0.24583286870E+03  0.20235787917E+02  0.13100148961E+04  0.13442140136E+04  0.17300000000E+03 0.  1.
         -6    1    1    2    0  501  0.24583286870E+03 -0.20235787917E+02  0.56890378483E+03  0.64375756527E+03  0.17300000000E+03 0. -1.
</event>
<event>
 4    1  0.1116913E+000  0.1000000E+03  0.7546771E-02  0.1280296E+00
          2   -1    0    0  502    0  0.00000000000E+00  0.00000000000E+00  0.13084479467E+04  0.13084479467E+04  0.00000000000E+00 0.  1.
         -2   -1    0    0    0  501 -0.00000000000E+00 -0.00000000000E+00 -0.24698149327E+02  0.24698149327E+02  0.00000000000E+00 0. -1.
          6    1    1    2  502    0  0.21630826969E+02 -0.11380204890E+02  0.79874657918E+03  0.81763225199E+03  0.17300000000E+03 0.  1.
         -6    1    1    2    0  501 -0.21630826969E+02  0.11380204890E+02  0.48500321819E+03  0.51551384404E+03  0.17300000000E+03 0. -1.
</event>
<event>
 4    1  0.1116913E+000  0.1000000E+03  0.7546771E-02  0.1280296E+00
         -2   -1    0    0    0  501 -0.00000000000E+00  0.00000000000E+00  0.66981594194E+03  0.66981594194E+03  0.00000000000E+00 0.  1.
          2   -1    0    0  502    0  0.00000000000E+00 -0.00000000000E+00 -0.10755304265E+03  0.10755304265E+03  0.00000000000E+00 0. -1.
          6    1    1    2  502    0 -0.64444758714E+01 -0.17617517075E+02 -0.14797537036E+02  0.17464213489E+03  0.17300000000E+03 0. -1.
         -6    1    1    2    0  501  0.64444758714E+01  0.17617517075E+02  0.57706043632E+03  0.60272684970E+03  0.17300000000E+03 0.  1.
</event>
<event>
 4    1  0.1116913E+000  0.1000000E+03  0.7546771E-02  0.1280296E+00
          2   -1    0    0  502    0  0.00000000000E+00  0.00000000000E+00  0.37167037355E+03  0.37167037355E+03  0.00000000000E+00 0.  1.
         -2   -1    0    0    0  501 -0.00000000000E+00 -0.00000000000E+00 -0.10549635872E+03  0.10549635872E+03  0.00000000000E+00 0. -1.
          6    1    1    2  502    0 -0.38196837509E+02 -0.55006359687E+02  0.21653000112E+03  0.28512968872E+03  0.17300000000E+03 0.  1.
         -6    1    1    2    0  501  0.38196837509E+02  0.55006359687E+02  0.49644013705E+02  0.19203704356E+03  0.17300000000E+03 0. -1.
</event>
<event>
 4    1  0.1116913E+000  0.1000000E+03  0.7546771E-02  0.1280296E+00
          2   -1    0    0  502    0  0.00000000000E+00  0.00000000000E+00  0.43578193690E+04  0.43578193690E+04  0.00000000000E+00 0.  1.
         -2   -1    0    0    0  501 -0.00000000000E+00 -0.00000000000E+00 -0.10429458208E+02  0.10429458208E+02  0.00000000000E+00 0. -1.
          6    1    1    2  502    0  0.66763210689E+02 -0.26042259130E+02  0.32177386621E+04  0.32231826853E+04  0.17300000000E+03 0.  1.
         -6    1    1    2    0  501 -0.66763210689E+02  0.26042259130E+02  0.11296512487E+04  0.11450661419E+04  0.17300000000E+03 0. -1.
</event>
<event>
 4    1  0.1116913E+000  0.1000000E+03  0.7546771E-02  0.1280296E+00
         -2   -1    0    0    0  501 -0.00000000000E+00  0.00000000000E+00  0.67802174669E+02  0.67802174669E+02  0.00000000000E+00 0. -1.
          2   -1    0    0  502    0  0.00000000000E+00 -0.00000000000E+00 -0.37203369523E+04  0.37203369523E+04  0.00000000000E+00 0.  1.
          6    1    1    2  502    0  0.31426899638E+03  0.54821388039E+02 -0.31356367316E+04  0.31565672968E+04  0.17300000000E+03 0.  1.
         -6    1    1    2    0  501 -0.31426899638E+03 -0.54821388039E+02 -0.51689804604E+03  0.63157183017E+03  0.17300000000E+03 0. -1.
</event>
<event>
 4    1  0.1116913E+000  0.1000000E+03  0.7546771E-02  0.1280296E+00
         -1   -1    0    0    0  501 -0.00000000000E+00  0.00000000000E+00  0.32798941987E+02  0.32798941987E+02  0.00000000000E+00 0. -1.
          1   -1    0    0  502    0  0.00000000000E+00 -0.00000000000E+00 -0.15409799974E+04  0.15409799974E+04  0.00000000000E+00 0.  1.
          6    1    1    2  502    0  0.94377800063E+02  0.10479729346E+03 -0.65991976086E+03  0.69664390662E+03  0.17300000000E+03 0.  1.
         -6    1    1    2    0  501 -0.94377800063E+02 -0.10479729346E+03 -0.84826129453E+03  0.87713503274E+03  0.17300000000E+03 0. -1.
</event>
<event>
 4    1  0.1116913E+000  0.1000000E+03  0.7546771E-02  0.1280296E+00
         -2   -1    0    0    0  501 -0.00000000000E+00  0.00000000000E+00  0.24373131793E+02  0.24373131793E+02  0.00000000000E+00 0.  1.
          2   -1    0    0  502    0  0.00000000000E+00 -0.00000000000E+00 -0.14124990101E+04  0.14124990101E+04  0.00000000000E+00 0. -1.
          6    1    1    2  502    0 -0.29040874956E+02 -0.20384341575E+02 -0.91443301577E+03  0.93133003502E+03  0.17300000000E+03 0. -1.
         -6    1    1    2    0  501  0.29040874956E+02  0.20384341575E+02 -0.47369286249E+03  0.50554210683E+03  0.17300000000E+03 0.  1.
</event>
<event>
 4    1  0.1116913E+000  0.1000000E+03  0.7546771E-02  0.1280296E+00
         -2   -1    0    0    0  501 -0.00000000000E+00  0.00000000000E+00  0.50236585808E+02  0.50236585808E+02  0.00000000000E+00 0.  1.
          2   -1    0    0  502    0  0.00000000000E+00 -0.00000000000E+00 -0.77665238022E+03  0.77665238022E+03  0.00000000000E+00 0. -1.
          6    1    1    2  502    0  0.78303881386E+02  0.39972131821E+01 -0.47669832308E+03  0.51314497638E+03  0.17300000000E+03 0. -1.
         -6    1    1    2    0  501 -0.78303881386E+02 -0.39972131821E+01 -0.24971747133E+03  0.31374398965E+03  0.17300000000E+03 0.  1.
</event>
<event>
 4    1  0.1116913E+000  0.1000000E+03  0.7546771E-02  0.1280296E+00
         -1   -1    0    0    0  501 -0.00000000000E+00  0.00000000000E+00  0.11916883901E+04  0.11916883901E+04  0.00000000000E+00 0.  1.
          1   -1    0    0  502    0  0.00000000000E+00 -0.00000000000E+00 -0.87627131764E+02  0.87627131764E+02  0.00000000000E+00 0. -1.
          6    1    1    2  502    0  0.17081801131E+03  0.18229443957E+03  0.33442326878E+03  0.45186057406E+03  0.17300000000E+03 0. -1.
         -6    1    1    2    0  501 -0.17081801131E+03 -0.18229443957E+03  0.76963798960E+03  0.82745494785E+03  0.17300000000E+03 0.  1.
</event>
<event>
 4    1  0.1116913E+000  0.1000000E+03  0.7546771E-02  0.1280296E+00
          1   -1    0    0  502    0  0.00000000000E+00  0.00000000000E+00  0.37274844267E+03  0.37274844267E+03  0.00000000000E+00 0. -1.
         -1   -1    0    0    0  501 -0.00000000000E+00 -0.00000000000E+00 -0.14522505219E+03  0.14522505219E+03  0.00000000000E+00 0.  1.
          6    1    1    2  502    0  0.11096554253E+02  0.13389928927E+03  0.26458356309E+02  0.22063816035E+03  0.17300000000E+03 0. -1.
         -6    1    1    2    0  501 -0.11096554253E+02 -0.13389928927E+03  0.20106503417E+03  0.29733533451E+03  0.17300000000E+03 0.  1.
</event>
<event>
 4    1  0.1116913E+000  0.1000000E+03  0.7546771E-02  0.1280296E+00
          2   -1    0    0  502    0  0.00000000000E+00  0.00000000000E+00  0.20257619238E+04  0.20257619238E+04  0.00000000000E+00 0.  1.
         -2   -1    0    0    0  501 -0.00000000000E+00 -0.00000000000E+00 -0.26895316909E+02  0.26895316909E+02  0.00000000000E+00 0. -1.
          6    1    1    2  502    0 -0.30690650502E+02 -0.12951778426E+03  0.63584484906E+03  0.67226813441E+03  0.17300000000E+03 0. -1.
         -6    1    1    2    0  501  0.30690650502E+02  0.12951778426E+03  0.13630217578E+04  0.13803891063E+04  0.17300000000E+03 0.  1.
</event>
<event>
 4    1  0.1116913E+000  0.1000000E+03  0.7546771E-02  0.1280296E+00
          3   -1    0    0  502    0  0.00000000000E+00  0.00000000000E+00  0.99274225360E+02  0.99274225360E+02  0.00000000000E+00 0.  1.
         -3   -1    0    0    0  501 -0.00000000000E+00 -0.00000000000E+00 -0.45497718966E+03  0.45497718966E+03  0.00000000000E+00 0. -1.
          6    1    1    2  502    0  0.19755179781E+02 -0.70316653697E+02 -0.48084298027E+02  0.19384477974E+03  0.17300000000E+03 0. -1.
         -6    1    1    2    0  501 -0.19755179781E+02  0.70316653697E+02 -0.30761866627E+03  0.36040663528E+03  0.17300000000E+03 0.  1.
</event>
<event>
 4    1  0.1116913E+000  0.1000000E+03  0.7546771E-02  0.1280296E+00
          2   -1    0    0  502    0  0.00000000000E+00  0.00000000000E+00  0.19006601883E+03  0.19006601883E+03  0.00000000000E+00 0. -1.
         -2   -1    0    0    0  501 -0.00000000000E+00 -0.00000000000E+00 -0.24349967277E+03  0.24349967277E+03  0.00000000000E+00 0.  1.
          6    1    1    2  502    0 -0.83436934447E+02 -0.86389279077E+02  0.17520110571E+02  0.21133098174E+03  0.17300000000E+03 0. -1.
         -6    1    1    2    0  501  0.83436934447E+02  0.86389279077E+02 -0.70953764504E+02  0.22223470986E+03  0.17300000000E+03 0.  1.
</event>
<event>
 4    1  0.1116913E+000  0.1000000E+03  0.7546771E-02  0.1280296E+00
          2   -1    0    0  502    0  0.00000000000E+00  0.00000000000E+00  0.20714052332E+03  0.20714052332E+03  0.00000000000E+00 0. -1.
         -2   -1    0    0    0  501 -0.00000000000E+00 -0.00000000000E+00 -0.49298017371E+03  0.49298017371E+03  0.00000000000E+00 0.  1.
          6    1    1    2  502    0 -0.18770662147E+03  0.47832401817E+02 -0.34687941177E+03  0.43333132903E+03  0.17300000000E+03 0. -1.
         -6    1    1    2    0  501  0.18770662147E+03 -0.47832401817E+02  0.61039761378E+02  0.26678936800E+03  0.17300000000E+03 0.  1.
</event>
<event>
 4    1  0.1116913E+000  0.1000000E+03  0.7546771E-02  0.1280296E+00
          2   -1    0    0  502    0  0.00000000000E+00  0.00000000000E+00  0.18351863681E+04  0.18351863681E+04  0.00000000000E+00 0. -1.
         -2   -1    0    0    0  501 -0.00000000000E+00 -0.00000000000E+00 -0.30981654664E+02  0.30981654664E+02  0.00000000000E+00 0.  1.
          6    1    1    2  502    0 -0.47667695992E+02 -0.22409501491E+02  0.15102658230E+04  0.15210543222E+04  0.17300000000E+03 0. -1.
         -6    1    1    2    0  501  0.47667695992E+02  0.22409501491E+02  0.29393889044E+03  0.34511370055E+03  0.17300000000E+03 0.  1.
</event>
<event>
 4    1  0.1116913E+000  0.1000000E+03  0.7546771E-02  0.1280296E+00
          1   -1    0    0  502    0  0.00000000000E+00  0.00000000000E+00  0.40996179332E+03  0.40996179332E+03  0.00000000000E+00 0. -1.
         -1   -1    0    0    0  501 -0.00000000000E+00 -0.00000000000E+00 -0.11738693172E+03  0.11738693172E+03  0.00000000000E+00 0.  1.
          6    1    1    2  502    0 -0.13307109255E+03 -0.82443395783E+01  0.12167614022E+03  0.25001993502E+03  0.17300000000E+03 0. -1.
         -6    1    1    2    0  501  0.13307109255E+03  0.82443395783E+01  0.17089872138E+03  0.27732879003E+03  0.17300000000E+03 0.  1.
</event>
<event>
 4    1  0.1116913E+000  0.1000000E+03  0.7546771E-02  0.1280296E+00
         -2   -1    0    0    0  501 -0.00000000000E+00  0.00000000000E+00  0.21550584554E+02  0.21550584554E+02  0.00000000000E+00 0. -1.
          2   -1    0    0  502    0  0.00000000000E+00 -0.00000000000E+00 -0.22107002472E+04  0.22107002472E+04  0.00000000000E+00 0.  1.
          6    1    1    2  502    0  0.21950073024E+02 -0.13030721599E+03 -0.10135445416E+04  0.10366596906E+04  0.17300000000E+03 0.  1.
         -6    1    1    2    0  501 -0.21950073024E+02  0.13030721599E+03 -0.11756051210E+04  0.11955911411E+04  0.17300000000E+03 0. -1.
</event>
<event>
 4    1  0.1116913E+000  0.1000000E+03  0.7546771E-02  0.1280296E+00
          1   -1    0    0  502    0  0.00000000000E+00  0.00000000000E+00  0.11844081257E+04  0.11844081257E+04  0.00000000000E+00 0. -1.
         -1   -1    0    0    0  501 -0.00000000000E+00 -0.00000000000E+00 -0.61196692253E+02  0.61196692253E+02  0.00000000000E+00 0.  1.
          6    1    1    2  502    0 -0.90898059774E+02 -0.99913699606E+02  0.20093809878E+03  0.29757406503E+03  0.17300000000E+03 0. -1.
         -6    1    1    2    0  501  0.90898059774E+02  0.99913699606E+02  0.92227333465E+03  0.94803075290E+03  0.17300000000E+03 0. -1.
</event>
<event>
 4    1  0.1116913E+000  0.1000000E+03  0.7546771E-02  0.1280296E+00
          1   -1    0    0  502    0  0.00000000000E+00  0.00000000000E+00  0.45449208964E+03  0.45449208964E+03  0.00000000000E+00 0. -1.
         -1   -1    0    0    0  501 -0.00000000000E+00 -0.00000000000E+00 -0.45706662969E+03  0.45706662969E+03  0.00000000000E+00 0.  1.
          6    1    1    2  502    0  0.37452387440E+02  0.38019198832E+03 -0.17976918069E+03  0.45628345097E+03  0.17300000000E+03 0. -1.
         -6    1    1    2    0  501 -0.37452387440E+02 -0.38019198832E+03  0.17719464064E+03  0.45527526836E+03  0.17300000000E+03 0. -1.
</event>
<event>
 4    1  0.1116913E+000  0.1000000E+03  0.7546771E-02  0.1280296E+00
          2   -1    0    0  502    0  0.00000000000E+00  0.00000000000E+00  0.50111041949E+03  0.50111041949E+03  0.00000000000E+00 0. -1.
         -2   -1    0    0    0  501 -0.00000000000E+00 -0.00000000000E+00 -0.25451673006E+03  0.25451673006E+03  0.00000000000E+00 0.  1.
          6    1    1    2  502    0 -0.15001356732E+02  0.31161142116E+03  0.10542874606E+03  0.37198244447E+03  0.17300000000E+03 0. -1.
         -6    1    1    2    0  501  0.15001356732E+02 -0.31161142116E+03  0.14116494337E+03  0.38364470508E+03  0.17300000000E+03 0. -1.
</event>
<event>
 4    1  0.1116913E+000  0.1000000E+03  0.7546771E-02  0.1280296E+00
          2   -1    0    0  502    0  0.00000000000E+00  0.00000000000E+00  0.18382053174E+04  0.18382053174E+04  0.00000000000E+00 0. -1.
         -2   -1    0    0    0  501 -0.00000000000E+00 -0.00000000000E+00 -0.31827161497E+02  0.31827161497E+02  0.00000000000E+00 0.  1.
          6    1    1    2  502    0  0.10831728654E+03  0.24243792846E+02  0.13960482487E+04  0.14110989012E+04  0.17300000000E+03 0. -1.
         -6    1    1    2    0  501 -0.10831728654E+03 -0.24243792846E+02  0.41032990712E+03  0.45893357769E+03  0.17300000000E+03 0. -1.
</event>
<event>
 4    1  0.1116913E+000  0.1000000E+03  0.7546771E-02  0.1280296E+00
          2   -1    0    0  502    0  0.00000000000E+00  0.00000000000E+00  0.55248953885E+03  0.55248953885E+03  0.00000000000E+00 0. -1.
         -2   -1    0    0    0  501 -0.00000000000E+00 -0.00000000000E+00 -0.60084636291E+02  0.60084636291E+02  0.00000000000E+00 0.  1.
          6    1    1    2  502    0 -0.44402012416E+02 -0.35331424816E+02  0.25776211782E+03  0.31557908307E+03  0.17300000000E+03 0. -1.
         -6    1    1    2    0  501  0.44402012416E+02  0.35331424816E+02  0.23464278474E+03  0.29699509207E+03  0.17300000000E+03 0. -1.
</event>
<event>
 4    1  0.1116913E+000  0.1000000E+03  0.7546771E-02  0.1280296E+00
          2   -1    0    0  502    0  0.00000000000E+00  0.00000000000E+00  0.11058842845E+04  0.11058842845E+04  0.00000000000E+00 0. -1.
         -2   -1    0    0    0  501 -0.00000000000E+00 -0.00000000000E+00 -0.46922647402E+02  0.46922647402E+02  0.00000000000E+00 0.  1.
          6    1    1    2  502    0 -0.57390620309E+02  0.50861893295E+02  0.20860096364E+03  0.28164512693E+03  0.17300000000E+03 0. -1.
         -6    1    1    2    0  501  0.57390620309E+02 -0.50861893295E+02  0.85036067350E+03  0.87116180502E+03  0.17300000000E+03 0. -1.
</event>
<event>
 4    1  0.1116913E+000  0.1000000E+03  0.7546771E-02  0.1280296E+00
          1   -1    0    0  502    0  0.00000000000E+00  0.00000000000E+00  0.12098821958E+03  0.12098821958E+03  0.00000000000E+00 0. -1.
         -1   -1    0    0    0  501 -0.00000000000E+00 -0.00000000000E+00 -0.60041232828E+03  0.60041232828E+03  0.00000000000E+00 0.  1.
          6    1    1    2  502    0  0.11874285242E+03 -0.47998800439E+02 -0.22636399264E+02  0.21643741917E+03  0.17300000000E+03 0. -1.
         -6    1    1    2    0  501 -0.11874285242E+03  0.47998800439E+02 -0.45678770943E+03  0.50496312869E+03  0.17300000000E+03 0. -1.
</event>
<event>
 4    1  0.1116913E+000  0.1000000E+03  0.7546771E-02  0.1280296E+00
         -2   -1    0    0    0  501 -0.00000000000E+00  0.00000000000E+00  0.90487390693E+02  0.90487390693E+02  0.00000000000E+00 0. -1.
          2   -1    0    0  502    0  0.00000000000E+00 -0.00000000000E+00 -0.97318168542E+03  0.97318168542E+03  0.00000000000E+00 0.  1.
          6    1    1    2  502    0 -0.72759959091E+02 -0.22888568287E+03 -0.47932326854E+03  0.56334932611E+03  0.17300000000E+03 0.  1.
         -6    1    1    2    0  501  0.72759959091E+02  0.22888568287E+03 -0.40337102619E+03  0.50031975000E+03  0.17300000000E+03 0. -1.
</event>
<event>
 4    1  0.1116913E+000  0.1000000E+03  0.7546771E-02  0.1280296E+00
         -2   -1    0    0    0  501 -0.00000000000E+00  0.00000000000E+00  0.49488679243E+03  0.49488679243E+03  0.00000000000E+00 0. -1.
          2   -1    0    0  502    0  0.00000000000E+00 -0.00000000000E+00 -0.20870007790E+03  0.20870007790E+03  0.00000000000E+00 0.  1.
          6    1    1    2  502    0  0.87806412306E+02  0.24310172440E+03  0.23165483004E+03  0.38781616100E+03  0.17300000000E+03 0.  1.
         -6    1    1    2    0  501 -0.87806412306E+02 -0.24310172440E+03  0.54531884483E+02  0.31577070934E+03  0.17300000000E+03 0. -1.
</event>
<event>
 4    1  0.1116913E+000  0.1000000E+03  0.7546771E-02  0.1280296E+00
          2   -1    0    0  502    0  0.00000000000E+00  0.00000000000E+00  0.11511343439E+04  0.11511343439E+04  0.00000000000E+00 0.  1.
         -2   -1    0    0    0  501 -0.00000000000E+00 -0.00000000000E+00 -0.17392220687E+03  0.17392220687E+03  0.00000000000E+00 0. -1.
          6    1    1    2  502    0 -0.18261721507E+03 -0.28695480820E+03  0.14266081331E+03  0.40739810609E+03  0.17300000000E+03 0.  1.
         -6    1    1    2    0  501  0.18261721507E+03  0.28695480820E+03  0.83455132369E+03  0.91765844466E+03  0.17300000000E+03 0. -1.
</event>
<event>
 4    1  0.1116913E+000  0.1000000E+03  0.7546771E-02  0.1280296E+00
          2   -1    0    0  502    0  0.00000000000E+00  0.00000000000E+00  0.32784896453E+03  0.32784896453E+03  0.00000000000E+00 0.  1.
         -2   -1    0    0    0  501 -0.00000000000E+00 -0.00000000000E+00 -0.15443980870E+03  0.15443980870E+03  0.00000000000E+00 0. -1.
          6    1    1    2  502    0  0.45833274990E+02 -0.92313852449E+02 -0.20897568580E+02  0.20245553789E+03  0.17300000000E+03 0.  1.
         -6    1    1    2    0  501 -0.45833274990E+02  0.92313852449E+02  0.19430672441E+03  0.27983323534E+03  0.17300000000E+03 0. -1.
</event>
<event>
 4    1  0.1116913E+000  0.1000000E+03  0.7546771E-02  0.1280296E+00
         -1   -1    0    0    0  501 -0.00000000000E+00  0.00000000000E+00  0.45213570372E+03  0.45213570372E+03  0.00000000000E+00 0. -1.
          1   -1    0    0  502    0  0.00000000000E+00 -0.00000000000E+00 -0.12611904597E+03  0.12611904597E+03  0.00000000000E+00 0.  1.
          6    1    1    2  502    0 -0.15066407348E+03 -0.66270595610E+02  0.16491072348E+03  0.29019993384E+03  0.17300000000E+03 0.  1.
         -6    1    1    2    0  501  0.15066407348E+03  0.66270595610E+02  0.16110593427E+03  0.28805481585E+03  0.17300000000E+03 0.  1.
</event>
<event>
 4    1  0.1116913E+000  0.1000000E+03  0.7546771E-02  0.1280296E+00
         -2   -1    0    0    0  501 -0.00000000000E+00  0.00000000000E+00  0.93235807503E+03  0.93235807503E+03  0.00000000000E+00 0. -1.
          2   -1    0    0  502    0  0.00000000000E+00 -0.00000000000E+00 -0.89742975273E+02  0.89742975273E+02  0.00000000000E+00 0.  1.
          6    1    1    2  502    0  0.17264598272E+03 -0.49625935220E+02  0.16240821993E+03  0.29761518560E+03  0.17300000000E+03 0.  1.
         -6    1    1    2    0  501 -0.17264598272E+03  0.49625935220E+02  0.68020687982E+03  0.72448586470E+03  0.17300000000E+03 0.  1.
</event>
<event>
 4    1  0.1116913E+000  0.1000000E+03  0.7546771E-02  0.1280296E+00
         -1   -1    0    0    0  501 -0.00000000000E+00  0.00000000000E+00  0.60811610584E+02  0.60811610584E+02  0.00000000000E+00 0. -1.
          1   -1    0    0  502    0  0.00000000000E+00 -0.00000000000E+00 -0.98660161768E+03  0.98660161768E+03  0.00000000000E+00 0.  1.
          6    1    1    2  502    0 -0.15371506761E+03 -0.49126551224E+02 -0.59855937700E+03  0.64361795177E+03  0.17300000000E+03 0.  1.
         -6    1    1    2    0  501  0.15371506761E+03  0.49126551224E+02 -0.32723063010E+03  0.40379527649E+03  0.17300000000E+03 0.  1.
</event>
<event>
 4    1  0.1116913E+000  0.1000000E+03  0.7546771E-02  0.1280296E+00
          1   -1    0    0  502    0  0.00000000000E+00  0.00000000000E+00  0.41955120521E+03  0.41955120521E+03  0.00000000000E+00 0.  1.
         -1   -1    0    0    0  501 -0.00000000000E+00 -0.00000000000E+00 -0.27459505707E+03  0.27459505707E+03  0.00000000000E+00 0. -1.
          6    1    1    2  502    0 -0.25352707479E+02 -0.28219501102E+03  0.14478940752E+03  0.36217365524E+03  0.17300000000E+03 0.  1.
         -6    1    1    2    0  501  0.25352707479E+02  0.28219501102E+03  0.16674062507E+00  0.33197260704E+03  0.17300000000E+03 0. -1.
</event>
<event>
 4    1  0.1116913E+000  0.1000000E+03  0.7546771E-02  0.1280296E+00
          1   -1    0    0  502    0  0.00000000000E+00  0.00000000000E+00  0.27922096100E+03  0.27922096100E+03  0.00000000000E+00 0.  1.
         -1   -1    0    0    0  501 -0.00000000000E+00 -0.00000000000E+00 -0.15099359750E+03  0.15099359750E+03  0.00000000000E+00 0. -1.
          6    1    1    2  502    0 -0.96749514904E+02 -0.69655383207E+01  0.11977144313E+03  0.23169632269E+03  0.17300000000E+03 0.  1.
         -6    1    1    2    0  501  0.96749514904E+02  0.69655383207E+01  0.84559203604E+01  0.19851823581E+03  0.17300000000E+03 0. -1.
</event>
<event>
 4    1  0.1116913E+000  0.1000000E+03  0.7546771E-02  0.1280296E+00
          1   -1    0    0  502    0  0.00000000000E+00  0.00000000000E+00  0.11723999800E+04  0.11723999800E+04  0.00000000000E+00 0.  1.
         -1   -1    0    0    0  501 -0.00000000000E+00 -0.00000000000E+00 -0.36137530246E+02  0.36137530246E+02  0.00000000000E+00 0. -1.
          6    1    1    2  502    0  0.14475682629E+02 -0.37620423684E+02  0.26284856895E+03  0.31724314313E+03  0.17300000000E+03 0.  1.
         -6    1    1    2    0  501 -0.14475682629E+02  0.37620423684E+02  0.87341388077E+03  0.89129436708E+03  0.17300000000E+03 0. -1.
</event>
<event>
 4    1  0.1116913E+000  0.1000000E+03  0.7546771E-02  0.1280296E+00
          2   -1    0    0  502    0  0.00000000000E+00  0.00000000000E+00  0.18288693995E+04  0.18288693995E+04  0.00000000000E+00 0. -1.
         -2   -1    0    0    0  501 -0.00000000000E+00 -0.00000000000E+00 -0.23012540344E+02  0.23012540344E+02  0.00000000000E+00 0.  1.
          6    1    1    2  502    0 -0.24733002115E+02 -0.10241700588E+03  0.10496656384E+04  0.10690312983E+04  0.17300000000E+03 0. -1.
         -6    1    1    2    0  501  0.24733002115E+02  0.10241700588E+03  0.75619122080E+03  0.78285064150E+03  0.17300000000E+03 0.  1.
</event>
<event>
 4    1  0.1116913E+000  0.1000000E+03  0.7546771E-02  0.1280296E+00
          2   -1    0    0  502    0  0.00000000000E+00  0.00000000000E+00  0.10392270275E+04  0.10392270275E+04  0.00000000000E+00 0.  1.
         -2   -1    0    0    0  501 -0.00000000000E+00 -0.00000000000E+00 -0.40835643764E+02  0.40835643764E+02  0.00000000000E+00 0. -1.
          6    1    1    2  502    0  0.10402209213E+03 -0.11827036991E+02  0.39605411675E+03  0.44468903500E+03  0.17300000000E+03 0.  1.
         -6    1    1    2    0  501 -0.10402209213E+03  0.11827036991E+02  0.60233726695E+03  0.63537363623E+03  0.17300000000E+03 0. -1.
</event>
<event>
 4    1  0.1116913E+000  0.1000000E+03  0.7546771E-02  0.1280296E+00
         -2   -1    0    0    0  501 -0.00000000000E+00  0.00000000000E+00  0.82599473872E+03  0.82599473872E+03  0.00000000000E+00 0.  1.
          2   -1    0    0  502    0  0.00000000000E+00 -0.00000000000E+00 -0.48727205344E+02  0.48727205344E+02  0.00000000000E+00 0. -1.
          6    1    1    2  502    0 -0.12092373314E+02  0.29924912914E+02  0.17865008465E+03  0.25077196544E+03  0.17300000000E+03 0. -1.
         -6    1    1    2    0  501  0.12092373314E+02 -0.29924912914E+02  0.59861744872E+03  0.62394997862E+03  0.17300000000E+03 0.  1.
</event>
<event>
 4    1  0.1116913E+000  0.1000000E+03  0.7546771E-02  0.1280296E+00
          1   -1    0    0  502    0  0.00000000000E+00  0.00000000000E+00  0.19243452999E+03  0.19243452999E+03  0.00000000000E+00 0.  1.
         -1   -1    0    0    0  501 -0.00000000000E+00 -0.00000000000E+00 -0.11647368568E+04  0.11647368568E+04  0.00000000000E+00 0. -1.
          6    1    1    2  502    0  0.36091701953E+03 -0.30864446363E+02 -0.84589637542E+03  0.93631372252E+03  0.17300000000E+03 0. -1.
         -6    1    1    2    0  501 -0.36091701953E+03  0.30864446363E+02 -0.12640595140E+03  0.42085766429E+03  0.17300000000E+03 0.  1.
</event>
<event>
 4    1  0.1116913E+000  0.1000000E+03  0.7546771E-02  0.1280296E+00
          2   -1    0    0  502    0  0.00000000000E+00  0.00000000000E+00  0.30473977232E+03  0.30473977232E+03  0.00000000000E+00 0.  1.
         -2   -1    0    0    0  501 -0.00000000000E+00 -0.00000000000E+00 -0.10188854393E+03  0.10188854393E+03  0.00000000000E+00 0. -1.
          6    1    1    2  502    0  0.17845472859E+02 -0.21335603232E+02  0.79937702876E+02  0.19259466558E+03  0.17300000000E+03 0. -1.
         -6    1    1    2    0  501 -0.17845472859E+02  0.21335603232E+02  0.12291352551E+03  0.21403365067E+03  0.17300000000E+03 0.  1.
</event>
<event>
 4    1  0.1116913E+000  0.1000000E+03  0.7546771E-02  0.1280296E+00
          2   -1    0    0  502    0  0.00000000000E+00  0.00000000000E+00  0.10353831996E+04  0.10353831996E+04  0.00000000000E+00 0.  1.
         -2   -1    0    0    0  501 -0.00000000000E+00 -0.00000000000E+00 -0.13843062082E+03  0.13843062082E+03  0.00000000000E+00 0. -1.
          6    1    1    2  502    0 -0.28898629745E+03  0.76125461583E+02  0.68909819516E+03  0.77077460297E+03  0.17300000000E+03 0. -1.
         -6    1    1    2    0  501  0.28898629745E+03 -0.76125461583E+02  0.20785438362E+03  0.40303921745E+03  0.17300000000E+03 0.  1.
</event>
<event>
 4    1  0.1116913E+000  0.1000000E+03  0.7546771E-02  0.1280296E+00
          2   -1    0    0  502    0  0.00000000000E+00  0.00000000000E+00  0.33735765412E+03  0.33735765412E+03  0.00000000000E+00 0.  1.
         -2   -1    0    0    0  501 -0.00000000000E+00 -0.00000000000E+00 -0.10484001114E+03  0.10484001114E+03  0.00000000000E+00 0. -1.
          6    1    1    2  502    0  0.64149917602E+02  0.34718174427E+02  0.10343310902E+03  0.21435477976E+03  0.17300000000E+03 0. -1.
         -6    1    1    2    0  501 -0.64149917602E+02 -0.34718174427E+02  0.12908453396E+03  0.22784288550E+03  0.17300000000E+03 0.  1.
</event>
<event>
 4    1  0.1116913E+000  0.1000000E+03  0.7546771E-02  0.1280296E+00
          2   -1    0    0  502    0  0.00000000000E+00  0.00000000000E+00  0.61070791942E+02  0.61070791942E+02  0.00000000000E+00 0.  1.
         -2   -1    0    0    0  501 -0.00000000000E+00 -0.00000000000E+00 -0.63982429002E+03  0.63982429002E+03  0.00000000000E+00 0. -1.
          6    1    1    2  502    0  0.80399232798E+02  0.16101351607E+02 -0.20212209854E+03  0.27839833490E+03  0.17300000000E+03 0.  1.
         -6    1    1    2    0  501 -0.80399232798E+02 -0.16101351607E+02 -0.37663139954E+03  0.42249674706E+03  0.17300000000E+03 0. -1.
</event>
<event>
 4    1  0.1116913E+000  0.1000000E+03  0.7546771E-02  0.1280296E+00
          2   -1    0    0  502    0  0.00000000000E+00  0.00000000000E+00  0.31463887252E+02  0.31463887252E+02  0.00000000000E+00 0.  1.
         -2   -1    0    0    0  501 -0.00000000000E+00 -0.00000000000E+00 -0.13923355002E+04  0.13923355002E+04  0.00000000000E+00 0. -1.
          6    1    1    2  502    0  0.98785437662E+02 -0.16872751597E+02 -0.46977587629E+03  0.51055031719E+03  0.17300000000E+03 0.  1.
         -6    1    1    2    0  501 -0.98785437662E+02  0.16872751597E+02 -0.89109573669E+03  0.91324907029E+03  0.17300000000E+03 0. -1.
</event>
<event>
 4    1  0.1116913E+000  0.1000000E+03  0.7546771E-02  0.1280296E+00
          1   -1    0    0  502    0  0.00000000000E+00  0.00000000000E+00  0.13520469992E+04  0.13520469992E+04  0.00000000000E+00 0.  1.
         -1   -1    0    0    0  501 -0.00000000000E+00 -0.00000000000E+00 -0.12022877866E+03  0.12022877866E+03  0.00000000000E+00 0. -1.
          6    1    1    2  502    0 -0.28641678897E+03 -0.66694540127E+02  0.10081140069E+04  0.10642864227E+04  0.17300000000E+03 0.  1.
         -6    1    1    2    0  501  0.28641678897E+03  0.66694540127E+02  0.22370421360E+03  0.40798935509E+03  0.17300000000E+03 0. -1.
</event>
<event>
 4    1  0.1116913E+000  0.1000000E+03  0.7546771E-02  0.1280296E+00
         -1   -1    0    0    0  501 -0.00000000000E+00  0.00000000000E+00  0.11129084411E+03  0.11129084411E+03  0.00000000000E+00 0. -1.
          1   -1    0    0  502    0  0.00000000000E+00 -0.00000000000E+00 -0.38340015420E+03  0.38340015420E+03  0.00000000000E+00 0.  1.
          6    1    1    2  502    0 -0.85611202828E+02  0.15926529150E+02 -0.22204436472E+03  0.29464492577E+03  0.17300000000E+03 0.  1.
         -6    1    1    2    0  501  0.85611202828E+02 -0.15926529150E+02 -0.50064945372E+02  0.20004607253E+03  0.17300000000E+03 0. -1.
</event>
<event>
 4    1  0.1116913E+000  0.1000000E+03  0.7546771E-02  0.1280296E+00
          3   -1    0    0  502    0  0.00000000000E+00  0.00000000000E+00  0.16938898304E+03  0.16938898304E+03  0.00000000000E+00 0.  1.
         -3   -1    0    0    0  501 -0.00000000000E+00 -0.00000000000E+00 -0.33349485615E+03  0.33349485615E+03  0.00000000000E+00 0. -1.
          6    1    1    2  502    0  0.40870661491E+02  0.14759554892E+03 -0.14101681438E+03  0.27068357721E+03  0.17300000000E+03 0.  1.
         -6    1    1    2    0  501 -0.40870661491E+02 -0.14759554892E+03 -0.23089058729E+02  0.23220026199E+03  0.17300000000E+03 0.  1.
</event>
<event>
 4    1  0.1116913E+000  0.1000000E+03  0.7546771E-02  0.1280296E+00
          2   -1    0    0  502    0  0.00000000000E+00  0.00000000000E+00  0.32634561027E+04  0.32634561027E+04  0.00000000000E+00 0.  1.
         -2   -1    0    0    0  501 -0.00000000000E+00 -0.00000000000E+00 -0.16338895690E+02  0.16338895690E+02  0.00000000000E+00 0. -1.
          6    1    1    2  502    0 -0.67309578353E+02  0.21420552608E+02  0.25869638395E+04  0.25937039782E+04  0.17300000000E+03 0.  1.
         -6    1    1    2    0  501  0.67309578353E+02 -0.21420552608E+02  0.66015336750E+03  0.68609102022E+03  0.17300000000E+03 0.  1.
</event>
<event>
 4    1  0.1116913E+000  0.1000000E+03  0.7546771E-02  0.1280296E+00
          1   -1    0    0  502    0  0.00000000000E+00  0.00000000000E+00  0.11656491075E+04  0.11656491075E+04  0.00000000000E+00 0.  1.
         -1   -1    0    0    0  501 -0.00000000000E+00 -0.00000000000E+00 -0.35641181177E+02  0.35641181177E+02  0.00000000000E+00 0. -1.
          6    1    1    2  502    0 -0.23338867269E+02 -0.50636777430E+02  0.83680713629E+03  0.85632001571E+03  0.17300000000E+03 0.  1.
         -6    1    1    2    0  501  0.23338867269E+02  0.50636777430E+02  0.29320079000E+03  0.34497027294E+03  0.17300000000E+03 0.  1.
</event>
<event>
 4    1  0.1116913E+000  0.1000000E+03  0.7546771E-02  0.1280296E+00
          4   -1    0    0  502    0  0.00000000000E+00  0.00000000000E+00  0.21437148358E+02  0.21437148358E+02  0.00000000000E+00 0.  1.
         -4   -1    0    0    0  501 -0.00000000000E+00 -0.00000000000E+00 -0.23603600201E+04  0.23603600201E+04  0.00000000000E+00 0. -1.
          6    1    1    2  502    0 -0.99878853612E+02  0.84176603546E+02 -0.85141561854E+03  0.87857785168E+03  0.17300000000E+03 0.  1.
         -6    1    1    2    0  501  0.99878853612E+02 -0.84176603546E+02 -0.14875072532E+04  0.15032193168E+04  0.17300000000E+03 0.  1.
</event>
<event>
 4    1  0.1116913E+000  0.1000000E+03  0.7546771E-02  0.1280296E+00
         -1   -1    0    0    0  501 -0.00000000000E+00  0.00000000000E+00  0.32239351042E+02  0.32239351042E+02  0.00000000000E+00 0.  1.
          1   -1    0    0  502    0  0.00000000000E+00 -0.00000000000E+00 -0.12614532275E+04  0.12614532275E+04  0.00000000000E+00 0. -1.
          6    1    1    2  502    0  0.48306449975E+02 -0.47609117006E+02 -0.36328434933E+03  0.40804982490E+03  0.17300000000E+03 0. -1.
         -6    1    1    2    0  501 -0.48306449975E+02  0.47609117006E+02 -0.86592952716E+03  0.88564275368E+03  0.17300000000E+03 0.  1.
</event>
<event>
 4    1  0.1116913E+000  0.1000000E+03  0.7546771E-02  0.1280296E+00
         -1   -1    0    0    0  501 -0.00000000000E+00  0.00000000000E+00  0.15563495413E+03  0.15563495413E+03  0.00000000000E+00 0.  1.
          1   -1    0    0  502    0  0.00000000000E+00 -0.00000000000E+00 -0.21619073366E+03  0.21619073366E+03  0.00000000000E+00 0. -1.
          6    1    1    2  502    0 -0.51535286366E+02  0.27090931591E+02 -0.11921195916E+02  0.18292326049E+03  0.17300000000E+03 0. -1.
         -6    1    1    2    0  501  0.51535286366E+02 -0.27090931591E+02 -0.48634583614E+02  0.18890242730E+03  0.17300000000E+03 0.  1.
</event>
<event>
 4    1  0.1116913E+000  0.1000000E+03  0.7546771E-02  0.1280296E+00
         -1   -1    0    0    0  501 -0.00000000000E+00  0.00000000000E+00  0.11084884093E+03  0.11084884093E+03  0.00000000000E+00 0.  1.
          1   -1    0    0  502    0  0.00000000000E+00 -0.00000000000E+00 -0.36675812866E+03  0.36675812866E+03  0.00000000000E+00 0. -1.
          6    1    1    2  502    0  0.56342992596E+02  0.27197302970E+02 -0.30207025312E+02  0.18642878126E+03  0.17300000000E+03 0. -1.
         -6    1    1    2    0  501 -0.56342992596E+02 -0.27197302970E+02 -0.22570226242E+03  0.29117818834E+03  0.17300000000E+03 0.  1.
</event>
<event>
 4    1  0.1116913E+000  0.1000000E+03  0.7546771E-02  0.1280296E+00
         -1   -1    0    0    0  501 -0.00000000000E+00  0.00000000000E+00  0.30517828928E+02  0.30517828928E+02  0.00000000000E+00 0.  1.
          1   -1    0    0  502    0  0.00000000000E+00 -0.00000000000E+00 -0.14657827968E+04  0.14657827968E+04  0.00000000000E+00 0. -1.
          6    1    1    2  502    0  0.62701856086E+02 -0.25534280270E+02 -0.10752365053E+04  0.10911672945E+04  0.17300000000E+03 0. -1.
         -6    1    1    2    0  501 -0.62701856086E+02  0.25534280270E+02 -0.36002846263E+03  0.40513333130E+03  0.17300000000E+03 0.  1.
</event>
<event>
 4    1  0.1116913E+000  0.1000000E+03  0.7546771E-02  0.1280296E+00
         -1   -1    0    0    0  501 -0.00000000000E+00  0.00000000000E+00  0.21693182136E+03  0.21693182136E+03  0.00000000000E+00 0. -1.
          1   -1    0    0  502    0  0.00000000000E+00 -0.00000000000E+00 -0.32263214642E+03  0.32263214642E+03  0.00000000000E+00 0.  1.
          6    1    1    2  502    0 -0.14885213174E+03 -0.66809321689E+01  0.83426360066E+02  0.24308547783E+03  0.17300000000E+03 0. -1.
         -6    1    1    2    0  501  0.14885213174E+03  0.66809321689E+01 -0.18912668512E+03  0.29647848995E+03  0.17300000000E+03 0. -1.
</event>
<event>
 4    1  0.1116913E+000  0.1000000E+03  0.7546771E-02  0.1280296E+00
         -2   -1    0    0    0  501 -0.00000000000E+00  0.00000000000E+00  0.20030117674E+03  0.20030117674E+03  0.00000000000E+00 0. -1.
          2   -1    0    0  502    0  0.00000000000E+00 -0.00000000000E+00 -0.32705063774E+03  0.32705063774E+03  0.00000000000E+00 0.  1.
          6    1    1    2  502    0 -0.54257733534E+02 -0.69861804311E+02 -0.23500434961E+03  0.30492723342E+03  0.17300000000E+03 0. -1.
         -6    1    1    2    0  501  0.54257733534E+02  0.69861804311E+02  0.10825488861E+03  0.22242458105E+03  0.17300000000E+03 0. -1.
</event>
<event>
 4    1  0.1116913E+000  0.1000000E+03  0.7546771E-02  0.1280296E+00
         -1   -1    0    0    0  501 -0.00000000000E+00  0.00000000000E+00  0.13697229698E+03  0.13697229698E+03  0.00000000000E+00 0. -1.
          1   -1    0    0  502    0  0.00000000000E+00 -0.00000000000E+00 -0.47768972068E+03  0.47768972068E+03  0.00000000000E+00 0.  1.
          6    1    1    2  502    0 -0.13023743849E+03 -0.36091060400E+02 -0.12616950350E+02  0.21989211551E+03  0.17300000000E+03 0. -1.
         -6    1    1    2    0  501  0.13023743849E+03  0.36091060400E+02 -0.32810047335E+03  0.39476990215E+03  0.17300000000E+03 0. -1.
</event>
<event>
 4    1  0.1116913E+000  0.1000000E+03  0.7546771E-02  0.1280296E+00
         -2   -1    0    0    0  501 -0.00000000000E+00  0.00000000000E+00  0.57574963183E+02  0.57574963183E+02  0.00000000000E+00 0. -1.
          2   -1    0    0  502    0  0.00000000000E+00 -0.00000000000E+00 -0.54229024211E+03  0.54229024211E+03  0.00000000000E+00 0.  1.
          6    1    1    2  502    0 -0.14935109669E+02  0.29218962829E+02 -0.26733551139E+03  0.32011573054E+03  0.17300000000E+03 0. -1.
         -6    1    1    2    0  501  0.14935109669E+02 -0.29218962829E+02 -0.21737976754E+03  0.27974947475E+03  0.17300000000E+03 0. -1.
</event>
<event>
 4    1  0.1116913E+000  0.1000000E+03  0.7546771E-02  0.1280296E+00
         -2   -1    0    0    0  501 -0.00000000000E+00  0.00000000000E+00  0.65122060288E+02  0.65122060288E+02  0.00000000000E+00 0.  1.
          2   -1    0    0  502    0  0.00000000000E+00 -0.00000000000E+00 -0.22072075121E+04  0.22072075121E+04  0.00000000000E+00 0. -1.
          6    1    1    2  502    0 -0.19170558191E+03 -0.96372175158E+02 -0.18511876695E+04  0.18715938165E+04  0.17300000000E+03 0. -1.
         -6    1    1    2    0  501  0.19170558191E+03  0.96372175158E+02 -0.29089778227E+03  0.40073575584E+03  0.17300000000E+03 0.  1.
</event>
<event>
 4    1  0.1116913E+000  0.1000000E+03  0.7546771E-02  0.1280296E+00
         -2   -1    0    0    0  501 -0.00000000000E+00  0.00000000000E+00  0.16935571511E+02  0.16935571511E+02  0.00000000000E+00 0.  1.
          2   -1    0    0  502    0  0.00000000000E+00 -0.00000000000E+00 -0.23306029208E+04  0.23306029208E+04  0.00000000000E+00 0. -1.
          6    1    1    2  502    0  0.20598347322E+02  0.16937025712E+02 -0.17120055716E+04  0.17209309201E+04  0.17300000000E+03 0. -1.
         -6    1    1    2    0  501 -0.20598347322E+02 -0.16937025712E+02 -0.60166177770E+03  0.62660757217E+03  0.17300000000E+03 0.  1.
</event>
<event>
 4    1  0.1116913E+000  0.1000000E+03  0.7546771E-02  0.1280296E+00
         -1   -1    0    0    0  501 -0.00000000000E+00  0.00000000000E+00  0.91567963441E+02  0.91567963441E+02  0.00000000000E+00 0. -1.
          1   -1    0    0  502    0  0.00000000000E+00 -0.00000000000E+00 -0.11440609167E+04  0.11440609167E+04  0.00000000000E+00 0.  1.
          6    1    1    2  502    0 -0.12335389557E+03 -0.11499765650E+03 -0.93737007686E+03  0.96800429005E+03  0.17300000000E+03 0.  1.
         -6    1    1    2    0  501  0.12335389557E+03  0.11499765650E+03 -0.11512287640E+03  0.26762459009E+03  0.17300000000E+03 0. -1.
</event>
<event>
 4    1  0.1116913E+000  0.1000000E+03  0.7546771E-02  0.1280296E+00
         -3   -1    0    0    0  501 -0.00000000000E+00  0.00000000000E+00  0.14197043174E+03  0.14197043174E+03  0.00000000000E+00 0. -1.
          3   -1    0    0  502    0  0.00000000000E+00 -0.00000000000E+00 -0.47069076055E+03  0.47069076055E+03  0.00000000000E+00 0.  1.
          6    1    1    2  502    0  0.36621082751E+02 -0.12192176581E+03  0.60890131654E+01  0.21487693399E+03  0.17300000000E+03 0.  1.
         -6    1    1    2    0  501 -0.36621082751E+02  0.12192176581E+03 -0.33480934198E+03  0.39778425831E+03  0.17300000000E+03 0. -1.
</event>
<event>
 4    1  0.1116913E+000  0.1000000E+03  0.7546771E-02  0.1280296E+00
         -2   -1    0    0    0  501 -0.00000000000E+00  0.00000000000E+00  0.52991187089E+02  0.52991187089E+02  0.00000000000E+00 0. -1.
          2   -1    0    0  502    0  0.00000000000E+00 -0.00000000000E+00 -0.38299723505E+04  0.38299723505E+04  0.00000000000E+00 0.  1.
          6    1    1    2  502    0 -0.82996891779E+02  0.30453513914E+03 -0.30560226628E+04  0.30771469985E+04  0.17300000000E+03 0.  1.
         -6    1    1    2    0  501  0.82996891779E+02 -0.30453513914E+03 -0.72095850058E+03  0.80581653903E+03  0.17300000000E+03 0. -1.
</event>
<event>
 4    1  0.1116913E+000  0.1000000E+03  0.7546771E-02  0.1280296E+00
         -2   -1    0    0    0  501 -0.00000000000E+00  0.00000000000E+00  0.14663370335E+02  0.14663370335E+02  0.00000000000E+00 0. -1.
          2   -1    0    0  502    0  0.00000000000E+00 -0.00000000000E+00 -0.24652319190E+04  0.24652319190E+04  0.00000000000E+00 0.  1.
          6    1    1    2  502    0 -0.32026735400E+02 -0.86978784199E+01 -0.16918555912E+04  0.17010013835E+04  0.17300000000E+03 0. -1.
         -6    1    1    2    0  501  0.32026735400E+02  0.86978784199E+01 -0.75871295742E+03  0.77889390589E+03  0.17300000000E+03 0.  1.
</event>
<event>
 4    1  0.1116913E+000  0.1000000E+03  0.7546771E-02  0.1280296E+00
         -2   -1    0    0    0  501 -0.00000000000E+00  0.00000000000E+00  0.21351797594E+02  0.21351797594E+02  0.00000000000E+00 0. -1.
          2   -1    0    0  502    0  0.00000000000E+00 -0.00000000000E+00 -0.38480290047E+04  0.38480290047E+04  0.00000000000E+00 0.  1.
          6    1    1    2  502    0 -0.13194117887E+03  0.14791854990E+03 -0.11454017393E+04  0.11752287082E+04  0.17300000000E+03 0. -1.
         -6    1    1    2    0  501  0.13194117887E+03 -0.14791854990E+03 -0.26812754677E+04  0.26941520941E+04  0.17300000000E+03 0.  1.
</event>
<event>
 4    1  0.1116913E+000  0.1000000E+03  0.7546771E-02  0.1280296E+00
         -2   -1    0    0    0  501 -0.00000000000E+00  0.00000000000E+00  0.45914240476E+02  0.45914240476E+02  0.00000000000E+00 0. -1.
          2   -1    0    0  502    0  0.00000000000E+00 -0.00000000000E+00 -0.12059955262E+04  0.12059955262E+04  0.00000000000E+00 0.  1.
          6    1    1    2  502    0  0.64291047814E+02 -0.47552357745E+02 -0.94717947911E+03  0.96616382213E+03  0.17300000000E+03 0. -1.
         -6    1    1    2    0  501 -0.64291047814E+02  0.47552357745E+02 -0.21290180658E+03  0.28574594450E+03  0.17300000000E+03 0.  1.
</event>
<event>
 4    1  0.1116913E+000  0.1000000E+03  0.7546771E-02  0.1280296E+00
         -2   -1    0    0    0  501 -0.00000000000E+00  0.00000000000E+00  0.91325908832E+02  0.91325908832E+02  0.00000000000E+00 0. -1.
          2   -1    0    0  502    0  0.00000000000E+00 -0.00000000000E+00 -0.77764191147E+03  0.77764191147E+03  0.00000000000E+00 0.  1.
          6    1    1    2  502    0 -0.78866192137E+02  0.12428584134E+03 -0.11593875846E+03  0.25502478768E+03  0.17300000000E+03 0. -1.
         -6    1    1    2    0  501  0.78866192137E+02 -0.12428584134E+03 -0.57037724418E+03  0.61394303262E+03  0.17300000000E+03 0.  1.
</event>
<event>
 4    1  0.1116913E+000  0.1000000E+03  0.7546771E-02  0.1280296E+00
          2   -1    0    0  502    0  0.00000000000E+00  0.00000000000E+00  0.12688421872E+04  0.12688421872E+04  0.00000000000E+00 0.  1.
         -2   -1    0    0    0  501 -0.00000000000E+00 -0.00000000000E+00 -0.31312802070E+02  0.31312802070E+02  0.00000000000E+00 0. -1.
          6    1    1    2  502    0  0.15528471911E+02 -0.20555516623E+02  0.93053449894E+03  0.94683003565E+03  0.17300000000E+03 0.  1.
         -6    1    1    2    0  501 -0.15528471911E+02  0.20555516623E+02  0.30699488624E+03  0.35332495366E+03  0.17300000000E+03 0. -1.
</event>
<event>
 4    1  0.1116913E+000  0.1000000E+03  0.7546771E-02  0.1280296E+00
         -2   -1    0    0    0  501 -0.00000000000E+00  0.00000000000E+00  0.31366369688E+02  0.31366369688E+02  0.00000000000E+00 0. -1.
          2   -1    0    0  502    0  0.00000000000E+00 -0.00000000000E+00 -0.15341914864E+04  0.15341914864E+04  0.00000000000E+00 0.  1.
          6    1    1    2  502    0 -0.30748314070E+02 -0.12781301784E+03 -0.85913832123E+03  0.88618806207E+03  0.17300000000E+03 0.  1.
         -6    1    1    2    0  501  0.30748314070E+02  0.12781301784E+03 -0.64368679546E+03  0.67936979400E+03  0.17300000000E+03 0. -1.
</event>
<event>
 4    1  0.1116913E+000  0.1000000E+03  0.7546771E-02  0.1280296E+00
         -2   -1    0    0    0  501 -0.00000000000E+00  0.00000000000E+00  0.12692245373E+03  0.12692245373E+03  0.00000000000E+00 0. -1.
          2   -1    0    0  502    0  0.00000000000E+00 -0.00000000000E+00 -0.37139328543E+03  0.37139328543E+03  0.00000000000E+00 0.  1.
          6    1    1    2  502    0  0.84106803491E+02 -0.81168988674E+02 -0.53890538501E+02  0.21562826637E+03  0.17300000000E+03 0.  1.
         -6    1    1    2    0  501 -0.84106803491E+02  0.81168988674E+02 -0.19058029320E+03  0.28268747279E+03  0.17300000000E+03 0. -1.
</event>
<event>
 4    1  0.1116913E+000  0.1000000E+03  0.7546771E-02  0.1280296E+00
         -2   -1    0    0    0  501 -0.00000000000E+00  0.00000000000E+00  0.13249588449E+03  0.13249588449E+03  0.00000000000E+00 0. -1.
          2   -1    0    0  502    0  0.00000000000E+00 -0.00000000000E+00 -0.24239672611E+03  0.24239672611E+03  0.00000000000E+00 0.  1.
          6    1    1    2  502    0 -0.28612573051E+02 -0.17897667921E+02 -0.88819979039E+02  0.19737526322E+03  0.17300000000E+03 0.  1.
         -6    1    1    2    0  501  0.28612573051E+02  0.17897667921E+02 -0.21080862588E+02  0.17751734738E+03  0.17300000000E+03 0. -1.
</event>
<event>
 4    1  0.1116913E+000  0.1000000E+03  0.7546771E-02  0.1280296E+00
          1   -1    0    0  502    0  0.00000000000E+00  0.00000000000E+00  0.19520815687E+04  0.19520815687E+04  0.00000000000E+00 0.  1.
         -1   -1    0    0    0  501 -0.00000000000E+00 -0.00000000000E+00 -0.42467938106E+02  0.42467938106E+02  0.00000000000E+00 0. -1.
          6    1    1    2  502    0 -0.15477321867E+03 -0.80607096406E+02  0.43503126906E+03  0.49963332381E+03  0.17300000000E+03 0. -1.
         -6    1    1    2    0  501  0.15477321867E+03  0.80607096406E+02  0.14745823615E+04  0.14949161830E+04  0.17300000000E+03 0.  1.
</event>
<event>
 4    1  0.1116913E+000  0.1000000E+03  0.7546771E-02  0.1280296E+00
         -2   -1    0    0    0  501 -0.00000000000E+00  0.00000000000E+00  0.18523163819E+03  0.18523163819E+03  0.00000000000E+00 0.  1.
          2   -1    0    0  502    0  0.00000000000E+00 -0.00000000000E+00 -0.63744624518E+03  0.63744624518E+03  0.00000000000E+00 0. -1.
          6    1    1    2  502    0  0.43229122335E+02 -0.26213181300E+03 -0.38475607767E+03  0.49854596950E+03  0.17300000000E+03 0. -1.
         -6    1    1    2    0  501 -0.43229122335E+02  0.26213181300E+03 -0.67458529321E+02  0.32413191386E+03  0.17300000000E+03 0.  1.
</event>
<event>
 4    1  0.1116913E+000  0.1000000E+03  0.7546771E-02  0.1280296E+00
         -4   -1    0    0    0  501 -0.00000000000E+00  0.00000000000E+00  0.15031026796E+02  0.15031026796E+02  0.00000000000E+00 0.  1.
          4   -1    0    0  502    0  0.00000000000E+00 -0.00000000000E+00 -0.23988042038E+04  0.23988042038E+04  0.00000000000E+00 0. -1.
          6    1    1    2  502    0 -0.17458403133E+02  0.33132740170E+01 -0.16764360515E+04  0.16854324692E+04  0.17300000000E+03 0. -1.
         -6    1    1    2    0  501  0.17458403133E+02 -0.33132740170E+01 -0.70733712554E+03  0.72840276138E+03  0.17300000000E+03 0.  1.
</event>
<event>
 4    1  0.1116913E+000  0.1000000E+03  0.7546771E-02  0.1280296E+00
          2   -1    0    0  502    0  0.00000000000E+00  0.00000000000E+00  0.13079658902E+04  0.13079658902E+04  0.00000000000E+00 0.  1.
         -2   -1    0    0    0  501 -0.00000000000E+00 -0.00000000000E+00 -0.37448693258E+02  0.37448693258E+02  0.00000000000E+00 0. -1.
          6    1    1    2  502    0  0.50619038649E+02 -0.10143211500E+03  0.87462892083E+03  0.89875219620E+03  0.17300000000E+03 0. -1.
         -6    1    1    2    0  501 -0.50619038649E+02  0.10143211500E+03  0.39588827612E+03  0.44666238726E+03  0.17300000000E+03 0.  1.
</event>
<event>
 4    1  0.1116913E+000  0.1000000E+03  0.7546771E-02  0.1280296E+00
          1   -1    0    0  502    0  0.00000000000E+00  0.00000000000E+00  0.38733447190E+03  0.38733447190E+03  0.00000000000E+00 0.  1.
         -1   -1    0    0    0  501 -0.00000000000E+00 -0.00000000000E+00 -0.23307582580E+03  0.23307582580E+03  0.00000000000E+00 0. -1.
          6    1    1    2  502    0 -0.20031081331E+03 -0.97954127869E+02 -0.29314695853E+02  0.28373893721E+03  0.17300000000E+03 0. -1.
         -6    1    1    2    0  501  0.20031081331E+03  0.97954127869E+02  0.18357334195E+03  0.33667136048E+03  0.17300000000E+03 0.  1.
</event>
<event>
 4    1  0.1116913E+000  0.1000000E+03  0.7546771E-02  0.1280296E+00
          1   -1    0    0  502    0  0.00000000000E+00  0.00000000000E+00  0.65716145841E+02  0.65716145841E+02  0.00000000000E+00 0.  1.
         -1   -1    0    0    0  501 -0.00000000000E+00 -0.00000000000E+00 -0.12789833513E+04  0.12789833513E+04  0.00000000000E+00 0. -1.
          6    1    1    2  502    0 -0.17273911254E+03 -0.15510985798E+03 -0.57200245246E+03  0.64110348202E+03  0.17300000000E+03 0. -1.
         -6    1    1    2    0  501  0.17273911254E+03  0.15510985798E+03 -0.64126475295E+03  0.70359601507E+03  0.17300000000E+03 0.  1.
</event>
<event>
 4    1  0.1116913E+000  0.1000000E+03  0.7546771E-02  0.1280296E+00
          2   -1    0    0  502    0  0.00000000000E+00  0.00000000000E+00  0.16456607107E+04  0.16456607107E+04  0.00000000000E+00 0.  1.
         -2   -1    0    0    0  501 -0.00000000000E+00 -0.00000000000E+00 -0.35464652634E+02  0.35464652634E+02  0.00000000000E+00 0. -1.
          6    1    1    2  502    0  0.36479049337E+02 -0.15109431094E+02  0.13754914050E+04  0.13868902700E+04  0.17300000000E+03 0. -1.
         -6    1    1    2    0  501 -0.36479049337E+02  0.15109431094E+02  0.23470465310E+03  0.29423509331E+03  0.17300000000E+03 0.  1.
</event>
<event>
 4    1  0.1116913E+000  0.1000000E+03  0.7546771E-02  0.1280296E+00
         -2   -1    0    0    0  501 -0.00000000000E+00  0.00000000000E+00  0.16926642598E+02  0.16926642598E+02  0.00000000000E+00 0. -1.
          2   -1    0    0  502    0  0.00000000000E+00 -0.00000000000E+00 -0.23386249885E+04  0.23386249885E+04  0.00000000000E+00 0.  1.
          6    1    1    2  502    0  0.19012790532E+02 -0.50199414537E+02 -0.67361379144E+03  0.69754283556E+03  0.17300000000E+03 0.  1.
         -6    1    1    2    0  501 -0.19012790532E+02  0.50199414537E+02 -0.16480845545E+04  0.16580087956E+04  0.17300000000E+03 0. -1.
</event>
<event>
 4    1  0.1116913E+000  0.1000000E+03  0.7546771E-02  0.1280296E+00
         -2   -1    0    0    0  501 -0.00000000000E+00  0.00000000000E+00  0.45940013339E+03  0.45940013339E+03  0.00000000000E+00 0. -1.
          2   -1    0    0  502    0  0.00000000000E+00 -0.00000000000E+00 -0.32348521671E+03  0.32348521671E+03  0.00000000000E+00 0.  1.
          6    1    1    2  502    0  0.20168999717E+03 -0.19538845735E+03 -0.13468076227E+03  0.35626312179E+03  0.17300000000E+03 0.  1.
         -6    1    1    2    0  501 -0.20168999717E+03  0.19538845735E+03  0.27059567894E+03  0.42662222831E+03  0.17300000000E+03 0. -1.
</event>
<event>
 4    1  0.1116913E+000  0.1000000E+03  0.7546771E-02  0.1280296E+00
          2   -1    0    0  502    0  0.00000000000E+00  0.00000000000E+00  0.35260632058E+04  0.35260632058E+04  0.00000000000E+00 0.  1.
         -2   -1    0    0    0  501 -0.00000000000E+00 -0.00000000000E+00 -0.11540186500E+02  0.11540186500E+02  0.00000000000E+00 0. -1.
          6    1    1    2  502    0 -0.79881816465E+02 -0.25534213588E+02  0.22927410477E+04  0.23007876070E+04  0.17300000000E+03 0.  1.
         -6    1    1    2    0  501  0.79881816465E+02  0.25534213588E+02  0.12217819716E+04  0.12368157853E+04  0.17300000000E+03 0. -1.
</event>
<event>
 4    1  0.1116913E+000  0.1000000E+03  0.7546771E-02  0.1280296E+00
          2   -1    0    0  502    0  0.00000000000E+00  0.00000000000E+00  0.63443800309E+03  0.63443800309E+03  0.00000000000E+00 0. -1.
         -2   -1    0    0    0  501 -0.00000000000E+00 -0.00000000000E+00 -0.97075083117E+02  0.97075083117E+02  0.00000000000E+00 0.  1.
          6    1    1    2  502    0  0.12876603368E+03 -0.12255149884E+03  0.25730720138E+03  0.35740111525E+03  0.17300000000E+03 0. -1.
         -6    1    1    2    0  501 -0.12876603368E+03  0.12255149884E+03  0.28005571859E+03  0.37411197096E+03  0.17300000000E+03 0.  1.
</event>
<event>
 4    1  0.1116913E+000  0.1000000E+03  0.7546771E-02  0.1280296E+00
          2   -1    0    0  502    0  0.00000000000E+00  0.00000000000E+00  0.91423691888E+03  0.91423691888E+03  0.00000000000E+00 0. -1.
         -2   -1    0    0    0  501 -0.00000000000E+00 -0.00000000000E+00 -0.41914112288E+02  0.41914112288E+02  0.00000000000E+00 0.  1.
          6    1    1    2  502    0 -0.49810782774E+01 -0.17886952012E+02  0.65522399552E+03  0.67793232590E+03  0.17300000000E+03 0. -1.
         -6    1    1    2    0  501  0.49810782774E+01  0.17886952012E+02  0.21709881107E+03  0.27821870527E+03  0.17300000000E+03 0.  1.
</event>
<event>
 4    1  0.1116913E+000  0.1000000E+03  0.7546771E-02  0.1280296E+00
          1   -1    0    0  502    0  0.00000000000E+00  0.00000000000E+00  0.19245600750E+04  0.19245600750E+04  0.00000000000E+00 0. -1.
         -1   -1    0    0    0  501 -0.00000000000E+00 -0.00000000000E+00 -0.30675255909E+02  0.30675255909E+02  0.00000000000E+00 0.  1.
          6    1    1    2  502    0 -0.15020422474E+03 -0.64395384265E+01  0.12714458997E+04  0.12919390282E+04  0.17300000000E+03 0. -1.
         -6    1    1    2    0  501  0.15020422474E+03  0.64395384265E+01  0.62243891942E+03  0.66329630271E+03  0.17300000000E+03 0.  1.
</event>
<event>
 4    1  0.1116913E+000  0.1000000E+03  0.7546771E-02  0.1280296E+00
         -2   -1    0    0    0  501 -0.00000000000E+00  0.00000000000E+00  0.32162411333E+03  0.32162411333E+03  0.00000000000E+00 0.  1.
          2   -1    0    0  502    0  0.00000000000E+00 -0.00000000000E+00 -0.63323424693E+03  0.63323424693E+03  0.00000000000E+00 0. -1.
          6    1    1    2  502    0  0.36418985168E+03  0.17619490281E+03 -0.49719929851E+02  0.44280917252E+03  0.17300000000E+03 0. -1.
         -6    1    1    2    0  501 -0.36418985168E+03 -0.17619490281E+03 -0.26189020375E+03  0.51204918774E+03  0.17300000000E+03 0.  1.
</event>
<event>
 4    1  0.1116913E+000  0.1000000E+03  0.7546771E-02  0.1280296E+00
          1   -1    0    0  502    0  0.00000000000E+00  0.00000000000E+00  0.24000902438E+03  0.24000902438E+03  0.00000000000E+00 0. -1.
         -1   -1    0    0    0  501 -0.00000000000E+00 -0.00000000000E+00 -0.21665239765E+03  0.21665239765E+03  0.00000000000E+00 0.  1.
          6    1    1    2  502    0 -0.37294261981E+02 -0.10114188718E+03  0.11403256646E+03  0.23356577132E+03  0.17300000000E+03 0.  1.
         -6    1    1    2    0  501  0.37294261981E+02  0.10114188718E+03 -0.90675939727E+02  0.22309565071E+03  0.17300000000E+03 0. -1.
</event>
<event>
 4    1  0.1116913E+000  0.1000000E+03  0.7546771E-02  0.1280296E+00
         -2   -1    0    0    0  501 -0.00000000000E+00  0.00000000000E+00  0.22785954472E+03  0.22785954472E+03  0.00000000000E+00 0. -1.
          2   -1    0    0  502    0  0.00000000000E+00 -0.00000000000E+00 -0.92243050973E+03  0.92243050973E+03  0.00000000000E+00 0.  1.
          6    1    1    2  502    0  0.14481858960E+03  0.33308510405E+03 -0.71469800806E+02  0.40860132508E+03  0.17300000000E+03 0.  1.
         -6    1    1    2    0  501 -0.14481858960E+03 -0.33308510405E+03 -0.62310116421E+03  0.74168872937E+03  0.17300000000E+03 0.  1.
</event>
<event>
 4    1  0.1116913E+000  0.1000000E+03  0.7546771E-02  0.1280296E+00
         -2   -1    0    0    0  501 -0.00000000000E+00  0.00000000000E+00  0.17495545385E+03  0.17495545385E+03  0.00000000000E+00 0. -1.
          2   -1    0    0  502    0  0.00000000000E+00 -0.00000000000E+00 -0.39146567690E+03  0.39146567690E+03  0.00000000000E+00 0.  1.
          6    1    1    2  502    0 -0.13160392659E+03  0.14086806278E+03 -0.67812169209E+02  0.26775155443E+03  0.17300000000E+03 0.  1.
         -6    1    1    2    0  501  0.13160392659E+03 -0.14086806278E+03 -0.14869805385E+03  0.29866957633E+03  0.17300000000E+03 0.  1.
</event>
<event>
 4    1  0.1116913E+000  0.1000000E+03  0.7546771E-02  0.1280296E+00
          3   -1    0    0  502    0  0.00000000000E+00  0.00000000000E+00  0.23954491777E+03  0.23954491777E+03  0.00000000000E+00 0. -1.
         -3   -1    0    0    0  501 -0.00000000000E+00 -0.00000000000E+00 -0.30072696830E+03  0.30072696830E+03  0.00000000000E+00 0.  1.
          6    1    1    2  502    0  0.51663514522E+02  0.31202041462E+02  0.16680610169E+03  0.24778208508E+03  0.17300000000E+03 0.  1.
         -6    1    1    2    0  501 -0.51663514522E+02 -0.31202041462E+02 -0.22798815223E+03  0.29248980099E+03  0.17300000000E+03 0. -1.
</event>
<event>
 4    1  0.1116913E+000  0.1000000E+03  0.7546771E-02  0.1280296E+00
          2   -1    0    0  502    0  0.00000000000E+00  0.00000000000E+00  0.24456234953E+03  0.24456234953E+03  0.00000000000E+00 0. -1.
         -2   -1    0    0    0  501 -0.00000000000E+00 -0.00000000000E+00 -0.17533768460E+03  0.17533768460E+03  0.00000000000E+00 0.  1.
          6    1    1    2  502    0 -0.90847213040E+01 -0.74893528989E+01 -0.80154190752E+02  0.19102962300E+03  0.17300000000E+03 0.  1.
         -6    1    1    2    0  501  0.90847213040E+01  0.74893528989E+01  0.14937885568E+03  0.22887041113E+03  0.17300000000E+03 0. -1.
</event>
<event>
 4    1  0.1116913E+000  0.1000000E+03  0.7546771E-02  0.1280296E+00
          1   -1    0    0  502    0  0.00000000000E+00  0.00000000000E+00  0.77680161700E+03  0.77680161700E+03  0.00000000000E+00 0.  1.
         -1   -1    0    0    0  501 -0.00000000000E+00 -0.00000000000E+00 -0.43291839181E+02  0.43291839181E+02  0.00000000000E+00 0. -1.
          6    1    1    2  502    0  0.14689233154E+02 -0.11575708325E+02  0.49618150831E+03  0.52580876731E+03  0.17300000000E+03 0. -1.
         -6    1    1    2    0  501 -0.14689233154E+02  0.11575708325E+02  0.23732826951E+03  0.29428468887E+03  0.17300000000E+03 0.  1.
</event>
<event>
 4    1  0.1116913E+000  0.1000000E+03  0.7546771E-02  0.1280296E+00
         -2   -1    0    0    0  501 -0.00000000000E+00  0.00000000000E+00  0.28338547297E+03  0.28338547297E+03  0.00000000000E+00 0.  1.
          2   -1    0    0  502    0  0.00000000000E+00 -0.00000000000E+00 -0.21002218007E+03  0.21002218007E+03  0.00000000000E+00 0. -1.
          6    1    1    2  502    0  0.84239975299E+01 -0.94219365426E+02 -0.10859947141E+03  0.22510241613E+03  0.17300000000E+03 0. -1.
         -6    1    1    2    0  501 -0.84239975299E+01  0.94219365426E+02  0.18196276432E+03  0.26830523691E+03  0.17300000000E+03 0.  1.
</event>
<event>
 4    1  0.1116913E+000  0.1000000E+03  0.7546771E-02  0.1280296E+00
          2   -1    0    0  502    0  0.00000000000E+00  0.00000000000E+00  0.44388666377E+03  0.44388666377E+03  0.00000000000E+00 0. -1.
         -2   -1    0    0    0  501 -0.00000000000E+00 -0.00000000000E+00 -0.91631331749E+02  0.91631331749E+02  0.00000000000E+00 0.  1.
          6    1    1    2  502    0 -0.67989680226E+02 -0.17673248646E+01  0.27998413813E+03  0.33607415500E+03  0.17300000000E+03 0. -1.
         -6    1    1    2    0  501  0.67989680226E+02  0.17673248646E+01  0.72271193891E+02  0.19944384052E+03  0.17300000000E+03 0.  1.
</event>
<event>
 4    1  0.1116913E+000  0.1000000E+03  0.7546771E-02  0.1280296E+00
          2   -1    0    0  502    0  0.00000000000E+00  0.00000000000E+00  0.41624514247E+03  0.41624514247E+03  0.00000000000E+00 0. -1.
         -2   -1    0    0    0  501 -0.00000000000E+00 -0.00000000000E+00 -0.81960807112E+02  0.81960807112E+02  0.00000000000E+00 0.  1.
          6    1    1    2  502    0 -0.63626225264E+02 -0.10384401301E+02  0.15967500821E+03  0.24409268850E+03  0.17300000000E+03 0. -1.
         -6    1    1    2    0  501  0.63626225264E+02  0.10384401301E+02  0.17460932715E+03  0.25411326109E+03  0.17300000000E+03 0.  1.
</event>
<event>
 4    1  0.1116913E+000  0.1000000E+03  0.7546771E-02  0.1280296E+00
          2   -1    0    0  502    0  0.00000000000E+00  0.00000000000E+00  0.17805509717E+04  0.17805509717E+04  0.00000000000E+00 0.  1.
         -2   -1    0    0    0  501 -0.00000000000E+00 -0.00000000000E+00 -0.45131181665E+02  0.45131181665E+02  0.00000000000E+00 0. -1.
          6    1    1    2  502    0 -0.36199504587E+02  0.18689236513E+03  0.48411394415E+03  0.54821024361E+03  0.17300000000E+03 0.  1.
         -6    1    1    2    0  501  0.36199504587E+02 -0.18689236513E+03  0.12513058459E+04  0.12774719098E+04  0.17300000000E+03 0.  1.
</event>
<event>
 4    1  0.1116913E+000  0.1000000E+03  0.7546771E-02  0.1280296E+00
          2   -1    0    0  502    0  0.00000000000E+00  0.00000000000E+00  0.20886774755E+04  0.20886774755E+04  0.00000000000E+00 0.  1.
         -2   -1    0    0    0  501 -0.00000000000E+00 -0.00000000000E+00 -0.86358174871E+02  0.86358174871E+02  0.00000000000E+00 0. -1.
          6    1    1    2  502    0  0.27632196299E+03  0.18826199729E+03  0.49775419826E+03  0.62408705221E+03  0.17300000000E+03 0.  1.
         -6    1    1    2    0  501 -0.27632196299E+03 -0.18826199729E+03  0.15045651023E+04  0.15509485981E+04  0.17300000000E+03 0. -1.
</event>
<event>
 4    1  0.1116913E+000  0.1000000E+03  0.7546771E-02  0.1280296E+00
          2   -1    0    0  502    0  0.00000000000E+00  0.00000000000E+00  0.17904688672E+04  0.17904688672E+04  0.00000000000E+00 0.  1.
         -2   -1    0    0    0  501 -0.00000000000E+00 -0.00000000000E+00 -0.51503692127E+02  0.51503692127E+02  0.00000000000E+00 0. -1.
          6    1    1    2  502    0  0.23594473365E+03  0.50381783195E+02  0.67579505312E+03  0.73813020209E+03  0.17300000000E+03 0.  1.
         -6    1    1    2    0  501 -0.23594473365E+03 -0.50381783195E+02  0.10631701219E+04  0.11038423572E+04  0.17300000000E+03 0. -1.
</event>
<event>
 4    1  0.1116913E+000  0.1000000E+03  0.7546771E-02  0.1280296E+00
          1   -1    0    0  502    0  0.00000000000E+00  0.00000000000E+00  0.86002969785E+03  0.86002969785E+03  0.00000000000E+00 0. -1.
         -1   -1    0    0    0  501 -0.00000000000E+00 -0.00000000000E+00 -0.66373852568E+02  0.66373852568E+02  0.00000000000E+00 0.  1.
          6    1    1    2  502    0  0.66532792258E+02 -0.14824233746E+03  0.44999556161E+03  0.50875083148E+03  0.17300000000E+03 0. -1.
         -6    1    1    2    0  501 -0.66532792258E+02  0.14824233746E+03  0.34366028367E+03  0.41765271893E+03  0.17300000000E+03 0.  1.
</event>
<event>
 4    1  0.1116913E+000  0.1000000E+03  0.7546771E-02  0.1280296E+00
         -1   -1    0    0    0  501 -0.00000000000E+00  0.00000000000E+00  0.33232623197E+02  0.33232623197E+02  0.00000000000E+00 0. -1.
          1   -1    0    0  502    0  0.00000000000E+00 -0.00000000000E+00 -0.18037546874E+04  0.18037546874E+04  0.00000000000E+00 0.  1.
          6    1    1    2  502    0 -0.12310270907E+03  0.90585621274E+02 -0.57923259350E+03  0.62353783296E+03  0.17300000000E+03 0. -1.
         -6    1    1    2    0  501  0.12310270907E+03 -0.90585621274E+02 -0.11912894707E+04  0.12134494776E+04  0.17300000000E+03 0.  1.
</event>
<event>
 4    1  0.1116913E+000  0.1000000E+03  0.7546771E-02  0.1280296E+00
          2   -1    0    0  502    0  0.00000000000E+00  0.00000000000E+00  0.23321647246E+04  0.23321647246E+04  0.00000000000E+00 0. -1.
         -2   -1    0    0    0  501 -0.00000000000E+00 -0.00000000000E+00 -0.17350190590E+02  0.17350190590E+02  0.00000000000E+00 0.  1.
          6    1    1    2  502    0 -0.68461903207E+02  0.12187165732E+02  0.71653412617E+03  0.74039564637E+03  0.17300000000E+03 0. -1.
         -6    1    1    2    0  501  0.68461903207E+02 -0.12187165732E+02  0.15982804078E+04  0.16091192688E+04  0.17300000000E+03 0.  1.
</event>
<event>
 4    1  0.1116913E+000  0.1000000E+03  0.7546771E-02  0.1280296E+00
          2   -1    0    0  502    0  0.00000000000E+00  0.00000000000E+00  0.10428287670E+04  0.10428287670E+04  0.00000000000E+00 0. -1.
         -2   -1    0    0    0  501 -0.00000000000E+00 -0.00000000000E+00 -0.52035066176E+02  0.52035066176E+02  0.00000000000E+00 0.  1.
          6    1    1    2  502    0  0.10667824170E+03  0.10932205205E+03  0.56982699831E+03  0.61478725289E+03  0.17300000000E+03 0. -1.
         -6    1    1    2    0  501 -0.10667824170E+03 -0.10932205205E+03  0.42096670255E+03  0.48007658032E+03  0.17300000000E+03 0.  1.
</event>
<event>
 4    1  0.1116913E+000  0.1000000E+03  0.7546771E-02  0.1280296E+00
          1   -1    0    0  502    0  0.00000000000E+00  0.00000000000E+00  0.89150822406E+03  0.89150822406E+03  0.00000000000E+00 0. -1.
         -1   -1    0    0    0  501 -0.00000000000E+00 -0.00000000000E+00 -0.54025928556E+03  0.54025928556E+03  0.00000000000E+00 0.  1.
          6    1    1    2  502    0  0.55538637124E+03  0.30854533528E+03 -0.50517523818E+02  0.66040537967E+03  0.17300000000E+03 0. -1.
         -6    1    1    2    0  501 -0.55538637124E+03 -0.30854533528E+03  0.40176646232E+03  0.77136212995E+03  0.17300000000E+03 0.  1.
</event>
<event>
 4    1  0.1116913E+000  0.1000000E+03  0.7546771E-02  0.1280296E+00
          1   -1    0    0  502    0  0.00000000000E+00  0.00000000000E+00  0.74156213714E+03  0.74156213714E+03  0.00000000000E+00 0. -1.
         -1   -1    0    0    0  501 -0.00000000000E+00 -0.00000000000E+00 -0.14456441215E+03  0.14456441215E+03  0.00000000000E+00 0.  1.
          6    1    1    2  502    0 -0.10327625451E+02  0.27679398858E+03  0.26667935876E+03  0.42162596261E+03  0.17300000000E+03 0. -1.
         -6    1    1    2    0  501  0.10327625451E+02 -0.27679398858E+03  0.33031836622E+03  0.46450058668E+03  0.17300000000E+03 0.  1.
</event>
<event>
 4    1  0.1116913E+000  0.1000000E+03  0.7546771E-02  0.1280296E+00
         -2   -1    0    0    0  501 -0.00000000000E+00  0.00000000000E+00  0.18469739828E+03  0.18469739828E+03  0.00000000000E+00 0. -1.
          2   -1    0    0  502    0  0.00000000000E+00 -0.00000000000E+00 -0.93863577548E+03  0.93863577548E+03  0.00000000000E+00 0.  1.
          6    1    1    2  502    0 -0.19046818701E+03  0.58119489014E+02 -0.81153295382E+03  0.85332920986E+03  0.17300000000E+03 0. -1.
         -6    1    1    2    0  501  0.19046818701E+03 -0.58119489014E+02  0.57594576620E+02  0.27000396390E+03  0.17300000000E+03 0. -1.
</event>
<event>
 4    1  0.1116913E+000  0.1000000E+03  0.7546771E-02  0.1280296E+00
         -1   -1    0    0    0  501 -0.00000000000E+00  0.00000000000E+00  0.11404012969E+03  0.11404012969E+03  0.00000000000E+00 0. -1.
          1   -1    0    0  502    0  0.00000000000E+00 -0.00000000000E+00 -0.13276311017E+04  0.13276311017E+04  0.00000000000E+00 0.  1.
          6    1    1    2  502    0 -0.14358961830E+03 -0.21868034600E+03 -0.10334246895E+04  0.10799697501E+04  0.17300000000E+03 0. -1.
         -6    1    1    2    0  501  0.14358961830E+03  0.21868034600E+03 -0.18016628246E+03  0.36170148126E+03  0.17300000000E+03 0. -1.
</event>
<event>
 4    1  0.1116913E+000  0.1000000E+03  0.7546771E-02  0.1280296E+00
         -2   -1    0    0    0  501 -0.00000000000E+00  0.00000000000E+00  0.24687485549E+02  0.24687485549E+02  0.00000000000E+00 0.  1.
          2   -1    0    0  502    0  0.00000000000E+00 -0.00000000000E+00 -0.14211951167E+04  0.14211951167E+04  0.00000000000E+00 0. -1.
          6    1    1    2  502    0  0.31818184693E+02  0.59644925514E+01 -0.45085749349E+03  0.48399323496E+03  0.17300000000E+03 0. -1.
         -6    1    1    2    0  501 -0.31818184693E+02 -0.59644925514E+01 -0.94565013764E+03  0.96188936727E+03  0.17300000000E+03 0. -1.
</event>
<event>
 4    1  0.1116913E+000  0.1000000E+03  0.7546771E-02  0.1280296E+00
          1   -1    0    0  502    0  0.00000000000E+00  0.00000000000E+00  0.56312675194E+03  0.56312675194E+03  0.00000000000E+00 0.  1.
         -1   -1    0    0    0  501 -0.00000000000E+00 -0.00000000000E+00 -0.18124210770E+03  0.18124210770E+03  0.00000000000E+00 0. -1.
          6    1    1    2  502    0  0.11711385419E+03 -0.17407594998E+03 -0.43998742751E+01  0.27196773724E+03  0.17300000000E+03 0.  1.
         -6    1    1    2    0  501 -0.11711385419E+03  0.17407594998E+03  0.38628451851E+03  0.47240112240E+03  0.17300000000E+03 0. -1.
</event>
<event>
 4    1  0.1116913E+000  0.1000000E+03  0.7546771E-02  0.1280296E+00
          2   -1    0    0  502    0  0.00000000000E+00  0.00000000000E+00  0.30109482434E+03  0.30109482434E+03  0.00000000000E+00 0.  1.
         -2   -1    0    0    0  501 -0.00000000000E+00 -0.00000000000E+00 -0.10448794939E+03  0.10448794939E+03  0.00000000000E+00 0. -1.
          6    1    1    2  502    0  0.16436214360E+02  0.25571933963E+02  0.12648805651E+03  0.21645392440E+03  0.17300000000E+03 0.  1.
         -6    1    1    2    0  501 -0.16436214360E+02 -0.25571933963E+02  0.70118818432E+02  0.18912884933E+03  0.17300000000E+03 0. -1.
</event>
<event>
 4    1  0.1116913E+000  0.1000000E+03  0.7546771E-02  0.1280296E+00
          1   -1    0    0  502    0  0.00000000000E+00  0.00000000000E+00  0.48342069415E+02  0.48342069415E+02  0.00000000000E+00 0.  1.
         -1   -1    0    0    0  501 -0.00000000000E+00 -0.00000000000E+00 -0.11643285804E+04  0.11643285804E+04  0.00000000000E+00 0. -1.
          6    1    1    2  502    0 -0.30839533206E+02  0.98625199641E+02 -0.87800969837E+03  0.90083740888E+03  0.17300000000E+03 0.  1.
         -6    1    1    2    0  501  0.30839533206E+02 -0.98625199641E+02 -0.23797681265E+03  0.31183324097E+03  0.17300000000E+03 0. -1.
</event>
<event>
 4    1  0.1116913E+000  0.1000000E+03  0.7546771E-02  0.1280296E+00
         -1   -1    0    0    0  501 -0.00000000000E+00  0.00000000000E+00  0.44103287103E+03  0.44103287103E+03  0.00000000000E+00 0.  1.
          1   -1    0    0  502    0  0.00000000000E+00 -0.00000000000E+00 -0.25280582440E+03  0.25280582440E+03  0.00000000000E+00 0. -1.
          6    1    1    2  502    0  0.24289093568E+03 -0.11513909863E+03  0.19438090884E+03  0.37412024322E+03  0.17300000000E+03 0.  1.
         -6    1    1    2    0  501 -0.24289093568E+03  0.11513909863E+03 -0.61538621994E+01  0.31971845221E+03  0.17300000000E+03 0. -1.
</event>
<event>
 4    1  0.1116913E+000  0.1000000E+03  0.7546771E-02  0.1280296E+00
         -2   -1    0    0    0  501 -0.00000000000E+00  0.00000000000E+00  0.30045862189E+03  0.30045862189E+03  0.00000000000E+00 0.  1.
          2   -1    0    0  502    0  0.00000000000E+00 -0.00000000000E+00 -0.23344412238E+03  0.23344412238E+03  0.00000000000E+00 0. -1.
          6    1    1    2  502    0 -0.12341254391E+03 -0.10315311995E+03  0.15421192558E+03  0.28210200308E+03  0.17300000000E+03 0.  1.
         -6    1    1    2    0  501  0.12341254391E+03  0.10315311995E+03 -0.87197426065E+02  0.25180074119E+03  0.17300000000E+03 0. -1.
</event>
<event>
 4    1  0.1116913E+000  0.1000000E+03  0.7546771E-02  0.1280296E+00
          2   -1    0    0  502    0  0.00000000000E+00  0.00000000000E+00  0.16188389080E+04  0.16188389080E+04  0.00000000000E+00 0.  1.
         -2   -1    0    0    0  501 -0.00000000000E+00 -0.00000000000E+00 -0.33583754206E+02  0.33583754206E+02  0.00000000000E+00 0. -1.
          6    1    1    2  502    0  0.13631410543E+03  0.50237455708E+02  0.58807730640E+03  0.62997559921E+03  0.17300000000E+03 0.  1.
         -6    1    1    2    0  501 -0.13631410543E+03 -0.50237455708E+02  0.99717784739E+03  0.10224470630E+04  0.17300000000E+03 0. -1.
</event>
<event>
 4    1  0.1116913E+000  0.1000000E+03  0.7546771E-02  0.1280296E+00
         -2   -1    0    0    0  501 -0.00000000000E+00  0.00000000000E+00  0.15045323712E+02  0.15045323712E+02  0.00000000000E+00 0. -1.
          2   -1    0    0  502    0  0.00000000000E+00 -0.00000000000E+00 -0.27418260511E+04  0.27418260511E+04  0.00000000000E+00 0.  1.
          6    1    1    2  502    0 -0.86507117333E+02 -0.29376620203E+02 -0.99313926071E+03  0.10122257941E+04  0.17300000000E+03 0.  1.
         -6    1    1    2    0  501  0.86507117333E+02  0.29376620203E+02 -0.17336414667E+04  0.17446455807E+04  0.17300000000E+03 0. -1.
</event>
<event>
 4    1  0.1116913E+000  0.1000000E+03  0.7546771E-02  0.1280296E+00
         -1   -1    0    0    0  501 -0.00000000000E+00  0.00000000000E+00  0.23815490364E+03  0.23815490364E+03  0.00000000000E+00 0. -1.
          1   -1    0    0  502    0  0.00000000000E+00 -0.00000000000E+00 -0.79425595108E+03  0.79425595108E+03  0.00000000000E+00 0.  1.
          6    1    1    2  502    0  0.38818315242E+03  0.38863244272E+01 -0.16845893211E+03  0.45717466591E+03  0.17300000000E+03 0.  1.
         -6    1    1    2    0  501 -0.38818315242E+03 -0.38863244272E+01 -0.38764211533E+03  0.57523618881E+03  0.17300000000E+03 0. -1.
</event>
<event>
 4    1  0.1116913E+000  0.1000000E+03  0.7546771E-02  0.1280296E+00
         -2   -1    0    0    0  501 -0.00000000000E+00  0.00000000000E+00  0.12824336238E+03  0.12824336238E+03  0.00000000000E+00 0. -1.
          2   -1    0    0  502    0  0.00000000000E+00 -0.00000000000E+00 -0.37002344060E+03  0.37002344060E+03  0.00000000000E+00 0.  1.
          6    1    1    2  502    0 -0.51343567154E+02  0.11530175418E+03 -0.75237866657E+02  0.22698104102E+03  0.17300000000E+03 0.  1.
         -6    1    1    2    0  501  0.51343567154E+02 -0.11530175418E+03 -0.16654221156E+03  0.27128576195E+03  0.17300000000E+03 0. -1.
</event>
<event>
 4    1  0.1116913E+000  0.1000000E+03  0.7546771E-02  0.1280296E+00
         -2   -1    0    0    0  501 -0.00000000000E+00  0.00000000000E+00  0.68470829785E+02  0.68470829785E+02  0.00000000000E+00 0. -1.
          2   -1    0    0  502    0  0.00000000000E+00 -0.00000000000E+00 -0.91245367454E+03  0.91245367454E+03  0.00000000000E+00 0.  1.
          6    1    1    2  502    0  0.14349913404E+03  0.83399537332E+01 -0.20806546301E+03  0.30640135965E+03  0.17300000000E+03 0.  1.
         -6    1    1    2    0  501 -0.14349913404E+03 -0.83399537332E+01 -0.63591738175E+03  0.67452314468E+03  0.17300000000E+03 0. -1.
</event>
<event>
 4    1  0.1116913E+000  0.1000000E+03  0.7546771E-02  0.1280296E+00
         -2   -1    0    0    0  501 -0.00000000000E+00  0.00000000000E+00  0.56949331113E+03  0.56949331113E+03  0.00000000000E+00 0.  1.
          2   -1    0    0  502    0  0.00000000000E+00 -0.00000000000E+00 -0.66304599582E+02  0.66304599582E+02  0.00000000000E+00 0. -1.
          6    1    1    2  502    0  0.32867857639E+02 -0.82083082813E+02  0.24567375659E+03  0.31321322326E+03  0.17300000000E+03 0. -1.
         -6    1    1    2    0  501 -0.32867857639E+02  0.82083082813E+02  0.25751495496E+03  0.32258468745E+03  0.17300000000E+03 0. -1.
</event>
<event>
 4    1  0.1116913E+000  0.1000000E+03  0.7546771E-02  0.1280296E+00
         -2   -1    0    0    0  501 -0.00000000000E+00  0.00000000000E+00  0.29282956713E+02  0.29282956713E+02  0.00000000000E+00 0.  1.
          2   -1    0    0  502    0  0.00000000000E+00 -0.00000000000E+00 -0.11119301426E+04  0.11119301426E+04  0.00000000000E+00 0. -1.
          6    1    1    2  502    0 -0.34890249600E+01 -0.40555651931E+02 -0.64004671919E+03  0.66426330393E+03  0.17300000000E+03 0. -1.
         -6    1    1    2    0  501  0.34890249600E+01  0.40555651931E+02 -0.44260046671E+03  0.47694979540E+03  0.17300000000E+03 0. -1.
</event>
<event>
 4    1  0.1116913E+000  0.1000000E+03  0.7546771E-02  0.1280296E+00
         -2   -1    0    0    0  501 -0.00000000000E+00  0.00000000000E+00  0.26385580780E+02  0.26385580780E+02  0.00000000000E+00 0.  1.
          2   -1    0    0  502    0  0.00000000000E+00 -0.00000000000E+00 -0.22156325007E+04  0.22156325007E+04  0.00000000000E+00 0. -1.
          6    1    1    2  502    0  0.16174777829E+03 -0.28990001594E+02 -0.91333142371E+03  0.94398413838E+03  0.17300000000E+03 0. -1.
         -6    1    1    2    0  501 -0.16174777829E+03  0.28990001594E+02 -0.12759154962E+04  0.12980339431E+04  0.17300000000E+03 0. -1.
</event>
<event>
 4    1  0.1116913E+000  0.1000000E+03  0.7546771E-02  0.1280296E+00
          1   -1    0    0  502    0  0.00000000000E+00  0.00000000000E+00  0.12410229608E+03  0.12410229608E+03  0.00000000000E+00 0.  1.
         -1   -1    0    0    0  501 -0.00000000000E+00 -0.00000000000E+00 -0.55469082883E+03  0.55469082883E+03  0.00000000000E+00 0. -1.
          6    1    1    2  502    0 -0.85124437088E+02 -0.95724142224E+02 -0.40933124195E+03  0.46248280707E+03  0.17300000000E+03 0. -1.
         -6    1    1    2    0  501  0.85124437088E+02  0.95724142224E+02 -0.21257290789E+02  0.21631031784E+03  0.17300000000E+03 0.  1.
</event>
<event>
 4    1  0.1116913E+000  0.1000000E+03  0.7546771E-02  0.1280296E+00
         -2   -1    0    0    0  501 -0.00000000000E+00  0.00000000000E+00  0.38083004044E+02  0.38083004044E+02  0.00000000000E+00 0. -1.
          2   -1    0    0  502    0  0.00000000000E+00 -0.00000000000E+00 -0.79421790290E+03  0.79421790290E+03  0.00000000000E+00 0.  1.
          6    1    1    2  502    0 -0.18854803196E+01 -0.11784962406E+02 -0.34643447925E+03  0.38741229819E+03  0.17300000000E+03 0.  1.
         -6    1    1    2    0  501  0.18854803196E+01  0.11784962406E+02 -0.40970041961E+03  0.44488860876E+03  0.17300000000E+03 0. -1.
</event>
<event>
 4    1  0.1116913E+000  0.1000000E+03  0.7546771E-02  0.1280296E+00
         -1   -1    0    0    0  501 -0.00000000000E+00  0.00000000000E+00  0.21423766013E+03  0.21423766013E+03  0.00000000000E+00 0. -1.
          1   -1    0    0  502    0  0.00000000000E+00 -0.00000000000E+00 -0.97713895302E+03  0.97713895302E+03  0.00000000000E+00 0.  1.
          6    1    1    2  502    0 -0.13139742640E+03  0.16006834469E+03  0.99607079837E+02  0.28764166769E+03  0.17300000000E+03 0.  1.
         -6    1    1    2    0  501  0.13139742640E+03 -0.16006834469E+03 -0.86250837273E+03  0.90373494547E+03  0.17300000000E+03 0. -1.
</event>
<event>
 4    1  0.1116913E+000  0.1000000E+03  0.7546771E-02  0.1280296E+00
         -2   -1    0    0    0  501 -0.00000000000E+00  0.00000000000E+00  0.23059695171E+02  0.23059695171E+02  0.00000000000E+00 0. -1.
          2   -1    0    0  502    0  0.00000000000E+00 -0.00000000000E+00 -0.28010425753E+04  0.28010425753E+04  0.00000000000E+00 0.  1.
          6    1    1    2  502    0 -0.18293987737E+03  0.14356547779E+02 -0.12142567136E+04  0.12401699382E+04  0.17300000000E+03 0. -1.
         -6    1    1    2    0  501  0.18293987737E+03 -0.14356547779E+02 -0.15637261666E+04  0.15839323323E+04  0.17300000000E+03 0.  1.
</event>
<event>
 4    1  0.1116913E+000  0.1000000E+03  0.7546771E-02  0.1280296E+00
         -2   -1    0    0    0  501 -0.00000000000E+00  0.00000000000E+00  0.19520060809E+03  0.19520060809E+03  0.00000000000E+00 0. -1.
          2   -1    0    0  502    0  0.00000000000E+00 -0.00000000000E+00 -0.40696298869E+03  0.40696298869E+03  0.00000000000E+00 0.  1.
          6    1    1    2  502    0 -0.14934549099E+03  0.15048935198E+03 -0.17801114298E+03  0.32644767998E+03  0.17300000000E+03 0. -1.
         -6    1    1    2    0  501  0.14934549099E+03 -0.15048935198E+03 -0.33751237616E+02  0.27571591681E+03  0.17300000000E+03 0.  1.
</event>
<event>
 4    1  0.1116913E+000  0.1000000E+03  0.7546771E-02  0.1280296E+00
         -1   -1    0    0    0  501 -0.00000000000E+00  0.00000000000E+00  0.82249108161E+02  0.82249108161E+02  0.00000000000E+00 0. -1.
          1   -1    0    0  502    0  0.00000000000E+00 -0.00000000000E+00 -0.52012742068E+03  0.52012742068E+03  0.00000000000E+00 0.  1.
          6    1    1    2  502    0 -0.80705166362E+02  0.66780657972E+02 -0.28204499832E+03  0.34706103388E+03  0.17300000000E+03 0. -1.
         -6    1    1    2    0  501  0.80705166362E+02 -0.66780657972E+02 -0.15583331420E+03  0.25531549497E+03  0.17300000000E+03 0.  1.
</event>
<event>
 4    1  0.1116913E+000  0.1000000E+03  0.7546771E-02  0.1280296E+00
         -1   -1    0    0    0  501 -0.00000000000E+00  0.00000000000E+00  0.40445316778E+02  0.40445316778E+02  0.00000000000E+00 0. -1.
          1   -1    0    0  502    0  0.00000000000E+00 -0.00000000000E+00 -0.11041586970E+04  0.11041586970E+04  0.00000000000E+00 0.  1.
          6    1    1    2  502    0  0.66574172573E+02 -0.61902029098E+02 -0.74960856423E+03  0.77466507681E+03  0.17300000000E+03 0. -1.
         -6    1    1    2    0  501 -0.66574172573E+02  0.61902029098E+02 -0.31410481603E+03  0.36993893700E+03  0.17300000000E+03 0.  1.
</event>
<event>
 4    1  0.1116913E+000  0.1000000E+03  0.7546771E-02  0.1280296E+00
          2   -1    0    0  502    0  0.00000000000E+00  0.00000000000E+00  0.80262447852E+03  0.80262447852E+03  0.00000000000E+00 0.  1.
         -2   -1    0    0    0  501 -0.00000000000E+00 -0.00000000000E+00 -0.17051060980E+03  0.17051060980E+03  0.00000000000E+00 0. -1.
          6    1    1    2  502    0  0.15808457918E+03 -0.17704310227E+02 -0.59708657443E+02  0.24248360882E+03  0.17300000000E+03 0.  1.
         -6    1    1    2    0  501 -0.15808457918E+03  0.17704310227E+02  0.69182252617E+03  0.73065147949E+03  0.17300000000E+03 0. -1.
</event>
<event>
 4    1  0.1116913E+000  0.1000000E+03  0.7546771E-02  0.1280296E+00
          2   -1    0    0  502    0  0.00000000000E+00  0.00000000000E+00  0.12006066622E+04  0.12006066622E+04  0.00000000000E+00 0.  1.
         -2   -1    0    0    0  501 -0.00000000000E+00 -0.00000000000E+00 -0.60468397352E+02  0.60468397352E+02  0.00000000000E+00 0. -1.
          6    1    1    2  502    0  0.10275488257E+03  0.17056854897E+03  0.69861989258E+03  0.74676030297E+03  0.17300000000E+03 0.  1.
         -6    1    1    2    0  501 -0.10275488257E+03 -0.17056854897E+03  0.44151837231E+03  0.51431475662E+03  0.17300000000E+03 0. -1.
</event>
<event>
 4    1  0.1116913E+000  0.1000000E+03  0.7546771E-02  0.1280296E+00
         -1   -1    0    0    0  501 -0.00000000000E+00  0.00000000000E+00  0.11477522860E+03  0.11477522860E+03  0.00000000000E+00 0. -1.
          1   -1    0    0  502    0  0.00000000000E+00 -0.00000000000E+00 -0.80359474054E+03  0.80359474054E+03  0.00000000000E+00 0.  1.
          6    1    1    2  502    0  0.77016084964E+01  0.28265513891E+01 -0.72160613382E+03  0.74209953277E+03  0.17300000000E+03 0. -1.
         -6    1    1    2    0  501 -0.77016084964E+01 -0.28265513891E+01  0.32786621873E+02  0.17627043638E+03  0.17300000000E+03 0. -1.
</event>
<event>
 4    1  0.1116913E+000  0.1000000E+03  0.7546771E-02  0.1280296E+00
         -1   -1    0    0    0  501 -0.00000000000E+00  0.00000000000E+00  0.38649992898E+02  0.38649992898E+02  0.00000000000E+00 0.  1.
          1   -1    0    0  502    0  0.00000000000E+00 -0.00000000000E+00 -0.18274361432E+04  0.18274361432E+04  0.00000000000E+00 0. -1.
          6    1    1    2  502    0 -0.16676975884E+03  0.11344988563E+03 -0.87934778091E+03  0.91862100390E+03  0.17300000000E+03 0. -1.
         -6    1    1    2    0  501  0.16676975884E+03 -0.11344988563E+03 -0.90943836943E+03  0.94746513223E+03  0.17300000000E+03 0.  1.
</event>
<event>
 4    1  0.1116913E+000  0.1000000E+03  0.7546771E-02  0.1280296E+00
          1   -1    0    0  502    0  0.00000000000E+00  0.00000000000E+00  0.11836181929E+04  0.11836181929E+04  0.00000000000E+00 0.  1.
         -1   -1    0    0    0  501 -0.00000000000E+00 -0.00000000000E+00 -0.34567158438E+02  0.34567158438E+02  0.00000000000E+00 0. -1.
          6    1    1    2  502    0 -0.82972799902E+02 -0.50330975125E+02  0.69375037539E+03  0.72155129820E+03  0.17300000000E+03 0. -1.
         -6    1    1    2    0  501  0.82972799902E+02  0.50330975125E+02  0.45530065902E+03  0.49663405309E+03  0.17300000000E+03 0. -1.
</event>
<event>
 4    1  0.1116913E+000  0.1000000E+03  0.7546771E-02  0.1280296E+00
          2   -1    0    0  502    0  0.00000000000E+00  0.00000000000E+00  0.30715089320E+04  0.30715089320E+04  0.00000000000E+00 0.  1.
         -2   -1    0    0    0  501 -0.00000000000E+00 -0.00000000000E+00 -0.16713253054E+02  0.16713253054E+02  0.00000000000E+00 0. -1.
          6    1    1    2  502    0  0.13809970320E+03  0.47868693390E+02  0.15720698674E+04  0.15882995963E+04  0.17300000000E+03 0. -1.
         -6    1    1    2    0  501 -0.13809970320E+03 -0.47868693390E+02  0.14827258116E+04  0.14999225887E+04  0.17300000000E+03 0. -1.
</event>
<event>
 4    1  0.1116913E+000  0.1000000E+03  0.7546771E-02  0.1280296E+00
          1   -1    0    0  502    0  0.00000000000E+00  0.00000000000E+00  0.16777190262E+04  0.16777190262E+04  0.00000000000E+00 0.  1.
         -1   -1    0    0    0  501 -0.00000000000E+00 -0.00000000000E+00 -0.69649284174E+02  0.69649284174E+02  0.00000000000E+00 0. -1.
          6    1    1    2  502    0 -0.25088696541E+03  0.15469275417E+03  0.78617829854E+03  0.85725109198E+03  0.17300000000E+03 0.  1.
         -6    1    1    2    0  501  0.25088696541E+03 -0.15469275417E+03  0.82189144346E+03  0.89011721837E+03  0.17300000000E+03 0. -1.
</event>
<event>
 4    1  0.1116913E+000  0.1000000E+03  0.7546771E-02  0.1280296E+00
          1   -1    0    0  502    0  0.00000000000E+00  0.00000000000E+00  0.14444315668E+03  0.14444315668E+03  0.00000000000E+00 0.  1.
         -1   -1    0    0    0  501 -0.00000000000E+00 -0.00000000000E+00 -0.45670298451E+03  0.45670298451E+03  0.00000000000E+00 0. -1.
          6    1    1    2  502    0 -0.26071167331E+02  0.18162302833E+03 -0.99134339321E+02  0.27096724418E+03  0.17300000000E+03 0.  1.
         -6    1    1    2    0  501  0.26071167331E+02 -0.18162302833E+03 -0.21312548850E+03  0.33017889701E+03  0.17300000000E+03 0. -1.
</event>
<event>
 4    1  0.1116913E+000  0.1000000E+03  0.7546771E-02  0.1280296E+00
          2   -1    0    0  502    0  0.00000000000E+00  0.00000000000E+00  0.16279716337E+04  0.16279716337E+04  0.00000000000E+00 0.  1.
         -2   -1    0    0    0  501 -0.00000000000E+00 -0.00000000000E+00 -0.37136158648E+02  0.37136158648E+02  0.00000000000E+00 0. -1.
          6    1    1    2  502    0 -0.93267847096E+02 -0.29946949121E+02  0.30553199963E+03  0.36451956581E+03  0.17300000000E+03 0. -1.
         -6    1    1    2    0  501  0.93267847096E+02  0.29946949121E+02  0.12853034754E+04  0.13005882265E+04  0.17300000000E+03 0.  1.
</event>
<event>
 4    1  0.1116913E+000  0.1000000E+03  0.7546771E-02  0.1280296E+00
          3   -1    0    0  502    0  0.00000000000E+00  0.00000000000E+00  0.17835550802E+04  0.17835550802E+04  0.00000000000E+00 0. -1.
         -3   -1    0    0    0  501 -0.00000000000E+00 -0.00000000000E+00 -0.26132314871E+02  0.26132314871E+02  0.00000000000E+00 0.  1.
          6    1    1    2  502    0  0.10008604147E+03 -0.31062509158E+02  0.56235473527E+03  0.59762358007E+03  0.17300000000E+03 0. -1.
         -6    1    1    2    0  501 -0.10008604147E+03  0.31062509158E+02  0.11950680300E+04  0.12120638150E+04  0.17300000000E+03 0.  1.
</event>
<event>
 4    1  0.1116913E+000  0.1000000E+03  0.7546771E-02  0.1280296E+00
          2   -1    0    0  502    0  0.00000000000E+00  0.00000000000E+00  0.19994620907E+04  0.19994620907E+04  0.00000000000E+00 0.  1.
         -2   -1    0    0    0  501 -0.00000000000E+00 -0.00000000000E+00 -0.45326760406E+02  0.45326760406E+02  0.00000000000E+00 0. -1.
          6    1    1    2  502    0  0.82762093667E+02 -0.21143391469E+03  0.13018606690E+04  0.13327880799E+04  0.17300000000E+03 0. -1.
         -6    1    1    2    0  501 -0.82762093667E+02  0.21143391469E+03  0.65227466126E+03  0.71200077117E+03  0.17300000000E+03 0.  1.
</event>
<event>
 4    1  0.1116913E+000  0.1000000E+03  0.7546771E-02  0.1280296E+00
          2   -1    0    0  502    0  0.00000000000E+00  0.00000000000E+00  0.10280063178E+03  0.10280063178E+03  0.00000000000E+00 0.  1.
         -2   -1    0    0    0  501 -0.00000000000E+00 -0.00000000000E+00 -0.18342724154E+04  0.18342724154E+04  0.00000000000E+00 0. -1.
          6    1    1    2  502    0 -0.24989089949E+03  0.19128674230E+03 -0.32122482179E+03  0.48181995139E+03  0.17300000000E+03 0. -1.
         -6    1    1    2    0  501  0.24989089949E+03 -0.19128674230E+03 -0.14102469618E+04  0.14552530957E+04  0.17300000000E+03 0.  1.
</event>
<event>
 4    1  0.1116913E+000  0.1000000E+03  0.7546771E-02  0.1280296E+00
          1   -1    0    0  502    0  0.00000000000E+00  0.00000000000E+00  0.93018202508E+03  0.93018202508E+03  0.00000000000E+00 0.  1.
         -1   -1    0    0    0  501 -0.00000000000E+00 -0.00000000000E+00 -0.37690299481E+02  0.37690299481E+02  0.00000000000E+00 0. -1.
          6    1    1    2  502    0  0.45647731689E+01  0.15308936702E+02  0.26579435586E+03  0.31753872252E+03  0.17300000000E+03 0. -1.
         -6    1    1    2    0  501 -0.45647731689E+01 -0.15308936702E+02  0.62669736975E+03  0.65033360204E+03  0.17300000000E+03 0.  1.
</event>
<event>
 4    1  0.1116913E+000  0.1000000E+03  0.7546771E-02  0.1280296E+00
         -2   -1    0    0    0  501 -0.00000000000E+00  0.00000000000E+00  0.18168886138E+03  0.18168886138E+03  0.00000000000E+00 0. -1.
          2   -1    0    0  502    0  0.00000000000E+00 -0.00000000000E+00 -0.18306031510E+03  0.18306031510E+03  0.00000000000E+00 0.  1.
          6    1    1    2  502    0 -0.18121637641E+02  0.12938717415E+02  0.52561396433E+02  0.18217437952E+03  0.17300000000E+03 0. -1.
         -6    1    1    2    0  501  0.18121637641E+02 -0.12938717415E+02 -0.53932850160E+02  0.18257479696E+03  0.17300000000E+03 0.  1.
</event>
<event>
 4    1  0.1116913E+000  0.1000000E+03  0.7546771E-02  0.1280296E+00
          2   -1    0    0  502    0  0.00000000000E+00  0.00000000000E+00  0.16660055927E+03  0.16660055927E+03  0.00000000000E+00 0. -1.
         -2   -1    0    0    0  501 -0.00000000000E+00 -0.00000000000E+00 -0.19668995944E+03  0.19668995944E+03  0.00000000000E+00 0.  1.
          6    1    1    2  502    0  0.32991794976E+02 -0.17508277767E+02  0.23095011677E+02  0.17848635211E+03  0.17300000000E+03 0.  1.
         -6    1    1    2    0  501 -0.32991794976E+02  0.17508277767E+02 -0.53184411851E+02  0.18480416659E+03  0.17300000000E+03 0. -1.
</event>
<event>
 4    1  0.1116913E+000  0.1000000E+03  0.7546771E-02  0.1280296E+00
          2   -1    0    0  502    0  0.00000000000E+00  0.00000000000E+00  0.76594003498E+03  0.76594003498E+03  0.00000000000E+00 0. -1.
         -2   -1    0    0    0  501 -0.00000000000E+00 -0.00000000000E+00 -0.94226081738E+02  0.94226081738E+02  0.00000000000E+00 0.  1.
          6    1    1    2  502    0 -0.69817192530E+02  0.18402738873E+02  0.27791606889E+02  0.18951114633E+03  0.17300000000E+03 0.  1.
         -6    1    1    2    0  501  0.69817192530E+02 -0.18402738873E+02  0.64392234635E+03  0.67065497039E+03  0.17300000000E+03 0. -1.
</event>
<event>
 4    1  0.1116913E+000  0.1000000E+03  0.7546771E-02  0.1280296E+00
         -2   -1    0    0    0  501 -0.00000000000E+00  0.00000000000E+00  0.39464323764E+02  0.39464323764E+02  0.00000000000E+00 0. -1.
          2   -1    0    0  502    0  0.00000000000E+00 -0.00000000000E+00 -0.80357906952E+03  0.80357906952E+03  0.00000000000E+00 0.  1.
          6    1    1    2  502    0  0.25159639116E+02  0.67194976525E+01 -0.30335431628E+03  0.35018709327E+03  0.17300000000E+03 0.  1.
         -6    1    1    2    0  501 -0.25159639116E+02 -0.67194976525E+01 -0.46076042948E+03  0.49285630001E+03  0.17300000000E+03 0. -1.
</event>
<event>
 4    1  0.1116913E+000  0.1000000E+03  0.7546771E-02  0.1280296E+00
         -1   -1    0    0    0  501 -0.00000000000E+00  0.00000000000E+00  0.88282681501E+03  0.88282681501E+03  0.00000000000E+00 0. -1.
          1   -1    0    0  502    0  0.00000000000E+00 -0.00000000000E+00 -0.18404899040E+03  0.18404899040E+03  0.00000000000E+00 0.  1.
          6    1    1    2  502    0  0.15149316017E+03  0.12224550111E+03  0.75654712799E+03  0.80011667711E+03  0.17300000000E+03 0.  1.
         -6    1    1    2    0  501 -0.15149316017E+03 -0.12224550111E+03 -0.57769303380E+02  0.26675912830E+03  0.17300000000E+03 0. -1.
</event>
<event>
 4    1  0.1116913E+000  0.1000000E+03  0.7546771E-02  0.1280296E+00
         -2   -1    0    0    0  501 -0.00000000000E+00  0.00000000000E+00  0.30782492692E+02  0.30782492692E+02  0.00000000000E+00 0. -1.
          2   -1    0    0  502    0  0.00000000000E+00 -0.00000000000E+00 -0.17608742484E+04  0.17608742484E+04  0.00000000000E+00 0.  1.
          6    1    1    2  502    0  0.62470459118E+02 -0.14236115549E+03 -0.82546026122E+03  0.85760299656E+03  0.17300000000E+03 0.  1.
         -6    1    1    2    0  501 -0.62470459118E+02  0.14236115549E+03 -0.90463149453E+03  0.93405374458E+03  0.17300000000E+03 0. -1.
</event>
<event>
 4    1  0.1116913E+000  0.1000000E+03  0.7546771E-02  0.1280296E+00
          1   -1    0    0  502    0  0.00000000000E+00  0.00000000000E+00  0.70130347022E+03  0.70130347022E+03  0.00000000000E+00 0. -1.
         -1   -1    0    0    0  501 -0.00000000000E+00 -0.00000000000E+00 -0.64628777579E+02  0.64628777579E+02  0.00000000000E+00 0.  1.
          6    1    1    2  502    0 -0.44589034906E+02 -0.20620926146E+02  0.52329535133E+03  0.55333572933E+03  0.17300000000E+03 0. -1.
         -6    1    1    2    0  501  0.44589034906E+02  0.20620926146E+02  0.11337934131E+03  0.21259651847E+03  0.17300000000E+03 0. -1.
</event>
<event>
 4    1  0.1116913E+000  0.1000000E+03  0.7546771E-02  0.1280296E+00
         -1   -1    0    0    0  501 -0.00000000000E+00  0.00000000000E+00  0.38014544902E+03  0.38014544902E+03  0.00000000000E+00 0.  1.
          1   -1    0    0  502    0  0.00000000000E+00 -0.00000000000E+00 -0.21157498484E+03  0.21157498484E+03  0.00000000000E+00 0. -1.
          6    1    1    2  502    0  0.44671153380E+02 -0.65979807823E+02  0.30349093838E+03  0.35830796344E+03  0.17300000000E+03 0.  1.
         -6    1    1    2    0  501 -0.44671153380E+02  0.65979807823E+02 -0.13492047421E+03  0.23341247041E+03  0.17300000000E+03 0. -1.
</event>
<event>
 4    1  0.1116913E+000  0.1000000E+03  0.7546771E-02  0.1280296E+00
         -1   -1    0    0    0  501 -0.00000000000E+00  0.00000000000E+00  0.41280909278E+02  0.41280909278E+02  0.00000000000E+00 0.  1.
          1   -1    0    0  502    0  0.00000000000E+00 -0.00000000000E+00 -0.11702907871E+04  0.11702907871E+04  0.00000000000E+00 0. -1.
          6    1    1    2  502    0 -0.67176796234E+02 -0.59811868034E+02 -0.28490526973E+03  0.34523932891E+03  0.17300000000E+03 0.  1.
         -6    1    1    2    0  501  0.67176796234E+02  0.59811868034E+02 -0.84410460806E+03  0.86633236743E+03  0.17300000000E+03 0. -1.
</event>
<event>
 4    1  0.1116913E+000  0.1000000E+03  0.7546771E-02  0.1280296E+00
         -2   -1    0    0    0  501 -0.00000000000E+00  0.00000000000E+00  0.10375196476E+03  0.10375196476E+03  0.00000000000E+00 0.  1.
          2   -1    0    0  502    0  0.00000000000E+00 -0.00000000000E+00 -0.41602745593E+03  0.41602745593E+03  0.00000000000E+00 0. -1.
          6    1    1    2  502    0 -0.47624605834E+02  0.22945994229E+02 -0.28322960936E+02  0.18310055120E+03  0.17300000000E+03 0.  1.
         -6    1    1    2    0  501  0.47624605834E+02 -0.22945994229E+02 -0.28395253024E+03  0.33667886949E+03  0.17300000000E+03 0. -1.
</event>
<event>
 4    1  0.1116913E+000  0.1000000E+03  0.7546771E-02  0.1280296E+00
          2   -1    0    0  502    0  0.00000000000E+00  0.00000000000E+00  0.18539926167E+03  0.18539926167E+03  0.00000000000E+00 0.  1.
         -2   -1    0    0    0  501 -0.00000000000E+00 -0.00000000000E+00 -0.20408639204E+03  0.20408639204E+03  0.00000000000E+00 0. -1.
          6    1    1    2  502    0  0.17014107849E+02 -0.79648787558E+02 -0.45092678586E+02  0.19645803340E+03  0.17300000000E+03 0.  1.
         -6    1    1    2    0  501 -0.17014107849E+02  0.79648787558E+02  0.26405548215E+02  0.19302762031E+03  0.17300000000E+03 0. -1.
</event>
<event>
 4    1  0.1116913E+000  0.1000000E+03  0.7546771E-02  0.1280296E+00
          1   -1    0    0  502    0  0.00000000000E+00  0.00000000000E+00  0.22598172088E+04  0.22598172088E+04  0.00000000000E+00 0. -1.
         -1   -1    0    0    0  501 -0.00000000000E+00 -0.00000000000E+00 -0.17094012426E+03  0.17094012426E+03  0.00000000000E+00 0.  1.
          6    1    1    2  502    0 -0.54710599659E+02  0.58824179657E+03  0.87687365741E+03  0.10713813849E+04  0.17300000000E+03 0. -1.
         -6    1    1    2    0  501  0.54710599659E+02 -0.58824179657E+03  0.12120034272E+04  0.13593759481E+04  0.17300000000E+03 0. -1.
</event>
<event>
 4    1  0.1116913E+000  0.1000000E+03  0.7546771E-02  0.1280296E+00
          1   -1    0    0  502    0  0.00000000000E+00  0.00000000000E+00  0.36838850529E+03  0.36838850529E+03  0.00000000000E+00 0. -1.
         -1   -1    0    0    0  501 -0.00000000000E+00 -0.00000000000E+00 -0.10270263076E+03  0.10270263076E+03  0.00000000000E+00 0.  1.
          6    1    1    2  502    0 -0.93647406506E+01 -0.22674678125E+02  0.29352439234E+02  0.17717901988E+03  0.17300000000E+03 0. -1.
         -6    1    1    2    0  501  0.93647406506E+01  0.22674678125E+02  0.23633343529E+03  0.29391211617E+03  0.17300000000E+03 0. -1.
</event>
<event>
 4    1  0.1116913E+000  0.1000000E+03  0.7546771E-02  0.1280296E+00
          1   -1    0    0  502    0  0.00000000000E+00  0.00000000000E+00  0.13880498231E+03  0.13880498231E+03  0.00000000000E+00 0. -1.
         -1   -1    0    0    0  501 -0.00000000000E+00 -0.00000000000E+00 -0.27573106421E+03  0.27573106421E+03  0.00000000000E+00 0.  1.
          6    1    1    2  502    0  0.50701242139E+02  0.28369612636E+02  0.62153532179E+01  0.18260088031E+03  0.17300000000E+03 0. -1.
         -6    1    1    2    0  501 -0.50701242139E+02 -0.28369612636E+02 -0.14314143511E+03  0.23193516620E+03  0.17300000000E+03 0. -1.
</event>
<event>
 4    1  0.1116913E+000  0.1000000E+03  0.7546771E-02  0.1280296E+00
          1   -1    0    0  502    0  0.00000000000E+00  0.00000000000E+00  0.71331922911E+03  0.71331922911E+03  0.00000000000E+00 0. -1.
         -1   -1    0    0    0  501 -0.00000000000E+00 -0.00000000000E+00 -0.74614211622E+02  0.74614211622E+02  0.00000000000E+00 0.  1.
          6    1    1    2  502    0  0.13353850513E+03 -0.43115429262E+02  0.42186003633E+03  0.47706012498E+03  0.17300000000E+03 0.  1.
         -6    1    1    2    0  501 -0.13353850513E+03  0.43115429262E+02  0.21684498115E+03  0.31087331575E+03  0.17300000000E+03 0. -1.
</event>
<event>
 4    1  0.1116913E+000  0.1000000E+03  0.7546771E-02  0.1280296E+00
          3   -1    0    0  502    0  0.00000000000E+00  0.00000000000E+00  0.99418409039E+02  0.99418409039E+02  0.00000000000E+00 0. -1.
         -3   -1    0    0    0  501 -0.00000000000E+00 -0.00000000000E+00 -0.70824763809E+03  0.70824763809E+03  0.00000000000E+00 0.  1.
          6    1    1    2  502    0  0.11758719918E+03 -0.10785167986E+02 -0.56482529045E+02  0.21693857505E+03  0.17300000000E+03 0.  1.
         -6    1    1    2    0  501 -0.11758719918E+03  0.10785167986E+02 -0.55234670000E+03  0.59072747207E+03  0.17300000000E+03 0. -1.
</event>
<event>
 4    1  0.1116913E+000  0.1000000E+03  0.7546771E-02  0.1280296E+00
          2   -1    0    0  502    0  0.00000000000E+00  0.00000000000E+00  0.20641903285E+03  0.20641903285E+03  0.00000000000E+00 0. -1.
         -2   -1    0    0    0  501 -0.00000000000E+00 -0.00000000000E+00 -0.55325928870E+03  0.55325928870E+03  0.00000000000E+00 0.  1.
          6    1    1    2  502    0 -0.25985503740E+02 -0.26128847408E+03 -0.34266727078E+02  0.31630700541E+03  0.17300000000E+03 0.  1.
         -6    1    1    2    0  501  0.25985503740E+02  0.26128847408E+03 -0.31257352877E+03  0.44337131614E+03  0.17300000000E+03 0. -1.
</event>
<event>
 4    1  0.1116913E+000  0.1000000E+03  0.7546771E-02  0.1280296E+00
         -1   -1    0    0    0  501 -0.00000000000E+00  0.00000000000E+00  0.73039372928E+02  0.73039372928E+02  0.00000000000E+00 0. -1.
          1   -1    0    0  502    0  0.00000000000E+00 -0.00000000000E+00 -0.83644060172E+03  0.83644060172E+03  0.00000000000E+00 0.  1.
          6    1    1    2  502    0 -0.88354380711E+02 -0.27916396301E+02 -0.65814798035E+03  0.68678496330E+03  0.17300000000E+03 0. -1.
         -6    1    1    2    0  501  0.88354380711E+02  0.27916396301E+02 -0.10525324845E+03  0.22269501135E+03  0.17300000000E+03 0.  1.
</event>
<event>
 4    1  0.1116913E+000  0.1000000E+03  0.7546771E-02  0.1280296E+00
          2   -1    0    0  502    0  0.00000000000E+00  0.00000000000E+00  0.33219664683E+04  0.33219664683E+04  0.00000000000E+00 0.  1.
         -2   -1    0    0    0  501 -0.00000000000E+00 -0.00000000000E+00 -0.28236428720E+02  0.28236428720E+02  0.00000000000E+00 0. -1.
          6    1    1    2  502    0  0.74761147095E+02 -0.39775699909E+02  0.34450621385E+03  0.39469591688E+03  0.17300000000E+03 0.  1.
         -6    1    1    2    0  501 -0.74761147095E+02  0.39775699909E+02  0.29492238257E+04  0.29555069801E+04  0.17300000000E+03 0.  1.
</event>
<event>
 4    1  0.1116913E+000  0.1000000E+03  0.7546771E-02  0.1280296E+00
         -2   -1    0    0    0  501 -0.00000000000E+00  0.00000000000E+00  0.32303126054E+03  0.32303126054E+03  0.00000000000E+00 0.  1.
          2   -1    0    0  502    0  0.00000000000E+00 -0.00000000000E+00 -0.13769619330E+03  0.13769619330E+03  0.00000000000E+00 0. -1.
          6    1    1    2  502    0  0.26502177409E+02 -0.11691589952E+03  0.78034269547E+02  0.22447725986E+03  0.17300000000E+03 0. -1.
         -6    1    1    2    0  501 -0.26502177409E+02  0.11691589952E+03  0.10730079770E+03  0.23625019398E+03  0.17300000000E+03 0.  1.
</event>
<event>
 4    1  0.1116913E+000  0.1000000E+03  0.7546771E-02  0.1280296E+00
         -1   -1    0    0    0  501 -0.00000000000E+00  0.00000000000E+00  0.72123902023E+03  0.72123902023E+03  0.00000000000E+00 0.  1.
          1   -1    0    0  502    0  0.00000000000E+00 -0.00000000000E+00 -0.64268480174E+02  0.64268480174E+02  0.00000000000E+00 0. -1.
          6    1    1    2  502    0  0.66307995129E+02  0.61449504061E+02  0.49419148566E+03  0.53134453631E+03  0.17300000000E+03 0. -1.
         -6    1    1    2    0  501 -0.66307995129E+02 -0.61449504061E+02  0.16277905440E+03  0.25416296410E+03  0.17300000000E+03 0.  1.
</event>
<event>
 4    1  0.1116913E+000  0.1000000E+03  0.7546771E-02  0.1280296E+00
         -2   -1    0    0    0  501 -0.00000000000E+00  0.00000000000E+00  0.43593815782E+02  0.43593815782E+02  0.00000000000E+00 0.  1.
          2   -1    0    0  502    0  0.00000000000E+00 -0.00000000000E+00 -0.12493212066E+04  0.12493212066E+04  0.00000000000E+00 0. -1.
          6    1    1    2  502    0  0.12655115975E+03 -0.55402248390E+02 -0.80734415631E+03  0.83714884691E+03  0.17300000000E+03 0. -1.
         -6    1    1    2    0  501 -0.12655115975E+03  0.55402248390E+02 -0.39838323449E+03  0.45576617545E+03  0.17300000000E+03 0.  1.
</event>
<event>
 4    1  0.1116913E+000  0.1000000E+03  0.7546771E-02  0.1280296E+00
          2   -1    0    0  502    0  0.00000000000E+00  0.00000000000E+00  0.15394021068E+04  0.15394021068E+04  0.00000000000E+00 0.  1.
         -2   -1    0    0    0  501 -0.00000000000E+00 -0.00000000000E+00 -0.27230578116E+02  0.27230578116E+02  0.00000000000E+00 0. -1.
          6    1    1    2  502    0  0.61640823713E+02 -0.89917902118E+02  0.79528744879E+03  0.82115525113E+03  0.17300000000E+03 0.  1.
         -6    1    1    2    0  501 -0.61640823713E+02  0.89917902118E+02  0.71688407994E+03  0.74547743383E+03  0.17300000000E+03 0. -1.
</event>
<event>
 4    1  0.1116913E+000  0.1000000E+03  0.7546771E-02  0.1280296E+00
         -1   -1    0    0    0  501 -0.00000000000E+00  0.00000000000E+00  0.12604777719E+04  0.12604777719E+04  0.00000000000E+00 0.  1.
          1   -1    0    0  502    0  0.00000000000E+00 -0.00000000000E+00 -0.81441346291E+02  0.81441346291E+02  0.00000000000E+00 0. -1.
          6    1    1    2  502    0 -0.12192427777E+02 -0.11978603291E+03  0.84188696320E+02  0.22696714644E+03  0.17300000000E+03 0.  1.
         -6    1    1    2    0  501  0.12192427777E+02  0.11978603291E+03  0.10948477293E+04  0.11149519717E+04  0.17300000000E+03 0. -1.
</event>
<event>
 4    1  0.1116913E+000  0.1000000E+03  0.7546771E-02  0.1280296E+00
         -1   -1    0    0    0  501 -0.00000000000E+00  0.00000000000E+00  0.14481625542E+02  0.14481625542E+02  0.00000000000E+00 0.  1.
          1   -1    0    0  502    0  0.00000000000E+00 -0.00000000000E+00 -0.28841575325E+04  0.28841575325E+04  0.00000000000E+00 0. -1.
          6    1    1    2  502    0  0.59223557148E+02  0.71506826392E+02 -0.18371048524E+04  0.18475670203E+04  0.17300000000E+03 0.  1.
         -6    1    1    2    0  501 -0.59223557148E+02 -0.71506826392E+02 -0.10325710546E+04  0.10510721378E+04  0.17300000000E+03 0. -1.
</event>
<event>
 4    1  0.1116913E+000  0.1000000E+03  0.7546771E-02  0.1280296E+00
         -1   -1    0    0    0  501 -0.00000000000E+00  0.00000000000E+00  0.63400193263E+02  0.63400193263E+02  0.00000000000E+00 0.  1.
          1   -1    0    0  502    0  0.00000000000E+00 -0.00000000000E+00 -0.11198355166E+04  0.11198355166E+04  0.00000000000E+00 0. -1.
          6    1    1    2  502    0 -0.43151491233E+02  0.92240950932E+02 -0.91724160949E+03  0.93895240263E+03  0.17300000000E+03 0.  1.
         -6    1    1    2    0  501  0.43151491233E+02 -0.92240950932E+02 -0.13919371388E+03  0.24428330726E+03  0.17300000000E+03 0. -1.
</event>
<event>
 4    1  0.1116913E+000  0.1000000E+03  0.7546771E-02  0.1280296E+00
          1   -1    0    0  502    0  0.00000000000E+00  0.00000000000E+00  0.43174315616E+03  0.43174315616E+03  0.00000000000E+00 0.  1.
         -1   -1    0    0    0  501 -0.00000000000E+00 -0.00000000000E+00 -0.10651450327E+03  0.10651450327E+03  0.00000000000E+00 0. -1.
          6    1    1    2  502    0  0.81755980653E+02 -0.43288494161E+02  0.53928480631E+02  0.20345814096E+03  0.17300000000E+03 0.  1.
         -6    1    1    2    0  501 -0.81755980653E+02  0.43288494161E+02  0.27130017226E+03  0.33479951847E+03  0.17300000000E+03 0. -1.
</event>
<event>
 4    1  0.1116913E+000  0.1000000E+03  0.7546771E-02  0.1280296E+00
         -1   -1    0    0    0  501 -0.00000000000E+00  0.00000000000E+00  0.88161028024E+02  0.88161028024E+02  0.00000000000E+00 0. -1.
          1   -1    0    0  502    0  0.00000000000E+00 -0.00000000000E+00 -0.81841349782E+03  0.81841349782E+03  0.00000000000E+00 0.  1.
          6    1    1    2  502    0  0.14132137037E+03  0.13422518884E+03 -0.25530716056E+03  0.36482718823E+03  0.17300000000E+03 0. -1.
         -6    1    1    2    0  501 -0.14132137037E+03 -0.13422518884E+03 -0.47494530924E+03  0.54174733762E+03  0.17300000000E+03 0. -1.
</event>
<event>
 4    1  0.1116913E+000  0.1000000E+03  0.7546771E-02  0.1280296E+00
         -2   -1    0    0    0  501 -0.00000000000E+00  0.00000000000E+00  0.41524339335E+03  0.41524339335E+03  0.00000000000E+00 0. -1.
          2   -1    0    0  502    0  0.00000000000E+00 -0.00000000000E+00 -0.46045534606E+03  0.46045534606E+03  0.00000000000E+00 0.  1.
          6    1    1    2  502    0  0.63037449955E+02 -0.13634040901E+03  0.35032880015E+03  0.41859490613E+03  0.17300000000E+03 0. -1.
         -6    1    1    2    0  501 -0.63037449955E+02  0.13634040901E+03 -0.39554075286E+03  0.45710383328E+03  0.17300000000E+03 0. -1.
</event>
<event>
 4    1  0.1116913E+000  0.1000000E+03  0.7546771E-02  0.1280296E+00
         -2   -1    0    0    0  501 -0.00000000000E+00  0.00000000000E+00  0.29161608260E+02  0.29161608260E+02  0.00000000000E+00 0. -1.
          2   -1    0    0  502    0  0.00000000000E+00 -0.00000000000E+00 -0.23109629805E+04  0.23109629805E+04  0.00000000000E+00 0.  1.
          6    1    1    2  502    0  0.46088960249E+02 -0.12852463909E+03 -0.17592191320E+04  0.17729703126E+04  0.17300000000E+03 0. -1.
         -6    1    1    2    0  501 -0.46088960249E+02  0.12852463909E+03 -0.52258224030E+03  0.56715427618E+03  0.17300000000E+03 0. -1.
</event>
<event>
 4    1  0.1116913E+000  0.1000000E+03  0.7546771E-02  0.1280296E+00
          4   -1    0    0  502    0  0.00000000000E+00  0.00000000000E+00  0.16258005994E+03  0.16258005994E+03  0.00000000000E+00 0. -1.
         -4   -1    0    0    0  501 -0.00000000000E+00 -0.00000000000E+00 -0.19790792974E+03  0.19790792974E+03  0.00000000000E+00 0.  1.
          6    1    1    2  502    0 -0.27403032795E+01 -0.35920354216E+02 -0.48620445707E+02  0.18327773692E+03  0.17300000000E+03 0. -1.
         -6    1    1    2    0  501  0.27403032795E+01  0.35920354216E+02  0.13292575916E+02  0.17721025276E+03  0.17300000000E+03 0.  1.
</event>
<event>
 4    1  0.1116913E+000  0.1000000E+03  0.7546771E-02  0.1280296E+00
          2   -1    0    0  502    0  0.00000000000E+00  0.00000000000E+00  0.11947152891E+03  0.11947152891E+03  0.00000000000E+00 0. -1.
         -2   -1    0    0    0  501 -0.00000000000E+00 -0.00000000000E+00 -0.37406639045E+03  0.37406639045E+03  0.00000000000E+00 0.  1.
          6    1    1    2  502    0  0.12136534996E+03 -0.51648937601E+01 -0.12992303006E+03  0.24812339277E+03  0.17300000000E+03 0. -1.
         -6    1    1    2    0  501 -0.12136534996E+03  0.51648937601E+01 -0.12467183148E+03  0.24541452659E+03  0.17300000000E+03 0.  1.
</event>
<event>
 4    1  0.1116913E+000  0.1000000E+03  0.7546771E-02  0.1280296E+00
          1   -1    0    0  502    0  0.00000000000E+00  0.00000000000E+00  0.17105690437E+04  0.17105690437E+04  0.00000000000E+00 0. -1.
         -1   -1    0    0    0  501 -0.00000000000E+00 -0.00000000000E+00 -0.22158046329E+02  0.22158046329E+02  0.00000000000E+00 0.  1.
          6    1    1    2  502    0  0.26950748493E+02 -0.40137006648E+02  0.51010997318E+03  0.54081282056E+03  0.17300000000E+03 0. -1.
         -6    1    1    2    0  501 -0.26950748493E+02  0.40137006648E+02  0.11783010242E+04  0.11919142694E+04  0.17300000000E+03 0.  1.
</event>
<event>
 4    1  0.1116913E+000  0.1000000E+03  0.7546771E-02  0.1280296E+00
         -1   -1    0    0    0  501 -0.00000000000E+00  0.00000000000E+00  0.84099341526E+02  0.84099341526E+02  0.00000000000E+00 0.  1.
          1   -1    0    0  502    0  0.00000000000E+00 -0.00000000000E+00 -0.10903762607E+04  0.10903762607E+04  0.00000000000E+00 0. -1.
          6    1    1    2  502    0  0.19036005235E+03  0.15639308314E+03 -0.56672570478E+03  0.64171860690E+03  0.17300000000E+03 0.  1.
         -6    1    1    2    0  501 -0.19036005235E+03 -0.15639308314E+03 -0.43955121436E+03  0.53275699529E+03  0.17300000000E+03 0. -1.
</event>
<event>
 4    1  0.1116913E+000  0.1000000E+03  0.7546771E-02  0.1280296E+00
         -2   -1    0    0    0  501 -0.00000000000E+00  0.00000000000E+00  0.87797099358E+02  0.87797099358E+02  0.00000000000E+00 0.  1.
          2   -1    0    0  502    0  0.00000000000E+00 -0.00000000000E+00 -0.34586145613E+04  0.34586145613E+04  0.00000000000E+00 0. -1.
          6    1    1    2  502    0  0.17608446334E+03  0.31721390487E+03 -0.28984074053E+04  0.29261450556E+04  0.17300000000E+03 0. -1.
         -6    1    1    2    0  501 -0.17608446334E+03 -0.31721390487E+03 -0.47241005670E+03  0.62026660506E+03  0.17300000000E+03 0.  1.
</event>
<event>
 4    1  0.1116913E+000  0.1000000E+03  0.7546771E-02  0.1280296E+00
         -2   -1    0    0    0  501 -0.00000000000E+00  0.00000000000E+00  0.20857073616E+02  0.20857073616E+02  0.00000000000E+00 0.  1.
          2   -1    0    0  502    0  0.00000000000E+00 -0.00000000000E+00 -0.17112242615E+04  0.17112242615E+04  0.00000000000E+00 0. -1.
          6    1    1    2  502    0  0.75168122855E+02  0.32355641049E+01 -0.89134817086E+03  0.91109345144E+03  0.17300000000E+03 0.  1.
         -6    1    1    2    0  501 -0.75168122855E+02 -0.32355641049E+01 -0.79901901701E+03  0.82098788366E+03  0.17300000000E+03 0. -1.
</event>
<event>
 4    1  0.1116913E+000  0.1000000E+03  0.7546771E-02  0.1280296E+00
         -1   -1    0    0    0  501 -0.00000000000E+00  0.00000000000E+00  0.24175691238E+02  0.24175691238E+02  0.00000000000E+00 0.  1.
          1   -1    0    0  502    0  0.00000000000E+00 -0.00000000000E+00 -0.17044470559E+04  0.17044470559E+04  0.00000000000E+00 0. -1.
          6    1    1    2  502    0 -0.49204123485E+02  0.19296477773E+02 -0.12323142634E+04  0.12455203104E+04  0.17300000000E+03 0.  1.
         -6    1    1    2    0  501  0.49204123485E+02 -0.19296477773E+02 -0.44795710132E+03  0.48310243680E+03  0.17300000000E+03 0. -1.
</event>
<event>
 4    1  0.1116913E+000  0.1000000E+03  0.7546771E-02  0.1280296E+00
          2   -1    0    0  502    0  0.00000000000E+00  0.00000000000E+00  0.10184169156E+04  0.10184169156E+04  0.00000000000E+00 0. -1.
         -2   -1    0    0    0  501 -0.00000000000E+00 -0.00000000000E+00 -0.53686335922E+02  0.53686335922E+02  0.00000000000E+00 0.  1.
          6    1    1    2  502    0 -0.83862116005E+02 -0.13298352433E+03  0.47010507929E+03  0.52501929281E+03  0.17300000000E+03 0. -1.
         -6    1    1    2    0  501  0.83862116005E+02  0.13298352433E+03  0.49462550035E+03  0.54708395868E+03  0.17300000000E+03 0.  1.
</event>
<event>
 4    1  0.1116913E+000  0.1000000E+03  0.7546771E-02  0.1280296E+00
         -2   -1    0    0    0  501 -0.00000000000E+00  0.00000000000E+00  0.54183394953E+03  0.54183394953E+03  0.00000000000E+00 0.  1.
          2   -1    0    0  502    0  0.00000000000E+00 -0.00000000000E+00 -0.60526297783E+02  0.60526297783E+02  0.00000000000E+00 0. -1.
          6    1    1    2  502    0 -0.15139123773E+02  0.46111453619E+02  0.27823952889E+03  0.33121246151E+03  0.17300000000E+03 0. -1.
         -6    1    1    2    0  501  0.15139123773E+02 -0.46111453619E+02  0.20306812285E+03  0.27114778579E+03  0.17300000000E+03 0.  1.
</event>
<event>
 4    1  0.1116913E+000  0.1000000E+03  0.7546771E-02  0.1280296E+00
          2   -1    0    0  502    0  0.00000000000E+00  0.00000000000E+00  0.35677009025E+03  0.35677009025E+03  0.00000000000E+00 0.  1.
         -2   -1    0    0    0  501 -0.00000000000E+00 -0.00000000000E+00 -0.11919418803E+03  0.11919418803E+03  0.00000000000E+00 0. -1.
          6    1    1    2  502    0  0.10189408461E+03 -0.14733324403E+02  0.67223383837E+02  0.21224386601E+03  0.17300000000E+03 0.  1.
         -6    1    1    2    0  501 -0.10189408461E+03  0.14733324403E+02  0.17035251839E+03  0.26372041227E+03  0.17300000000E+03 0. -1.
</event>
<event>
 4    1  0.1116913E+000  0.1000000E+03  0.7546771E-02  0.1280296E+00
          2   -1    0    0  502    0  0.00000000000E+00  0.00000000000E+00  0.36304213417E+04  0.36304213417E+04  0.00000000000E+00 0.  1.
         -2   -1    0    0    0  501 -0.00000000000E+00 -0.00000000000E+00 -0.33981520215E+02  0.33981520215E+02  0.00000000000E+00 0. -1.
          6    1    1    2  502    0  0.29774358653E+03 -0.63956940216E+02  0.16605513730E+04  0.16970862076E+04  0.17300000000E+03 0.  1.
         -6    1    1    2    0  501 -0.29774358653E+03  0.63956940216E+02  0.19358884484E+04  0.19673166543E+04  0.17300000000E+03 0. -1.
</event>
<event>
 4    1  0.1116913E+000  0.1000000E+03  0.7546771E-02  0.1280296E+00
          2   -1    0    0  502    0  0.00000000000E+00  0.00000000000E+00  0.86793384832E+02  0.86793384832E+02  0.00000000000E+00 0.  1.
         -2   -1    0    0    0  501 -0.00000000000E+00 -0.00000000000E+00 -0.13952095197E+04  0.13952095197E+04  0.00000000000E+00 0. -1.
          6    1    1    2  502    0  0.27314467140E+03 -0.11017691430E+03 -0.51265552376E+03  0.61602893601E+03  0.17300000000E+03 0.  1.
         -6    1    1    2    0  501 -0.27314467140E+03  0.11017691430E+03 -0.79576061107E+03  0.86597396849E+03  0.17300000000E+03 0. -1.
</event>
<event>
 4    1  0.1116913E+000  0.1000000E+03  0.7546771E-02  0.1280296E+00
         -2   -1    0    0    0  501 -0.00000000000E+00  0.00000000000E+00  0.78532550236E+02  0.78532550236E+02  0.00000000000E+00 0. -1.
          2   -1    0    0  502    0  0.00000000000E+00 -0.00000000000E+00 -0.64970715664E+03  0.64970715664E+03  0.00000000000E+00 0.  1.
          6    1    1    2  502    0 -0.12792090007E+03 -0.66051610464E+02 -0.25468140675E+03  0.33987967115E+03  0.17300000000E+03 0.  1.
         -6    1    1    2    0  501  0.12792090007E+03  0.66051610464E+02 -0.31649319965E+03  0.38836003572E+03  0.17300000000E+03 0. -1.
</event>
<event>
 4    1  0.1116913E+000  0.1000000E+03  0.7546771E-02  0.1280296E+00
          2   -1    0    0  502    0  0.00000000000E+00  0.00000000000E+00  0.71702297267E+03  0.71702297267E+03  0.00000000000E+00 0.  1.
         -2   -1    0    0    0  501 -0.00000000000E+00 -0.00000000000E+00 -0.12542938767E+03  0.12542938767E+03  0.00000000000E+00 0. -1.
          6    1    1    2  502    0  0.43590816001E+02  0.21906364436E+03  0.15451365034E+03  0.32201321038E+03  0.17300000000E+03 0.  1.
         -6    1    1    2    0  501 -0.43590816001E+02 -0.21906364436E+03  0.43707993467E+03  0.52043914996E+03  0.17300000000E+03 0. -1.
</event>
<event>
 4    1  0.1116913E+000  0.1000000E+03  0.7546771E-02  0.1280296E+00
          2   -1    0    0  502    0  0.00000000000E+00  0.00000000000E+00  0.23399276959E+03  0.23399276959E+03  0.00000000000E+00 0.  1.
         -2   -1    0    0    0  501 -0.00000000000E+00 -0.00000000000E+00 -0.13213251939E+03  0.13213251939E+03  0.00000000000E+00 0. -1.
          6    1    1    2  502    0 -0.15164439743E+01 -0.17515746968E+02  0.78077832303E+02  0.19061544767E+03  0.17300000000E+03 0.  1.
         -6    1    1    2    0  501  0.15164439743E+01  0.17515746968E+02  0.23782417906E+02  0.17550984131E+03  0.17300000000E+03 0. -1.
</event>
<event>
 4    1  0.1116913E+000  0.1000000E+03  0.7546771E-02  0.1280296E+00
         -1   -1    0    0    0  501 -0.00000000000E+00  0.00000000000E+00  0.14321012031E+03  0.14321012031E+03  0.00000000000E+00 0.  1.
          1   -1    0    0  502    0  0.00000000000E+00 -0.00000000000E+00 -0.21580262923E+03  0.21580262923E+03  0.00000000000E+00 0. -1.
          6    1    1    2  502    0 -0.31112735791E+02  0.11010870597E+00 -0.39203415648E+02  0.18009420382E+03  0.17300000000E+03 0. -1.
         -6    1    1    2    0  501  0.31112735791E+02 -0.11010870597E+00 -0.33389093271E+02  0.17891854572E+03  0.17300000000E+03 0.  1.
</event>
<event>
 4    1  0.1116913E+000  0.1000000E+03  0.7546771E-02  0.1280296E+00
         -2   -1    0    0    0  501 -0.00000000000E+00  0.00000000000E+00  0.20600090064E+02  0.20600090064E+02  0.00000000000E+00 0.  1.
          2   -1    0    0  502    0  0.00000000000E+00 -0.00000000000E+00 -0.19851089210E+04  0.19851089210E+04  0.00000000000E+00 0. -1.
          6    1    1    2  502    0 -0.50238788576E+02  0.72670402238E+02 -0.70350091295E+03  0.72982700536E+03  0.17300000000E+03 0. -1.
         -6    1    1    2    0  501  0.50238788576E+02 -0.72670402238E+02 -0.12610079180E+04  0.12758820057E+04  0.17300000000E+03 0.  1.
</event>
<event>
 4    1  0.1116913E+000  0.1000000E+03  0.7546771E-02  0.1280296E+00
         -2   -1    0    0    0  501 -0.00000000000E+00  0.00000000000E+00  0.42649093503E+02  0.42649093503E+02  0.00000000000E+00 0.  1.
          2   -1    0    0  502    0  0.00000000000E+00 -0.00000000000E+00 -0.16703169058E+04  0.16703169058E+04  0.00000000000E+00 0. -1.
          6    1    1    2  502    0 -0.20076963057E+03 -0.20188956502E+02 -0.89194184181E+03  0.93070150300E+03  0.17300000000E+03 0. -1.
         -6    1    1    2    0  501  0.20076963057E+03  0.20188956502E+02 -0.73572597050E+03  0.78226449631E+03  0.17300000000E+03 0.  1.
</event>
<event>
 4    1  0.1116913E+000  0.1000000E+03  0.7546771E-02  0.1280296E+00
          1   -1    0    0  502    0  0.00000000000E+00  0.00000000000E+00  0.52651185632E+03  0.52651185632E+03  0.00000000000E+00 0.  1.
         -1   -1    0    0    0  501 -0.00000000000E+00 -0.00000000000E+00 -0.12509840755E+03  0.12509840755E+03  0.00000000000E+00 0. -1.
          6    1    1    2  502    0 -0.39616742743E+02  0.18435089028E+03  0.17589297179E+03  0.31051904061E+03  0.17300000000E+03 0.  1.
         -6    1    1    2    0  501  0.39616742743E+02 -0.18435089028E+03  0.22552047697E+03  0.34109122326E+03  0.17300000000E+03 0. -1.
</event>
<event>
 4    1  0.1116913E+000  0.1000000E+03  0.7546771E-02  0.1280296E+00
          1   -1    0    0  502    0  0.00000000000E+00  0.00000000000E+00  0.19709503811E+03  0.19709503811E+03  0.00000000000E+00 0.  1.
         -1   -1    0    0    0  501 -0.00000000000E+00 -0.00000000000E+00 -0.15807902872E+03  0.15807902872E+03  0.00000000000E+00 0. -1.
          6    1    1    2  502    0  0.33419184881E+02  0.97799653754E+01  0.15598142934E+02  0.17715753358E+03  0.17300000000E+03 0. -1.
         -6    1    1    2    0  501 -0.33419184881E+02 -0.97799653754E+01  0.23417866457E+02  0.17801653325E+03  0.17300000000E+03 0.  1.
</event>
<event>
 4    1  0.1116913E+000  0.1000000E+03  0.7546771E-02  0.1280296E+00
         -1   -1    0    0    0  501 -0.00000000000E+00  0.00000000000E+00  0.78432947693E+02  0.78432947693E+02  0.00000000000E+00 0.  1.
          1   -1    0    0  502    0  0.00000000000E+00 -0.00000000000E+00 -0.57040753862E+03  0.57040753862E+03  0.00000000000E+00 0. -1.
          6    1    1    2  502    0  0.11646194677E+03  0.17674785577E+02 -0.19911345395E+03  0.28887878190E+03  0.17300000000E+03 0. -1.
         -6    1    1    2    0  501 -0.11646194677E+03 -0.17674785577E+02 -0.29286113698E+03  0.35996170441E+03  0.17300000000E+03 0.  1.
</event>
<event>
 4    1  0.1116913E+000  0.1000000E+03  0.7546771E-02  0.1280296E+00
         -1   -1    0    0    0  501 -0.00000000000E+00  0.00000000000E+00  0.44953105183E+02  0.44953105183E+02  0.00000000000E+00 0.  1.
          1   -1    0    0  502    0  0.00000000000E+00 -0.00000000000E+00 -0.99710251416E+03  0.99710251416E+03  0.00000000000E+00 0. -1.
          6    1    1    2  502    0 -0.23751131227E+02  0.54514327046E+02 -0.73835198374E+03  0.76067639636E+03  0.17300000000E+03 0. -1.
         -6    1    1    2    0  501  0.23751131227E+02 -0.54514327046E+02 -0.21379742523E+03  0.28137922298E+03  0.17300000000E+03 0.  1.
</event>
<event>
 4    1  0.1116913E+000  0.1000000E+03  0.7546771E-02  0.1280296E+00
         -2   -1    0    0    0  501 -0.00000000000E+00  0.00000000000E+00  0.16347321156E+03  0.16347321156E+03  0.00000000000E+00 0.  1.
          2   -1    0    0  502    0  0.00000000000E+00 -0.00000000000E+00 -0.24737088206E+03  0.24737088206E+03  0.00000000000E+00 0. -1.
          6    1    1    2  502    0  0.19777035759E+02 -0.97404830775E+02 -0.16294893115E+02  0.20018330536E+03  0.17300000000E+03 0. -1.
         -6    1    1    2    0  501 -0.19777035759E+02  0.97404830775E+02 -0.67602777389E+02  0.21066078827E+03  0.17300000000E+03 0.  1.
</event>
<event>
 4    1  0.1116913E+000  0.1000000E+03  0.7546771E-02  0.1280296E+00
         -2   -1    0    0    0  501 -0.00000000000E+00  0.00000000000E+00  0.34146494950E+02  0.34146494950E+02  0.00000000000E+00 0.  1.
          2   -1    0    0  502    0  0.00000000000E+00 -0.00000000000E+00 -0.12986403707E+04  0.12986403707E+04  0.00000000000E+00 0. -1.
          6    1    1    2  502    0  0.43776806446E+02  0.10928173118E+03 -0.70687360673E+03  0.73719617569E+03  0.17300000000E+03 0. -1.
         -6    1    1    2    0  501 -0.43776806446E+02 -0.10928173118E+03 -0.55762026903E+03  0.59559068997E+03  0.17300000000E+03 0.  1.
</event>
<event>
 4    1  0.1116913E+000  0.1000000E+03  0.7546771E-02  0.1280296E+00
         -1   -1    0    0    0  501 -0.00000000000E+00  0.00000000000E+00  0.66348363417E+02  0.66348363417E+02  0.00000000000E+00 0.  1.
          1   -1    0    0  502    0  0.00000000000E+00 -0.00000000000E+00 -0.10382640604E+04  0.10382640604E+04  0.00000000000E+00 0. -1.
          6    1    1    2  502    0  0.10357125704E+03 -0.31233311879E+02 -0.83336499863E+03  0.85797945546E+03  0.17300000000E+03 0. -1.
         -6    1    1    2    0  501 -0.10357125704E+03  0.31233311879E+02 -0.13855069831E+03  0.24663296831E+03  0.17300000000E+03 0.  1.
</event>
<event>
 4    1  0.1116913E+000  0.1000000E+03  0.7546771E-02  0.1280296E+00
         -2   -1    0    0    0  501 -0.00000000000E+00  0.00000000000E+00  0.37293747220E+02  0.37293747220E+02  0.00000000000E+00 0.  1.
          2   -1    0    0  502    0  0.00000000000E+00 -0.00000000000E+00 -0.13511967941E+04  0.13511967941E+04  0.00000000000E+00 0. -1.
          6    1    1    2  502    0 -0.26339139436E+02 -0.40470543044E+02 -0.24052208525E+03  0.30018575685E+03  0.17300000000E+03 0. -1.
         -6    1    1    2    0  501  0.26339139436E+02  0.40470543044E+02 -0.10733809616E+04  0.10883047845E+04  0.17300000000E+03 0.  1.
</event>
<event>
 4    1  0.1116913E+000  0.1000000E+03  0.7546771E-02  0.1280296E+00
         -2   -1    0    0    0  501 -0.00000000000E+00  0.00000000000E+00  0.51456438391E+03  0.51456438391E+03  0.00000000000E+00 0.  1.
          2   -1    0    0  502    0  0.00000000000E+00 -0.00000000000E+00 -0.11339535468E+03  0.11339535468E+03  0.00000000000E+00 0. -1.
          6    1    1    2  502    0  0.16702010527E+03  0.61008465847E+00  0.17082670632E+03  0.29496923799E+03  0.17300000000E+03 0. -1.
         -6    1    1    2    0  501 -0.16702010527E+03 -0.61008465847E+00  0.23034232291E+03  0.33299050060E+03  0.17300000000E+03 0.  1.
</event>
<event>
 4    1  0.1116913E+000  0.1000000E+03  0.7546771E-02  0.1280296E+00
          1   -1    0    0  502    0  0.00000000000E+00  0.00000000000E+00  0.39161476302E+03  0.39161476302E+03  0.00000000000E+00 0. -1.
         -1   -1    0    0    0  501 -0.00000000000E+00 -0.00000000000E+00 -0.23382210457E+03  0.23382210457E+03  0.00000000000E+00 0.  1.
          6    1    1    2  502    0 -0.42441569300E+02  0.18847389535E+03 -0.82250848246E+02  0.27206230549E+03  0.17300000000E+03 0. -1.
         -6    1    1    2    0  501  0.42441569300E+02 -0.18847389535E+03  0.24004350669E+03  0.35337456210E+03  0.17300000000E+03 0.  1.
</event>
<event>
 4    1  0.1116913E+000  0.1000000E+03  0.7546771E-02  0.1280296E+00
          2   -1    0    0  502    0  0.00000000000E+00  0.00000000000E+00  0.18644991265E+03  0.18644991265E+03  0.00000000000E+00 0.  1.
         -2   -1    0    0    0  501 -0.00000000000E+00 -0.00000000000E+00 -0.19636433690E+03  0.19636433690E+03  0.00000000000E+00 0. -1.
          6    1    1    2  502    0 -0.22856631409E+02 -0.76004179017E+01 -0.83104622676E+02  0.19343104782E+03  0.17300000000E+03 0. -1.
         -6    1    1    2    0  501  0.22856631409E+02  0.76004179017E+01  0.73190198425E+02  0.18938320173E+03  0.17300000000E+03 0.  1.
</event>
<event>
 4    1  0.1116913E+000  0.1000000E+03  0.7546771E-02  0.1280296E+00
          2   -1    0    0  502    0  0.00000000000E+00  0.00000000000E+00  0.16717482373E+03  0.16717482373E+03  0.00000000000E+00 0.  1.
         -2   -1    0    0    0  501 -0.00000000000E+00 -0.00000000000E+00 -0.20256840716E+03  0.20256840716E+03  0.00000000000E+00 0. -1.
          6    1    1    2  502    0 -0.41597261720E+01  0.54261711633E+02  0.13651347758E+02  0.18187082220E+03  0.17300000000E+03 0.  1.
         -6    1    1    2    0  501  0.41597261720E+01 -0.54261711633E+02 -0.49044931189E+02  0.18787240869E+03  0.17300000000E+03 0.  1.
</event>
<event>
 4    1  0.1116913E+000  0.1000000E+03  0.7546771E-02  0.1280296E+00
          2   -1    0    0  502    0  0.00000000000E+00  0.00000000000E+00  0.47953124841E+03  0.47953124841E+03  0.00000000000E+00 0.  1.
         -2   -1    0    0    0  501 -0.00000000000E+00 -0.00000000000E+00 -0.68659690798E+02  0.68659690798E+02  0.00000000000E+00 0. -1.
          6    1    1    2  502    0 -0.19429345023E+02  0.42678099491E+01  0.12841488169E+03  0.21636796318E+03  0.17300000000E+03 0.  1.
         -6    1    1    2    0  501  0.19429345023E+02 -0.42678099491E+01  0.28245667592E+03  0.33182297603E+03  0.17300000000E+03 0. -1.
</event>
<event>
 4    1  0.1116913E+000  0.1000000E+03  0.7546771E-02  0.1280296E+00
          2   -1    0    0  502    0  0.00000000000E+00  0.00000000000E+00  0.99398608031E+02  0.99398608031E+02  0.00000000000E+00 0.  1.
         -2   -1    0    0    0  501 -0.00000000000E+00 -0.00000000000E+00 -0.53294862558E+03  0.53294862558E+03  0.00000000000E+00 0. -1.
          6    1    1    2  502    0  0.21138027722E+02 -0.11721245763E+03 -0.87473333590E+02  0.22752178034E+03  0.17300000000E+03 0.  1.
         -6    1    1    2    0  501 -0.21138027722E+02  0.11721245763E+03 -0.34607668396E+03  0.40482545327E+03  0.17300000000E+03 0. -1.
</event>
<event>
 4    1  0.1116913E+000  0.1000000E+03  0.7546771E-02  0.1280296E+00
         -2   -1    0    0    0  501 -0.00000000000E+00  0.00000000000E+00  0.10221209348E+03  0.10221209348E+03  0.00000000000E+00 0. -1.
          2   -1    0    0  502    0  0.00000000000E+00 -0.00000000000E+00 -0.16923467284E+04  0.16923467284E+04  0.00000000000E+00 0.  1.
          6    1    1    2  502    0 -0.16806591310E+03  0.61879157794E+02 -0.15137592071E+04  0.15341027079E+04  0.17300000000E+03 0. -1.
         -6    1    1    2    0  501  0.16806591310E+03 -0.61879157794E+02 -0.76375427758E+02  0.26045611392E+03  0.17300000000E+03 0. -1.
</event>
<event>
 4    1  0.1116913E+000  0.1000000E+03  0.7546771E-02  0.1280296E+00
         -1   -1    0    0    0  501 -0.00000000000E+00  0.00000000000E+00  0.33997977892E+02  0.33997977892E+02  0.00000000000E+00 0. -1.
          1   -1    0    0  502    0  0.00000000000E+00 -0.00000000000E+00 -0.30320948802E+04  0.30320948802E+04  0.00000000000E+00 0.  1.
          6    1    1    2  502    0  0.10301513490E+03  0.16004866639E+03 -0.58148179593E+03  0.63582841446E+03  0.17300000000E+03 0.  1.
         -6    1    1    2    0  501 -0.10301513490E+03 -0.16004866639E+03 -0.24166151064E+04  0.24302644437E+04  0.17300000000E+03 0. -1.
</event>
<event>
 4    1  0.1116913E+000  0.1000000E+03  0.7546771E-02  0.1280296E+00
         -2   -1    0    0    0  501 -0.00000000000E+00  0.00000000000E+00  0.39154640316E+02  0.39154640316E+02  0.00000000000E+00 0. -1.
          2   -1    0    0  502    0  0.00000000000E+00 -0.00000000000E+00 -0.24511795264E+04  0.24511795264E+04  0.00000000000E+00 0.  1.
          6    1    1    2  502    0  0.89339612301E+02  0.24075603426E+03 -0.12464093935E+04  0.12842937400E+04  0.17300000000E+03 0.  1.
         -6    1    1    2    0  501 -0.89339612301E+02 -0.24075603426E+03 -0.11656154926E+04  0.12060404267E+04  0.17300000000E+03 0. -1.
</event>
<event>
 4    1  0.1116913E+000  0.1000000E+03  0.7546771E-02  0.1280296E+00
          1   -1    0    0  502    0  0.00000000000E+00  0.00000000000E+00  0.10123556913E+04  0.10123556913E+04  0.00000000000E+00 0. -1.
         -1   -1    0    0    0  501 -0.00000000000E+00 -0.00000000000E+00 -0.11545033313E+03  0.11545033313E+03  0.00000000000E+00 0.  1.
          6    1    1    2  502    0  0.13181467503E+03  0.16272399126E+03  0.10604253497E+03  0.29159599639E+03  0.17300000000E+03 0. -1.
         -6    1    1    2    0  501 -0.13181467503E+03 -0.16272399126E+03  0.79086282314E+03  0.83621002799E+03  0.17300000000E+03 0.  1.
</event>
<event>
 4    1  0.1116913E+000  0.1000000E+03  0.7546771E-02  0.1280296E+00
          2   -1    0    0  502    0  0.00000000000E+00  0.00000000000E+00  0.15169038111E+04  0.15169038111E+04  0.00000000000E+00 0. -1.
         -2   -1    0    0    0  501 -0.00000000000E+00 -0.00000000000E+00 -0.49441215747E+02  0.49441215747E+02  0.00000000000E+00 0.  1.
          6    1    1    2  502    0  0.29037268230E+02 -0.14048045805E+02  0.13366586416E+03  0.22098885442E+03  0.17300000000E+03 0. -1.
         -6    1    1    2    0  501 -0.29037268230E+02  0.14048045805E+02  0.13337967312E+04  0.13453561725E+04  0.17300000000E+03 0.  1.
</event>
<event>
 4    1  0.1116913E+000  0.1000000E+03  0.7546771E-02  0.1280296E+00
          2   -1    0    0  502    0  0.00000000000E+00  0.00000000000E+00  0.61278918628E+02  0.61278918628E+02  0.00000000000E+00 0. -1.
         -2   -1    0    0    0  501 -0.00000000000E+00 -0.00000000000E+00 -0.92464877635E+03  0.92464877635E+03  0.00000000000E+00 0.  1.
          6    1    1    2  502    0  0.17257311372E+02 -0.16257564162E+03 -0.43573420986E+03  0.49650977401E+03  0.17300000000E+03 0. -1.
         -6    1    1    2    0  501 -0.17257311372E+02  0.16257564162E+03 -0.42763564786E+03  0.48941792097E+03  0.17300000000E+03 0.  1.
</event>
<event>
 4    1  0.1116913E+000  0.1000000E+03  0.7546771E-02  0.1280296E+00
          2   -1    0    0  502    0  0.00000000000E+00  0.00000000000E+00  0.92785201134E+02  0.92785201134E+02  0.00000000000E+00 0. -1.
         -2   -1    0    0    0  501 -0.00000000000E+00 -0.00000000000E+00 -0.45068128566E+03  0.45068128566E+03  0.00000000000E+00 0.  1.
          6    1    1    2  502    0 -0.62732596934E+01  0.56472257115E+02 -0.55295049219E+02  0.19030242268E+03  0.17300000000E+03 0. -1.
         -6    1    1    2    0  501  0.62732596934E+01 -0.56472257115E+02 -0.30260103531E+03  0.35316406411E+03  0.17300000000E+03 0.  1.
</event>
<event>
 4    1  0.1116913E+000  0.1000000E+03  0.7546771E-02  0.1280296E+00
          2   -1    0    0  502    0  0.00000000000E+00  0.00000000000E+00  0.24519421422E+03  0.24519421422E+03  0.00000000000E+00 0. -1.
         -2   -1    0    0    0  501 -0.00000000000E+00 -0.00000000000E+00 -0.22386956645E+03  0.22386956645E+03  0.00000000000E+00 0.  1.
          6    1    1    2  502    0 -0.10880689543E+03  0.11303480252E+03 -0.79772426093E+01  0.23368449558E+03  0.17300000000E+03 0. -1.
         -6    1    1    2    0  501  0.10880689543E+03 -0.11303480252E+03  0.29301890383E+02  0.23537928510E+03  0.17300000000E+03 0.  1.
</event>
<event>
 4    1  0.1116913E+000  0.1000000E+03  0.7546771E-02  0.1280296E+00
          1   -1    0    0  502    0  0.00000000000E+00  0.00000000000E+00  0.20038061510E+03  0.20038061510E+03  0.00000000000E+00 0. -1.
         -1   -1    0    0    0  501 -0.00000000000E+00 -0.00000000000E+00 -0.27385838679E+03  0.27385838679E+03  0.00000000000E+00 0.  1.
          6    1    1    2  502    0  0.32796402978E+02  0.13460055178E+03 -0.11352121874E+03  0.24901602296E+03  0.17300000000E+03 0. -1.
         -6    1    1    2    0  501 -0.32796402978E+02 -0.13460055178E+03  0.40043447040E+02  0.22522297893E+03  0.17300000000E+03 0.  1.
</event>
<event>
 4    1  0.1116913E+000  0.1000000E+03  0.7546771E-02  0.1280296E+00
         -1   -1    0    0    0  501 -0.00000000000E+00  0.00000000000E+00  0.37714544101E+02  0.37714544101E+02  0.00000000000E+00 0.  1.
          1   -1    0    0  502    0  0.00000000000E+00 -0.00000000000E+00 -0.16671769441E+04  0.16671769441E+04  0.00000000000E+00 0. -1.
          6    1    1    2  502    0  0.52685263381E+02  0.13195536600E+03 -0.43071948808E+03  0.48542376642E+03  0.17300000000E+03 0. -1.
         -6    1    1    2    0  501 -0.52685263381E+02 -0.13195536600E+03 -0.11987429119E+04  0.12194677218E+04  0.17300000000E+03 0.  1.
</event>
<event>
 4    1  0.1116913E+000  0.1000000E+03  0.7546771E-02  0.1280296E+00
         -4   -1    0    0    0  501 -0.00000000000E+00  0.00000000000E+00  0.73156749384E+03  0.73156749384E+03  0.00000000000E+00 0.  1.
          4   -1    0    0  502    0  0.00000000000E+00 -0.00000000000E+00 -0.52780733394E+02  0.52780733394E+02  0.00000000000E+00 0. -1.
          6    1    1    2  502    0  0.58975065319E+02 -0.21630486399E+02  0.20202104368E+03  0.27329002609E+03  0.17300000000E+03 0. -1.
         -6    1    1    2    0  501 -0.58975065319E+02  0.21630486399E+02  0.47676571677E+03  0.51105820115E+03  0.17300000000E+03 0.  1.
</event>
<event>
 4    1  0.1116913E+000  0.1000000E+03  0.7546771E-02  0.1280296E+00
         -2   -1    0    0    0  501 -0.00000000000E+00  0.00000000000E+00  0.63577262198E+02  0.63577262198E+02  0.00000000000E+00 0.  1.
          2   -1    0    0  502    0  0.00000000000E+00 -0.00000000000E+00 -0.15419236795E+04  0.15419236795E+04  0.00000000000E+00 0. -1.
          6    1    1    2  502    0 -0.17543455939E+03 -0.13112842104E+03 -0.11029405945E+04  0.11377077404E+04  0.17300000000E+03 0. -1.
         -6    1    1    2    0  501  0.17543455939E+03  0.13112842104E+03 -0.37540582274E+03  0.46779320130E+03  0.17300000000E+03 0.  1.
</event>
<event>
 4    1  0.1116913E+000  0.1000000E+03  0.7546771E-02  0.1280296E+00
         -2   -1    0    0    0  501 -0.00000000000E+00  0.00000000000E+00  0.12889094839E+02  0.12889094839E+02  0.00000000000E+00 0.  1.
          2   -1    0    0  502    0  0.00000000000E+00 -0.00000000000E+00 -0.24752464129E+04  0.24752464129E+04  0.00000000000E+00 0. -1.
          6    1    1    2  502    0  0.17271469939E+02 -0.30087523377E+02 -0.10377657573E+04  0.10526586957E+04  0.17300000000E+03 0. -1.
         -6    1    1    2    0  501 -0.17271469939E+02  0.30087523377E+02 -0.14245915608E+04  0.14354768121E+04  0.17300000000E+03 0.  1.
</event>
<event>
 4    1  0.1116913E+000  0.1000000E+03  0.7546771E-02  0.1280296E+00
          1   -1    0    0  502    0  0.00000000000E+00  0.00000000000E+00  0.66783607274E+03  0.66783607274E+03  0.00000000000E+00 0. -1.
         -1   -1    0    0    0  501 -0.00000000000E+00 -0.00000000000E+00 -0.88680328297E+02  0.88680328297E+02  0.00000000000E+00 0.  1.
          6    1    1    2  502    0 -0.97818166021E+02  0.13764045757E+03  0.33303301861E+03  0.41152555285E+03  0.17300000000E+03 0.  1.
         -6    1    1    2    0  501  0.97818166021E+02 -0.13764045757E+03  0.24612272583E+03  0.34499084819E+03  0.17300000000E+03 0.  1.
</event>
<event>
 4    1  0.1116913E+000  0.1000000E+03  0.7546771E-02  0.1280296E+00
          1   -1    0    0  502    0  0.00000000000E+00  0.00000000000E+00  0.20248061310E+03  0.20248061310E+03  0.00000000000E+00 0. -1.
         -1   -1    0    0    0  501 -0.00000000000E+00 -0.00000000000E+00 -0.39578341396E+03  0.39578341396E+03  0.00000000000E+00 0.  1.
          6    1    1    2  502    0 -0.10802878354E+03  0.19475573009E+03 -0.12273776124E+03  0.30756067777E+03  0.17300000000E+03 0.  1.
         -6    1    1    2    0  501  0.10802878354E+03 -0.19475573009E+03 -0.70565039623E+02  0.29070334929E+03  0.17300000000E+03 0.  1.
</event>
<event>
 4    1  0.1116913E+000  0.1000000E+03  0.7546771E-02  0.1280296E+00
          2   -1    0    0  502    0  0.00000000000E+00  0.00000000000E+00  0.23305796675E+03  0.23305796675E+03  0.00000000000E+00 0.  1.
         -2   -1    0    0    0  501 -0.00000000000E+00 -0.00000000000E+00 -0.21073028838E+03  0.21073028838E+03  0.00000000000E+00 0. -1.
          6    1    1    2  502    0  0.93006982167E+02 -0.95906344086E+02  0.47748465632E+02  0.22373475711E+03  0.17300000000E+03 0. -1.
         -6    1    1    2    0  501 -0.93006982167E+02  0.95906344086E+02 -0.25420787261E+02  0.22005349802E+03  0.17300000000E+03 0. -1.
</event>
<event>
 4    1  0.1116913E+000  0.1000000E+03  0.7546771E-02  0.1280296E+00
         -1   -1    0    0    0  501 -0.00000000000E+00  0.00000000000E+00  0.11217842745E+04  0.11217842745E+04  0.00000000000E+00 0.  1.
          1   -1    0    0  502    0  0.00000000000E+00 -0.00000000000E+00 -0.43173758748E+02  0.43173758748E+02  0.00000000000E+00 0. -1.
          6    1    1    2  502    0  0.10878509212E+03  0.74028010435E+02  0.44806659355E+03  0.49800302695E+03  0.17300000000E+03 0. -1.
         -6    1    1    2    0  501 -0.10878509212E+03 -0.74028010435E+02  0.63054392217E+03  0.66695500627E+03  0.17300000000E+03 0.  1.
</event>
<event>
 4    1  0.1116913E+000  0.1000000E+03  0.7546771E-02  0.1280296E+00
         -1   -1    0    0    0  501 -0.00000000000E+00  0.00000000000E+00  0.21481933855E+03  0.21481933855E+03  0.00000000000E+00 0.  1.
          1   -1    0    0  502    0  0.00000000000E+00 -0.00000000000E+00 -0.22892089719E+03  0.22892089719E+03  0.00000000000E+00 0. -1.
          6    1    1    2  502    0 -0.17058724836E+02 -0.13767085143E+03 -0.88880860957E+01  0.22192850538E+03  0.17300000000E+03 0. -1.
         -6    1    1    2    0  501  0.17058724836E+02  0.13767085143E+03 -0.52134725435E+01  0.22181173036E+03  0.17300000000E+03 0.  1.
</event>
<event>
 4    1  0.1116913E+000  0.1000000E+03  0.7546771E-02  0.1280296E+00
         -2   -1    0    0    0  501 -0.00000000000E+00  0.00000000000E+00  0.20238003672E+02  0.20238003672E+02  0.00000000000E+00 0.  1.
          2   -1    0    0  502    0  0.00000000000E+00 -0.00000000000E+00 -0.22203013450E+04  0.22203013450E+04  0.00000000000E+00 0. -1.
          6    1    1    2  502    0  0.33334933659E+02 -0.11676356715E+03 -0.10147310975E+04  0.10365100813E+04  0.17300000000E+03 0. -1.
         -6    1    1    2    0  501 -0.33334933659E+02  0.11676356715E+03 -0.11853322438E+04  0.12040292673E+04  0.17300000000E+03 0.  1.
</event>
<event>
 4    1  0.1116913E+000  0.1000000E+03  0.7546771E-02  0.1280296E+00
         -2   -1    0    0    0  501 -0.00000000000E+00  0.00000000000E+00  0.29724930940E+03  0.29724930940E+03  0.00000000000E+00 0.  1.
          2   -1    0    0  502    0  0.00000000000E+00 -0.00000000000E+00 -0.24786583842E+03  0.24786583842E+03  0.00000000000E+00 0. -1.
          6    1    1    2  502    0  0.32286310049E+02  0.12196398912E+02 -0.18245544694E+03  0.25379154455E+03  0.17300000000E+03 0. -1.
         -6    1    1    2    0  501 -0.32286310049E+02 -0.12196398912E+02  0.23183891792E+03  0.29132360328E+03  0.17300000000E+03 0. -1.
</event>
<event>
 4    1  0.1116913E+000  0.1000000E+03  0.7546771E-02  0.1280296E+00
          1   -1    0    0  502    0  0.00000000000E+00  0.00000000000E+00  0.77709577370E+03  0.77709577370E+03  0.00000000000E+00 0. -1.
         -1   -1    0    0    0  501 -0.00000000000E+00 -0.00000000000E+00 -0.21910981026E+03  0.21910981026E+03  0.00000000000E+00 0.  1.
          6    1    1    2  502    0 -0.35878655104E+03 -0.86697587659E+02  0.35624916278E+03  0.54137484878E+03  0.17300000000E+03 0. -1.
         -6    1    1    2    0  501  0.35878655104E+03  0.86697587659E+02  0.20173680066E+03  0.45483073517E+03  0.17300000000E+03 0.  1.
</event>
<event>
 4    1  0.1116913E+000  0.1000000E+03  0.7546771E-02  0.1280296E+00
          1   -1    0    0  502    0  0.00000000000E+00  0.00000000000E+00  0.65543462826E+03  0.65543462826E+03  0.00000000000E+00 0. -1.
         -1   -1    0    0    0  501 -0.00000000000E+00 -0.00000000000E+00 -0.54639882183E+02  0.54639882183E+02  0.00000000000E+00 0.  1.
          6    1    1    2  502    0  0.96132622972E+01  0.41719447231E+02  0.41980510981E+03  0.45606825949E+03  0.17300000000E+03 0. -1.
         -6    1    1    2    0  501 -0.96132622972E+01 -0.41719447231E+02  0.18098963627E+03  0.25400625096E+03  0.17300000000E+03 0.  1.
</event>
<event>
 4    1  0.1116913E+000  0.1000000E+03  0.7546771E-02  0.1280296E+00
          1   -1    0    0  502    0  0.00000000000E+00  0.00000000000E+00  0.10895953588E+04  0.10895953588E+04  0.00000000000E+00 0.  1.
         -1   -1    0    0    0  501 -0.00000000000E+00 -0.00000000000E+00 -0.30976988799E+02  0.30976988799E+02  0.00000000000E+00 0. -1.
          6    1    1    2  502    0  0.21640240023E+02  0.27880519243E+02  0.68414767026E+03  0.70656398016E+03  0.17300000000E+03 0.  1.
         -6    1    1    2    0  501 -0.21640240023E+02 -0.27880519243E+02  0.37447069974E+03  0.41400836743E+03  0.17300000000E+03 0. -1.
</event>
<event>
 4    1  0.1116913E+000  0.1000000E+03  0.7546771E-02  0.1280296E+00
          2   -1    0    0  502    0  0.00000000000E+00  0.00000000000E+00  0.61981690313E+03  0.61981690313E+03  0.00000000000E+00 0.  1.
         -2   -1    0    0    0  501 -0.00000000000E+00 -0.00000000000E+00 -0.20674498071E+03  0.20674498071E+03  0.00000000000E+00 0. -1.
          6    1    1    2  502    0 -0.26562427742E+03 -0.12376509461E+03  0.33478997854E+03  0.47737551794E+03  0.17300000000E+03 0.  1.
         -6    1    1    2    0  501  0.26562427742E+03  0.12376509461E+03  0.78281943878E+02  0.34918636590E+03  0.17300000000E+03 0. -1.
</event>
<event>
 4    1  0.1116913E+000  0.1000000E+03  0.7546771E-02  0.1280296E+00
          2   -1    0    0  502    0  0.00000000000E+00  0.00000000000E+00  0.63363863097E+03  0.63363863097E+03  0.00000000000E+00 0.  1.
         -2   -1    0    0    0  501 -0.00000000000E+00 -0.00000000000E+00 -0.82075555851E+02  0.82075555851E+02  0.00000000000E+00 0. -1.
          6    1    1    2  502    0  0.55765238715E+02 -0.95180226247E+02  0.11958212591E+03  0.23748246704E+03  0.17300000000E+03 0.  1.
         -6    1    1    2    0  501 -0.55765238715E+02  0.95180226247E+02  0.43198094921E+03  0.47823171978E+03  0.17300000000E+03 0. -1.
</event>
<event>
 4    1  0.1116913E+000  0.1000000E+03  0.7546771E-02  0.1280296E+00
          1   -1    0    0  502    0  0.00000000000E+00  0.00000000000E+00  0.78478725438E+03  0.78478725438E+03  0.00000000000E+00 0.  1.
         -1   -1    0    0    0  501 -0.00000000000E+00 -0.00000000000E+00 -0.10923600647E+03  0.10923600647E+03  0.00000000000E+00 0. -1.
          6    1    1    2  502    0 -0.73292930351E+02 -0.22182558595E+03  0.28445866915E+03  0.40672371295E+03  0.17300000000E+03 0.  1.
         -6    1    1    2    0  501  0.73292930351E+02  0.22182558595E+03  0.39109257875E+03  0.48729954789E+03  0.17300000000E+03 0. -1.
</event>
<event>
 4    1  0.1116913E+000  0.1000000E+03  0.7546771E-02  0.1280296E+00
          2   -1    0    0  502    0  0.00000000000E+00  0.00000000000E+00  0.77443617740E+03  0.77443617740E+03  0.00000000000E+00 0.  1.
         -2   -1    0    0    0  501 -0.00000000000E+00 -0.00000000000E+00 -0.41060726653E+02  0.41060726653E+02  0.00000000000E+00 0. -1.
          6    1    1    2  502    0  0.12335406206E+02  0.40967147943E+02  0.38104822963E+03  0.42066283739E+03  0.17300000000E+03 0.  1.
         -6    1    1    2    0  501 -0.12335406206E+02 -0.40967147943E+02  0.35232722111E+03  0.39483406666E+03  0.17300000000E+03 0. -1.
</event>
<event>
 4    1  0.1116913E+000  0.1000000E+03  0.7546771E-02  0.1280296E+00
          2   -1    0    0  502    0  0.00000000000E+00  0.00000000000E+00  0.15548198606E+04  0.15548198606E+04  0.00000000000E+00 0. -1.
         -2   -1    0    0    0  501 -0.00000000000E+00 -0.00000000000E+00 -0.74808906324E+02  0.74808906324E+02  0.00000000000E+00 0.  1.
          6    1    1    2  502    0  0.14790074262E+03 -0.19799718357E+03  0.11200808207E+04  0.11599946376E+04  0.17300000000E+03 0. -1.
         -6    1    1    2    0  501 -0.14790074262E+03  0.19799718357E+03  0.35993013358E+03  0.46963412933E+03  0.17300000000E+03 0.  1.
</event>
<event>
 4    1  0.1116913E+000  0.1000000E+03  0.7546771E-02  0.1280296E+00
          1   -1    0    0  502    0  0.00000000000E+00  0.00000000000E+00  0.25937638313E+04  0.25937638313E+04  0.00000000000E+00 0. -1.
         -1   -1    0    0    0  501 -0.00000000000E+00 -0.00000000000E+00 -0.51800618866E+02  0.51800618866E+02  0.00000000000E+00 0.  1.
          6    1    1    2  502    0 -0.28172715179E+03  0.53714472731E+02  0.18083585689E+04  0.18391153162E+04  0.17300000000E+03 0. -1.
         -6    1    1    2    0  501  0.28172715179E+03 -0.53714472731E+02  0.73360464360E+03  0.80644913402E+03  0.17300000000E+03 0.  1.
</event>
<event>
 4    1  0.1116913E+000  0.1000000E+03  0.7546771E-02  0.1280296E+00
          2   -1    0    0  502    0  0.00000000000E+00  0.00000000000E+00  0.58931925618E+03  0.58931925618E+03  0.00000000000E+00 0. -1.
         -2   -1    0    0    0  501 -0.00000000000E+00 -0.00000000000E+00 -0.87813668710E+02  0.87813668710E+02  0.00000000000E+00 0.  1.
          6    1    1    2  502    0 -0.86367107575E+01 -0.13775365781E+03  0.32909147741E+03  0.39658651454E+03  0.17300000000E+03 0. -1.
         -6    1    1    2    0  501  0.86367107575E+01  0.13775365781E+03  0.17241411006E+03  0.28054641035E+03  0.17300000000E+03 0.  1.
</event>
<event>
 4    1  0.1116913E+000  0.1000000E+03  0.7546771E-02  0.1280296E+00
         -2   -1    0    0    0  501 -0.00000000000E+00  0.00000000000E+00  0.44796398428E+02  0.44796398428E+02  0.00000000000E+00 0.  1.
          2   -1    0    0  502    0  0.00000000000E+00 -0.00000000000E+00 -0.10293988103E+04  0.10293988103E+04  0.00000000000E+00 0. -1.
          6    1    1    2  502    0 -0.50951432764E+02  0.44961494194E+02 -0.22330511134E+03  0.29053701522E+03  0.17300000000E+03 0. -1.
         -6    1    1    2    0  501  0.50951432764E+02 -0.44961494194E+02 -0.76129730058E+03  0.78365819356E+03  0.17300000000E+03 0.  1.
</event>
<event>
 4    1  0.1116913E+000  0.1000000E+03  0.7546771E-02  0.1280296E+00
          1   -1    0    0  502    0  0.00000000000E+00  0.00000000000E+00  0.13589337660E+03  0.13589337660E+03  0.00000000000E+00 0.  1.
         -1   -1    0    0    0  501 -0.00000000000E+00 -0.00000000000E+00 -0.29736228335E+03  0.29736228335E+03  0.00000000000E+00 0. -1.
          6    1    1    2  502    0  0.58534313424E+02  0.59471392811E+02 -0.16821884430E+02  0.19280842359E+03  0.17300000000E+03 0.  1.
         -6    1    1    2    0  501 -0.58534313424E+02 -0.59471392811E+02 -0.14464702232E+03  0.24044723637E+03  0.17300000000E+03 0. -1.
</event>
<event>
 4    1  0.1116913E+000  0.1000000E+03  0.7546771E-02  0.1280296E+00
          1   -1    0    0  502    0  0.00000000000E+00  0.00000000000E+00  0.21937905391E+04  0.21937905391E+04  0.00000000000E+00 0.  1.
         -1   -1    0    0    0  501 -0.00000000000E+00 -0.00000000000E+00 -0.21499806133E+02  0.21499806133E+02  0.00000000000E+00 0. -1.
          6    1    1    2  502    0  0.27659763700E+02  0.10444343197E+03  0.70572574516E+03  0.73460963810E+03  0.17300000000E+03 0.  1.
         -6    1    1    2    0  501 -0.27659763700E+02 -0.10444343197E+03  0.14665649878E+04  0.14806807071E+04  0.17300000000E+03 0. -1.
</event>
<event>
 4    1  0.1116913E+000  0.1000000E+03  0.7546771E-02  0.1280296E+00
          1   -1    0    0  502    0  0.00000000000E+00  0.00000000000E+00  0.52215576934E+02  0.52215576934E+02  0.00000000000E+00 0.  1.
         -1   -1    0    0    0  501 -0.00000000000E+00 -0.00000000000E+00 -0.92147289752E+03  0.92147289752E+03  0.00000000000E+00 0. -1.
          6    1    1    2  502    0 -0.35354050335E+01  0.46114215614E+02 -0.15347185501E+03  0.23584238434E+03  0.17300000000E+03 0.  1.
         -6    1    1    2    0  501  0.35354050335E+01 -0.46114215614E+02 -0.71578546557E+03  0.73784609011E+03  0.17300000000E+03 0. -1.
</event>
<event>
 4    1  0.1116913E+000  0.1000000E+03  0.7546771E-02  0.1280296E+00
          2   -1    0    0  502    0  0.00000000000E+00  0.00000000000E+00  0.13436907402E+03  0.13436907402E+03  0.00000000000E+00 0.  1.
         -2   -1    0    0    0  501 -0.00000000000E+00 -0.00000000000E+00 -0.23999326591E+03  0.23999326591E+03  0.00000000000E+00 0. -1.
          6    1    1    2  502    0 -0.43786678377E+02  0.17933003922E+02 -0.62123896675E+02  0.18980844125E+03  0.17300000000E+03 0.  1.
         -6    1    1    2    0  501  0.43786678377E+02 -0.17933003922E+02 -0.43500295209E+02  0.18455389868E+03  0.17300000000E+03 0. -1.
</event>
<event>
 4    1  0.1116913E+000  0.1000000E+03  0.7546771E-02  0.1280296E+00
          1   -1    0    0  502    0  0.00000000000E+00  0.00000000000E+00  0.35101796453E+03  0.35101796453E+03  0.00000000000E+00 0. -1.
         -1   -1    0    0    0  501 -0.00000000000E+00 -0.00000000000E+00 -0.21562958078E+03  0.21562958078E+03  0.00000000000E+00 0.  1.
          6    1    1    2  502    0 -0.26623265836E+02  0.10505879489E+03  0.25762593226E+03  0.32870392398E+03  0.17300000000E+03 0. -1.
         -6    1    1    2    0  501  0.26623265836E+02 -0.10505879489E+03 -0.12223754850E+03  0.23794362133E+03  0.17300000000E+03 0.  1.
</event>
<event>
 4    1  0.1116913E+000  0.1000000E+03  0.7546771E-02  0.1280296E+00
          2   -1    0    0  502    0  0.00000000000E+00  0.00000000000E+00  0.43458710901E+03  0.43458710901E+03  0.00000000000E+00 0. -1.
         -2   -1    0    0    0  501 -0.00000000000E+00 -0.00000000000E+00 -0.17959208283E+03  0.17959208283E+03  0.00000000000E+00 0.  1.
          6    1    1    2  502    0 -0.89547252868E+02  0.19021267749E+03  0.19631784388E+03  0.33566243311E+03  0.17300000000E+03 0. -1.
         -6    1    1    2    0  501  0.89547252868E+02 -0.19021267749E+03  0.58677182304E+02  0.27851675874E+03  0.17300000000E+03 0.  1.
</event>
<event>
 4    1  0.1116913E+000  0.1000000E+03  0.7546771E-02  0.1280296E+00
         -2   -1    0    0    0  501 -0.00000000000E+00  0.00000000000E+00  0.13091653880E+02  0.13091653880E+02  0.00000000000E+00 0. -1.
          2   -1    0    0  502    0  0.00000000000E+00 -0.00000000000E+00 -0.23555809264E+04  0.23555809264E+04  0.00000000000E+00 0.  1.
          6    1    1    2  502    0 -0.10812876034E+02  0.23928944006E+02 -0.12712626977E+04  0.12832487519E+04  0.17300000000E+03 0.  1.
         -6    1    1    2    0  501  0.10812876034E+02 -0.23928944006E+02 -0.10712265749E+04  0.10854238284E+04  0.17300000000E+03 0. -1.
</event>
<event>
 4    1  0.1116913E+000  0.1000000E+03  0.7546771E-02  0.1280296E+00
         -2   -1    0    0    0  501 -0.00000000000E+00  0.00000000000E+00  0.67686180519E+02  0.67686180519E+02  0.00000000000E+00 0. -1.
          2   -1    0    0  502    0  0.00000000000E+00 -0.00000000000E+00 -0.81520933993E+03  0.81520933993E+03  0.00000000000E+00 0.  1.
          6    1    1    2  502    0 -0.42577605571E+02 -0.15239493588E+03 -0.34637686907E+03  0.41826188495E+03  0.17300000000E+03 0.  1.
         -6    1    1    2    0  501  0.42577605571E+02  0.15239493588E+03 -0.40114629035E+03  0.46463363550E+03  0.17300000000E+03 0. -1.
</event>
<event>
 4    1  0.1116913E+000  0.1000000E+03  0.7546771E-02  0.1280296E+00
          1   -1    0    0  502    0  0.00000000000E+00  0.00000000000E+00  0.67884897781E+03  0.67884897781E+03  0.00000000000E+00 0.  1.
         -1   -1    0    0    0  501 -0.00000000000E+00 -0.00000000000E+00 -0.95519045574E+02  0.95519045574E+02  0.00000000000E+00 0. -1.
          6    1    1    2  502    0  0.36939563318E+02 -0.13021242024E+03  0.95796729464E+02  0.23963684837E+03  0.17300000000E+03 0.  1.
         -6    1    1    2    0  501 -0.36939563318E+02  0.13021242024E+03  0.48753320277E+03  0.53473117501E+03  0.17300000000E+03 0. -1.
</event>
<event>
 4    1  0.1116913E+000  0.1000000E+03  0.7546771E-02  0.1280296E+00
          2   -1    0    0  502    0  0.00000000000E+00  0.00000000000E+00  0.23592058087E+03  0.23592058087E+03  0.00000000000E+00 0.  1.
         -2   -1    0    0    0  501 -0.00000000000E+00 -0.00000000000E+00 -0.20089156388E+03  0.20089156388E+03  0.00000000000E+00 0. -1.
          6    1    1    2  502    0 -0.84878799739E+02 -0.45223808884E+02 -0.73419685031E+02  0.21111384058E+03  0.17300000000E+03 0.  1.
         -6    1    1    2    0  501  0.84878799739E+02  0.45223808884E+02  0.10844870202E+03  0.22569830417E+03  0.17300000000E+03 0. -1.
</event>
<event>
 4    1  0.1116913E+000  0.1000000E+03  0.7546771E-02  0.1280296E+00
          2   -1    0    0  502    0  0.00000000000E+00  0.00000000000E+00  0.14057806909E+03  0.14057806909E+03  0.00000000000E+00 0.  1.
         -2   -1    0    0    0  501 -0.00000000000E+00 -0.00000000000E+00 -0.45778985683E+03  0.45778985683E+03  0.00000000000E+00 0. -1.
          6    1    1    2  502    0  0.20573223945E+02  0.14481832399E+02 -0.37540690968E+03  0.41411632285E+03  0.17300000000E+03 0.  1.
         -6    1    1    2    0  501 -0.20573223945E+02 -0.14481832399E+02  0.58195121946E+02  0.18425160306E+03  0.17300000000E+03 0. -1.
</event>
<event>
 4    1  0.1116913E+000  0.1000000E+03  0.7546771E-02  0.1280296E+00
          2   -1    0    0  502    0  0.00000000000E+00  0.00000000000E+00  0.13252648047E+03  0.13252648047E+03  0.00000000000E+00 0.  1.
         -2   -1    0    0    0  501 -0.00000000000E+00 -0.00000000000E+00 -0.22943195681E+03  0.22943195681E+03  0.00000000000E+00 0. -1.
          6    1    1    2  502    0  0.12301038925E+02 -0.18039580801E+02 -0.48722806456E+02  0.18105152279E+03  0.17300000000E+03 0.  1.
         -6    1    1    2    0  501 -0.12301038925E+02  0.18039580801E+02 -0.48182669889E+02  0.18090691449E+03  0.17300000000E+03 0. -1.
</event>
<event>
 4    1  0.1116913E+000  0.1000000E+03  0.7546771E-02  0.1280296E+00
          2   -1    0    0  502    0  0.00000000000E+00  0.00000000000E+00  0.28071675449E+03  0.28071675449E+03  0.00000000000E+00 0.  1.
         -2   -1    0    0    0  501 -0.00000000000E+00 -0.00000000000E+00 -0.17129609200E+03  0.17129609200E+03  0.00000000000E+00 0. -1.
          6    1    1    2  502    0  0.88310240640E+02  0.49657646045E+02 -0.36850399203E+02  0.20384192977E+03  0.17300000000E+03 0.  1.
         -6    1    1    2    0  501 -0.88310240640E+02 -0.49657646045E+02  0.14627106170E+03  0.24817091671E+03  0.17300000000E+03 0. -1.
</event>
<event>
 4    1  0.1116913E+000  0.1000000E+03  0.7546771E-02  0.1280296E+00
          2   -1    0    0  502    0  0.00000000000E+00  0.00000000000E+00  0.21713984298E+04  0.21713984298E+04  0.00000000000E+00 0.  1.
         -2   -1    0    0    0  501 -0.00000000000E+00 -0.00000000000E+00 -0.21880382316E+02  0.21880382316E+02  0.00000000000E+00 0. -1.
          6    1    1    2  502    0  0.64485207749E+02  0.83800451146E+02  0.14772872330E+04  0.14911362870E+04  0.17300000000E+03 0.  1.
         -6    1    1    2    0  501 -0.64485207749E+02 -0.83800451146E+02  0.67223081450E+03  0.70214252513E+03  0.17300000000E+03 0. -1.
</event>
<event>
 4    1  0.1116913E+000  0.1000000E+03  0.7546771E-02  0.1280296E+00
          3   -1    0    0  502    0  0.00000000000E+00  0.00000000000E+00  0.69564590500E+02  0.69564590500E+02  0.00000000000E+00 0.  1.
         -3   -1    0    0    0  501 -0.00000000000E+00 -0.00000000000E+00 -0.18096626056E+04  0.18096626056E+04  0.00000000000E+00 0. -1.
          6    1    1    2  502    0 -0.60620714666E+02 -0.26750104685E+03 -0.12513189113E+04  0.12926560637E+04  0.17300000000E+03 0.  1.
         -6    1    1    2    0  501  0.60620714666E+02  0.26750104685E+03 -0.48877910380E+03  0.58657113246E+03  0.17300000000E+03 0. -1.
</event>
<event>
 4    1  0.1116913E+000  0.1000000E+03  0.7546771E-02  0.1280296E+00
         -2   -1    0    0    0  501 -0.00000000000E+00  0.00000000000E+00  0.15276976267E+03  0.15276976267E+03  0.00000000000E+00 0. -1.
          2   -1    0    0  502    0  0.00000000000E+00 -0.00000000000E+00 -0.23575450829E+03  0.23575450829E+03  0.00000000000E+00 0.  1.
          6    1    1    2  502    0 -0.37795864084E+02 -0.26387087006E+02 -0.10592652545E+03  0.20802460070E+03  0.17300000000E+03 0.  1.
         -6    1    1    2    0  501  0.37795864084E+02  0.26387087006E+02  0.22941779837E+02  0.18049967026E+03  0.17300000000E+03 0. -1.
</event>
<event>
 4    1  0.1116913E+000  0.1000000E+03  0.7546771E-02  0.1280296E+00
         -2   -1    0    0    0  501 -0.00000000000E+00  0.00000000000E+00  0.37507677712E+02  0.37507677712E+02  0.00000000000E+00 0. -1.
          2   -1    0    0  502    0  0.00000000000E+00 -0.00000000000E+00 -0.14742323236E+04  0.14742323236E+04  0.00000000000E+00 0.  1.
          6    1    1    2  502    0 -0.15540138225E+03 -0.82561181386E+01 -0.82728731483E+03  0.85938993150E+03  0.17300000000E+03 0.  1.
         -6    1    1    2    0  501  0.15540138225E+03  0.82561181386E+01 -0.60943733106E+03  0.65235006981E+03  0.17300000000E+03 0. -1.
</event>
<event>
 4    1  0.1116913E+000  0.1000000E+03  0.7546771E-02  0.1280296E+00
         -2   -1    0    0    0  501 -0.00000000000E+00  0.00000000000E+00  0.25958909224E+03  0.25958909224E+03  0.00000000000E+00 0. -1.
          2   -1    0    0  502    0  0.00000000000E+00 -0.00000000000E+00 -0.13962250420E+03  0.13962250420E+03  0.00000000000E+00 0.  1.
          6    1    1    2  502    0 -0.60628971282E+02 -0.35480885844E+01  0.62450157209E+01  0.18345697401E+03  0.17300000000E+03 0.  1.
         -6    1    1    2    0  501  0.60628971282E+02  0.35480885844E+01  0.11372157231E+03  0.21575462243E+03  0.17300000000E+03 0. -1.
</event>
<event>
 4    1  0.1116913E+000  0.1000000E+03  0.7546771E-02  0.1280296E+00
         -1   -1    0    0    0  501 -0.00000000000E+00  0.00000000000E+00  0.58616555149E+02  0.58616555149E+02  0.00000000000E+00 0. -1.
          1   -1    0    0  502    0  0.00000000000E+00 -0.00000000000E+00 -0.63996204775E+03  0.63996204775E+03  0.00000000000E+00 0.  1.
          6    1    1    2  502    0 -0.43367057141E+01  0.85447650525E+02 -0.26141151024E+03  0.32493858756E+03  0.17300000000E+03 0.  1.
         -6    1    1    2    0  501  0.43367057141E+01 -0.85447650525E+02 -0.31993398236E+03  0.37364001534E+03  0.17300000000E+03 0. -1.
</event>
<event>
 4    1  0.1116913E+000  0.1000000E+03  0.7546771E-02  0.1280296E+00
          2   -1    0    0  502    0  0.00000000000E+00  0.00000000000E+00  0.15290362523E+03  0.15290362523E+03  0.00000000000E+00 0. -1.
         -2   -1    0    0    0  501 -0.00000000000E+00 -0.00000000000E+00 -0.26050885107E+03  0.26050885107E+03  0.00000000000E+00 0.  1.
          6    1    1    2  502    0  0.61695759155E+02 -0.19695709518E+01  0.27044948178E+02  0.18566279953E+03  0.17300000000E+03 0. -1.
         -6    1    1    2    0  501 -0.61695759155E+02  0.19695709518E+01 -0.13465017401E+03  0.22774967677E+03  0.17300000000E+03 0.  1.
</event>
<event>
 4    1  0.1116913E+000  0.1000000E+03  0.7546771E-02  0.1280296E+00
          2   -1    0    0  502    0  0.00000000000E+00  0.00000000000E+00  0.71772804589E+02  0.71772804589E+02  0.00000000000E+00 0. -1.
         -2   -1    0    0    0  501 -0.00000000000E+00 -0.00000000000E+00 -0.64753851685E+03  0.64753851685E+03  0.00000000000E+00 0.  1.
          6    1    1    2  502    0  0.62951238694E+02 -0.21824150308E+02 -0.10431296972E+03  0.21271894049E+03  0.17300000000E+03 0. -1.
         -6    1    1    2    0  501 -0.62951238694E+02  0.21824150308E+02 -0.47145274254E+03  0.50659238095E+03  0.17300000000E+03 0.  1.
</event>
<event>
 4    1  0.1116913E+000  0.1000000E+03  0.7546771E-02  0.1280296E+00
          2   -1    0    0  502    0  0.00000000000E+00  0.00000000000E+00  0.47768027133E+03  0.47768027133E+03  0.00000000000E+00 0. -1.
         -2   -1    0    0    0  501 -0.00000000000E+00 -0.00000000000E+00 -0.17304789835E+03  0.17304789835E+03  0.00000000000E+00 0.  1.
          6    1    1    2  502    0 -0.18006231291E+03  0.11998291953E+03  0.65286607534E+02  0.28462199253E+03  0.17300000000E+03 0. -1.
         -6    1    1    2    0  501  0.18006231291E+03 -0.11998291953E+03  0.23934576545E+03  0.36610617715E+03  0.17300000000E+03 0.  1.
</event>
<event>
 4    1  0.1116913E+000  0.1000000E+03  0.7546771E-02  0.1280296E+00
         -1   -1    0    0    0  501 -0.00000000000E+00  0.00000000000E+00  0.30277278664E+03  0.30277278664E+03  0.00000000000E+00 0. -1.
          1   -1    0    0  502    0  0.00000000000E+00 -0.00000000000E+00 -0.11236878976E+03  0.11236878976E+03  0.00000000000E+00 0.  1.
          6    1    1    2  502    0  0.23612786306E+02 -0.58852848883E+02  0.10475019558E+03  0.21195005301E+03  0.17300000000E+03 0.  1.
         -6    1    1    2    0  501 -0.23612786306E+02  0.58852848883E+02  0.85653801296E+02  0.20319152338E+03  0.17300000000E+03 0. -1.
</event>
<event>
 4    1  0.1116913E+000  0.1000000E+03  0.7546771E-02  0.1280296E+00
         -1   -1    0    0    0  501 -0.00000000000E+00  0.00000000000E+00  0.12272343264E+03  0.12272343264E+03  0.00000000000E+00 0. -1.
          1   -1    0    0  502    0  0.00000000000E+00 -0.00000000000E+00 -0.46945262675E+03  0.46945262675E+03  0.00000000000E+00 0.  1.
          6    1    1    2  502    0  0.70134194288E+02 -0.22037112497E+02  0.10760481373E+02  0.18827965237E+03  0.17300000000E+03 0.  1.
         -6    1    1    2    0  501 -0.70134194288E+02  0.22037112497E+02 -0.35748967548E+03  0.40389640703E+03  0.17300000000E+03 0. -1.
</event>
<event>
 4    1  0.1116913E+000  0.1000000E+03  0.7546771E-02  0.1280296E+00
         -2   -1    0    0    0  501 -0.00000000000E+00  0.00000000000E+00  0.79350934650E+03  0.79350934650E+03  0.00000000000E+00 0. -1.
          2   -1    0    0  502    0  0.00000000000E+00 -0.00000000000E+00 -0.20185678520E+03  0.20185678520E+03  0.00000000000E+00 0.  1.
          6    1    1    2  502    0  0.21469769265E+03 -0.22591222459E+03  0.52211677929E+03  0.63219171433E+03  0.17300000000E+03 0.  1.
         -6    1    1    2    0  501 -0.21469769265E+03  0.22591222459E+03  0.69535782011E+02  0.36317441737E+03  0.17300000000E+03 0. -1.
</event>
<event>
 4    1  0.1116913E+000  0.1000000E+03  0.7546771E-02  0.1280296E+00
          1   -1    0    0  502    0  0.00000000000E+00  0.00000000000E+00  0.14283556410E+03  0.14283556410E+03  0.00000000000E+00 0.  1.
         -1   -1    0    0    0  501 -0.00000000000E+00 -0.00000000000E+00 -0.45133849479E+03  0.45133849479E+03  0.00000000000E+00 0. -1.
          6    1    1    2  502    0  0.56252950255E+02  0.75433986172E+02  0.33265901312E+02  0.19972556389E+03  0.17300000000E+03 0.  1.
         -6    1    1    2    0  501 -0.56252950255E+02 -0.75433986172E+02 -0.34176883200E+03  0.39444849500E+03  0.17300000000E+03 0. -1.
</event>
<event>
 4    1  0.1116913E+000  0.1000000E+03  0.7546771E-02  0.1280296E+00
          1   -1    0    0  502    0  0.00000000000E+00  0.00000000000E+00  0.17229774605E+03  0.17229774605E+03  0.00000000000E+00 0. -1.
         -1   -1    0    0    0  501 -0.00000000000E+00 -0.00000000000E+00 -0.55226976020E+03  0.55226976020E+03  0.00000000000E+00 0.  1.
          6    1    1    2  502    0 -0.20342014413E+03 -0.20244520536E+01 -0.86414182736E+01  0.26718444482E+03  0.17300000000E+03 0. -1.
         -6    1    1    2    0  501  0.20342014413E+03  0.20244520536E+01 -0.37133059588E+03  0.45738306142E+03  0.17300000000E+03 0.  1.
</event>
<event>
 4    1  0.1116913E+000  0.1000000E+03  0.7546771E-02  0.1280296E+00
          2   -1    0    0  502    0  0.00000000000E+00  0.00000000000E+00  0.20218110521E+04  0.20218110521E+04  0.00000000000E+00 0. -1.
         -2   -1    0    0    0  501 -0.00000000000E+00 -0.00000000000E+00 -0.38329196400E+02  0.38329196400E+02  0.00000000000E+00 0.  1.
          6    1    1    2  502    0 -0.27433232717E+02  0.11144385345E+03  0.30551491877E+03  0.36937877621E+03  0.17300000000E+03 0. -1.
         -6    1    1    2    0  501  0.27433232717E+02 -0.11144385345E+03  0.16779669370E+04  0.16907614723E+04  0.17300000000E+03 0.  1.
</event>
<event>
 4    1  0.1116913E+000  0.1000000E+03  0.7546771E-02  0.1280296E+00
          2   -1    0    0  502    0  0.00000000000E+00  0.00000000000E+00  0.23188963114E+03  0.23188963114E+03  0.00000000000E+00 0. -1.
         -2   -1    0    0    0  501 -0.00000000000E+00 -0.00000000000E+00 -0.13424963892E+03  0.13424963892E+03  0.00000000000E+00 0.  1.
          6    1    1    2  502    0 -0.31817521100E+02  0.72827906630E+01  0.60951431165E+02  0.18630477892E+03  0.17300000000E+03 0. -1.
         -6    1    1    2    0  501  0.31817521100E+02 -0.72827906630E+01  0.36688561063E+02  0.17983449113E+03  0.17300000000E+03 0.  1.
</event>
<event>
 4    1  0.1116913E+000  0.1000000E+03  0.7546771E-02  0.1280296E+00
          1   -1    0    0  502    0  0.00000000000E+00  0.00000000000E+00  0.27387303161E+03  0.27387303161E+03  0.00000000000E+00 0. -1.
         -1   -1    0    0    0  501 -0.00000000000E+00 -0.00000000000E+00 -0.28890398039E+03  0.28890398039E+03  0.00000000000E+00 0.  1.
          6    1    1    2  502    0 -0.14566763561E+03  0.35541689399E+02  0.15598010816E+03  0.27702177873E+03  0.17300000000E+03 0. -1.
         -6    1    1    2    0  501  0.14566763561E+03 -0.35541689399E+02 -0.17101105693E+03  0.28575523327E+03  0.17300000000E+03 0.  1.
</event>
<event>
 4    1  0.1116913E+000  0.1000000E+03  0.7546771E-02  0.1280296E+00
          2   -1    0    0  502    0  0.00000000000E+00  0.00000000000E+00  0.31098027711E+03  0.31098027711E+03  0.00000000000E+00 0. -1.
         -2   -1    0    0    0  501 -0.00000000000E+00 -0.00000000000E+00 -0.14294749813E+04  0.14294749813E+04  0.00000000000E+00 0.  1.
          6    1    1    2  502    0 -0.12961248029E+03 -0.43722746799E+03 -0.11525656599E+04  0.12515206168E+04  0.17300000000E+03 0.  1.
         -6    1    1    2    0  501  0.12961248029E+03  0.43722746799E+03  0.34070955683E+02  0.48893464168E+03  0.17300000000E+03 0. -1.
</event>
<event>
 4    1  0.1116913E+000  0.1000000E+03  0.7546771E-02  0.1280296E+00
          1   -1    0    0  502    0  0.00000000000E+00  0.00000000000E+00  0.23993621431E+04  0.23993621431E+04  0.00000000000E+00 0. -1.
         -1   -1    0    0    0  501 -0.00000000000E+00 -0.00000000000E+00 -0.17682268928E+02  0.17682268928E+02  0.00000000000E+00 0.  1.
          6    1    1    2  502    0  0.58314235940E+02 -0.11367538837E+01  0.63127971561E+03  0.65714908633E+03  0.17300000000E+03 0.  1.
         -6    1    1    2    0  501 -0.58314235940E+02  0.11367538837E+01  0.17504001586E+04  0.17598953257E+04  0.17300000000E+03 0. -1.
</event>
<event>
 4    1  0.1116913E+000  0.1000000E+03  0.7546771E-02  0.1280296E+00
          1   -1    0    0  502    0  0.00000000000E+00  0.00000000000E+00  0.43502279486E+03  0.43502279486E+03  0.00000000000E+00 0. -1.
         -1   -1    0    0    0  501 -0.00000000000E+00 -0.00000000000E+00 -0.89512086494E+02  0.89512086494E+02  0.00000000000E+00 0.  1.
          6    1    1    2  502    0  0.70627242338E+02 -0.95601458735E+00  0.25704051295E+03  0.31778600759E+03  0.17300000000E+03 0.  1.
         -6    1    1    2    0  501 -0.70627242338E+02  0.95601458735E+00  0.88470195417E+02  0.20674887376E+03  0.17300000000E+03 0. -1.
</event>
<event>
 4    1  0.1116913E+000  0.1000000E+03  0.7546771E-02  0.1280296E+00
          2   -1    0    0  502    0  0.00000000000E+00  0.00000000000E+00  0.20903627360E+04  0.20903627360E+04  0.00000000000E+00 0. -1.
         -2   -1    0    0    0  501 -0.00000000000E+00 -0.00000000000E+00 -0.22068890441E+03  0.22068890441E+03  0.00000000000E+00 0.  1.
          6    1    1    2  502    0  0.23201972414E+03 -0.27425534087E+03 -0.62823994820E+00  0.39872112945E+03  0.17300000000E+03 0.  1.
         -6    1    1    2    0  501 -0.23201972414E+03  0.27425534087E+03  0.18703020715E+04  0.19123305109E+04  0.17300000000E+03 0. -1.
</event>
<event>
 4    1  0.1116913E+000  0.1000000E+03  0.7546771E-02  0.1280296E+00
          1   -1    0    0  502    0  0.00000000000E+00  0.00000000000E+00  0.31810385401E+03  0.31810385401E+03  0.00000000000E+00 0. -1.
         -1   -1    0    0    0  501 -0.00000000000E+00 -0.00000000000E+00 -0.37412264020E+03  0.37412264020E+03  0.00000000000E+00 0.  1.
          6    1    1    2  502    0 -0.29154420029E+02 -0.29702555741E+03 -0.25414037937E+02  0.34590321665E+03  0.17300000000E+03 0.  1.
         -6    1    1    2    0  501  0.29154420029E+02  0.29702555741E+03 -0.30604748249E+02  0.34632327756E+03  0.17300000000E+03 0. -1.
</event>
<event>
 4    1  0.1116913E+000  0.1000000E+03  0.7546771E-02  0.1280296E+00
          2   -1    0    0  502    0  0.00000000000E+00  0.00000000000E+00  0.12123389259E+04  0.12123389259E+04  0.00000000000E+00 0. -1.
         -2   -1    0    0    0  501 -0.00000000000E+00 -0.00000000000E+00 -0.33208917711E+03  0.33208917711E+03  0.00000000000E+00 0.  1.
          6    1    1    2  502    0 -0.47822309875E+03 -0.61941083206E+02  0.89572292756E+03  0.10318830326E+04  0.17300000000E+03 0.  1.
         -6    1    1    2    0  501  0.47822309875E+03  0.61941083206E+02 -0.15473178754E+02  0.51254507044E+03  0.17300000000E+03 0. -1.
</event>
<event>
 4    1  0.1116913E+000  0.1000000E+03  0.7546771E-02  0.1280296E+00
         -1   -1    0    0    0  501 -0.00000000000E+00  0.00000000000E+00  0.78461680906E+03  0.78461680906E+03  0.00000000000E+00 0.  1.
          1   -1    0    0  502    0  0.00000000000E+00 -0.00000000000E+00 -0.79152589194E+02  0.79152589194E+02  0.00000000000E+00 0. -1.
          6    1    1    2  502    0  0.11109340947E+03  0.11500280859E+03  0.21185402102E+03  0.31682568998E+03  0.17300000000E+03 0. -1.
         -6    1    1    2    0  501 -0.11109340947E+03 -0.11500280859E+03  0.49361019885E+03  0.54694370827E+03  0.17300000000E+03 0. -1.
</event>
<event>
 4    1  0.1116913E+000  0.1000000E+03  0.7546771E-02  0.1280296E+00
         -1   -1    0    0    0  501 -0.00000000000E+00  0.00000000000E+00  0.28003947173E+03  0.28003947173E+03  0.00000000000E+00 0.  1.
          1   -1    0    0  502    0  0.00000000000E+00 -0.00000000000E+00 -0.14868054570E+04  0.14868054570E+04  0.00000000000E+00 0. -1.
          6    1    1    2  502    0  0.12006952916E+03 -0.26230725707E+03  0.15050348622E+03  0.36851334889E+03  0.17300000000E+03 0. -1.
         -6    1    1    2    0  501 -0.12006952916E+03  0.26230725707E+03 -0.13572694715E+04  0.13983315799E+04  0.17300000000E+03 0. -1.
</event>
<event>
 4    1  0.1116913E+000  0.1000000E+03  0.7546771E-02  0.1280296E+00
         -1   -1    0    0    0  501 -0.00000000000E+00  0.00000000000E+00  0.17931671726E+03  0.17931671726E+03  0.00000000000E+00 0. -1.
          1   -1    0    0  502    0  0.00000000000E+00 -0.00000000000E+00 -0.78215655925E+03  0.78215655925E+03  0.00000000000E+00 0.  1.
          6    1    1    2  502    0  0.25728887464E+03 -0.21006264416E+03 -0.30261524084E+03  0.48148609894E+03  0.17300000000E+03 0. -1.
         -6    1    1    2    0  501 -0.25728887464E+03  0.21006264416E+03 -0.30022460116E+03  0.47998717756E+03  0.17300000000E+03 0. -1.
</event>
<event>
 4    1  0.1116913E+000  0.1000000E+03  0.7546771E-02  0.1280296E+00
         -2   -1    0    0    0  501 -0.00000000000E+00  0.00000000000E+00  0.74288343749E+02  0.74288343749E+02  0.00000000000E+00 0. -1.
          2   -1    0    0  502    0  0.00000000000E+00 -0.00000000000E+00 -0.45434884247E+03  0.45434884247E+03  0.00000000000E+00 0.  1.
          6    1    1    2  502    0  0.58155459306E+02 -0.21016197138E+02 -0.19044970597E+03  0.26462015889E+03  0.17300000000E+03 0. -1.
         -6    1    1    2    0  501 -0.58155459306E+02  0.21016197138E+02 -0.18961079275E+03  0.26401702732E+03  0.17300000000E+03 0. -1.
</event>
<event>
 4    1  0.1116913E+000  0.1000000E+03  0.7546771E-02  0.1280296E+00
         -2   -1    0    0    0  501 -0.00000000000E+00  0.00000000000E+00  0.98985758277E+02  0.98985758277E+02  0.00000000000E+00 0. -1.
          2   -1    0    0  502    0  0.00000000000E+00 -0.00000000000E+00 -0.40612383044E+03  0.40612383044E+03  0.00000000000E+00 0.  1.
          6    1    1    2  502    0 -0.85513867649E+02 -0.38336373225E+02 -0.20217763152E+03  0.28211184619E+03  0.17300000000E+03 0. -1.
         -6    1    1    2    0  501  0.85513867649E+02  0.38336373225E+02 -0.10496044064E+03  0.22299774253E+03  0.17300000000E+03 0. -1.
</event>
<event>
 4    1  0.1116913E+000  0.1000000E+03  0.7546771E-02  0.1280296E+00
         -1   -1    0    0    0  501 -0.00000000000E+00  0.00000000000E+00  0.15476090757E+02  0.15476090757E+02  0.00000000000E+00 0. -1.
          1   -1    0    0  502    0  0.00000000000E+00 -0.00000000000E+00 -0.27053684860E+04  0.27053684860E+04  0.00000000000E+00 0.  1.
          6    1    1    2  502    0 -0.10502685221E+03 -0.30052547046E+02 -0.13290270795E+04  0.13446842652E+04  0.17300000000E+03 0. -1.
         -6    1    1    2    0  501  0.10502685221E+03  0.30052547046E+02 -0.13608653158E+04  0.13761603115E+04  0.17300000000E+03 0. -1.
</event>
<event>
 4    1  0.1116913E+000  0.1000000E+03  0.7546771E-02  0.1280296E+00
          2   -1    0    0  502    0  0.00000000000E+00  0.00000000000E+00  0.59034094894E+03  0.59034094894E+03  0.00000000000E+00 0. -1.
         -2   -1    0    0    0  501 -0.00000000000E+00 -0.00000000000E+00 -0.95917970235E+02  0.95917970235E+02  0.00000000000E+00 0.  1.
          6    1    1    2  502    0 -0.13252333577E+03 -0.87248089215E+02  0.30344174379E+03  0.38364118063E+03  0.17300000000E+03 0. -1.
         -6    1    1    2    0  501  0.13252333577E+03  0.87248089215E+02  0.19098123491E+03  0.30261773855E+03  0.17300000000E+03 0.  1.
</event>
<event>
 4    1  0.1116913E+000  0.1000000E+03  0.7546771E-02  0.1280296E+00
         -4   -1    0    0    0  501 -0.00000000000E+00  0.00000000000E+00  0.14321255525E+03  0.14321255525E+03  0.00000000000E+00 0. -1.
          4   -1    0    0  502    0  0.00000000000E+00 -0.00000000000E+00 -0.40213351560E+03  0.40213351560E+03  0.00000000000E+00 0.  1.
          6    1    1    2  502    0  0.14440574407E+03  0.66255136522E+02 -0.18534185148E+03  0.29920455201E+03  0.17300000000E+03 0.  1.
         -6    1    1    2    0  501 -0.14440574407E+03 -0.66255136522E+02 -0.73579108873E+02  0.24614151884E+03  0.17300000000E+03 0. -1.
</event>
<event>
 4    1  0.1116913E+000  0.1000000E+03  0.7546771E-02  0.1280296E+00
         -2   -1    0    0    0  501 -0.00000000000E+00  0.00000000000E+00  0.14807187720E+02  0.14807187720E+02  0.00000000000E+00 0. -1.
          2   -1    0    0  502    0  0.00000000000E+00 -0.00000000000E+00 -0.31034469819E+04  0.31034469819E+04  0.00000000000E+00 0.  1.
          6    1    1    2  502    0  0.16588747294E+02  0.11611232921E+03 -0.11980180507E+04  0.12161141021E+04  0.17300000000E+03 0.  1.
         -6    1    1    2    0  501 -0.16588747294E+02 -0.11611232921E+03 -0.18906217434E+04  0.19021400675E+04  0.17300000000E+03 0. -1.
</event>
<event>
 4    1  0.1116913E+000  0.1000000E+03  0.7546771E-02  0.1280296E+00
         -1   -1    0    0    0  501 -0.00000000000E+00  0.00000000000E+00  0.11596998945E+03  0.11596998945E+03  0.00000000000E+00 0.  1.
          1   -1    0    0  502    0  0.00000000000E+00 -0.00000000000E+00 -0.28527574549E+03  0.28527574549E+03  0.00000000000E+00 0. -1.
          6    1    1    2  502    0  0.21964124169E+02 -0.26485047538E+02 -0.35689841236E+02  0.17996289968E+03  0.17300000000E+03 0. -1.
         -6    1    1    2    0  501 -0.21964124169E+02  0.26485047538E+02 -0.13361591480E+03  0.22128283526E+03  0.17300000000E+03 0.  1.
</event>
<event>
 4    1  0.1116913E+000  0.1000000E+03  0.7546771E-02  0.1280296E+00
         -2   -1    0    0    0  501 -0.00000000000E+00  0.00000000000E+00  0.27004140532E+03  0.27004140532E+03  0.00000000000E+00 0.  1.
          2   -1    0    0  502    0  0.00000000000E+00 -0.00000000000E+00 -0.19433536118E+03  0.19433536118E+03  0.00000000000E+00 0. -1.
          6    1    1    2  502    0 -0.11606782507E+03  0.18551278752E+02 -0.56868491307E+02  0.21674620012E+03  0.17300000000E+03 0. -1.
         -6    1    1    2    0  501  0.11606782507E+03 -0.18551278752E+02  0.13257453545E+03  0.24763056639E+03  0.17300000000E+03 0.  1.
</event>
<event>
 4    1  0.1116913E+000  0.1000000E+03  0.7546771E-02  0.1280296E+00
         -2   -1    0    0    0  501 -0.00000000000E+00  0.00000000000E+00  0.19031468024E+02  0.19031468024E+02  0.00000000000E+00 0.  1.
          2   -1    0    0  502    0  0.00000000000E+00 -0.00000000000E+00 -0.17648305092E+04  0.17648305092E+04  0.00000000000E+00 0. -1.
          6    1    1    2  502    0 -0.28740074780E+02 -0.43115218483E+02 -0.72105833043E+03  0.74332969122E+03  0.17300000000E+03 0. -1.
         -6    1    1    2    0  501  0.28740074780E+02  0.43115218483E+02 -0.10247407108E+04  0.10405322860E+04  0.17300000000E+03 0.  1.
</event>
<event>
 4    1  0.1116913E+000  0.1000000E+03  0.7546771E-02  0.1280296E+00
         -2   -1    0    0    0  501 -0.00000000000E+00  0.00000000000E+00  0.30253345434E+02  0.30253345434E+02  0.00000000000E+00 0.  1.
          2   -1    0    0  502    0  0.00000000000E+00 -0.00000000000E+00 -0.27718179346E+04  0.27718179346E+04  0.00000000000E+00 0. -1.
          6    1    1    2  502    0 -0.21337295890E+03 -0.91523464998E+02 -0.13940865673E+04  0.14238366905E+04  0.17300000000E+03 0.  1.
         -6    1    1    2    0  501  0.21337295890E+03  0.91523464998E+02 -0.13474780219E+04  0.13782345895E+04  0.17300000000E+03 0. -1.
</event>
<event>
 4    1  0.1116913E+000  0.1000000E+03  0.7546771E-02  0.1280296E+00
         -2   -1    0    0    0  501 -0.00000000000E+00  0.00000000000E+00  0.62812555347E+02  0.62812555347E+02  0.00000000000E+00 0.  1.
          2   -1    0    0  502    0  0.00000000000E+00 -0.00000000000E+00 -0.12876747533E+04  0.12876747533E+04  0.00000000000E+00 0. -1.
          6    1    1    2  502    0  0.10249869616E+03  0.18905746108E+03 -0.77528116730E+03  0.82294507391E+03  0.17300000000E+03 0.  1.
         -6    1    1    2    0  501 -0.10249869616E+03 -0.18905746108E+03 -0.44958103064E+03  0.52754223472E+03  0.17300000000E+03 0. -1.
</event>
<event>
 4    1  0.1116913E+000  0.1000000E+03  0.7546771E-02  0.1280296E+00
         -2   -1    0    0    0  501 -0.00000000000E+00  0.00000000000E+00  0.21350157586E+03  0.21350157586E+03  0.00000000000E+00 0.  1.
          2   -1    0    0  502    0  0.00000000000E+00 -0.00000000000E+00 -0.28804185129E+03  0.28804185129E+03  0.00000000000E+00 0. -1.
          6    1    1    2  502    0 -0.11053669712E+03  0.46021696364E+02 -0.17001522113E+03  0.27050052377E+03  0.17300000000E+03 0.  1.
         -6    1    1    2    0  501  0.11053669712E+03 -0.46021696364E+02  0.95474945701E+02  0.23104290338E+03  0.17300000000E+03 0. -1.
</event>
<event>
 4    1  0.1116913E+000  0.1000000E+03  0.7546771E-02  0.1280296E+00
         -4   -1    0    0    0  501 -0.00000000000E+00  0.00000000000E+00  0.30867676083E+02  0.30867676083E+02  0.00000000000E+00 0. -1.
          4   -1    0    0  502    0  0.00000000000E+00 -0.00000000000E+00 -0.25173449537E+04  0.25173449537E+04  0.00000000000E+00 0.  1.
          6    1    1    2  502    0  0.15511607166E+03  0.14671727168E+03 -0.10294084508E+04  0.10654565745E+04  0.17300000000E+03 0.  1.
         -6    1    1    2    0  501 -0.15511607166E+03 -0.14671727168E+03 -0.14570688268E+04  0.14827560553E+04  0.17300000000E+03 0. -1.
</event>
<event>
 4    1  0.1116913E+000  0.1000000E+03  0.7546771E-02  0.1280296E+00
         -2   -1    0    0    0  501 -0.00000000000E+00  0.00000000000E+00  0.10199220404E+03  0.10199220404E+03  0.00000000000E+00 0. -1.
          2   -1    0    0  502    0  0.00000000000E+00 -0.00000000000E+00 -0.54987920821E+03  0.54987920821E+03  0.00000000000E+00 0.  1.
          6    1    1    2  502    0 -0.12211046391E+03 -0.10588783159E+03 -0.23163040154E+03  0.33121721150E+03  0.17300000000E+03 0.  1.
         -6    1    1    2    0  501  0.12211046391E+03  0.10588783159E+03 -0.21625660263E+03  0.32065420075E+03  0.17300000000E+03 0. -1.
</event>
<event>
 4    1  0.1116913E+000  0.1000000E+03  0.7546771E-02  0.1280296E+00
         -1   -1    0    0    0  501 -0.00000000000E+00  0.00000000000E+00  0.27455776370E+03  0.27455776370E+03  0.00000000000E+00 0. -1.
          1   -1    0    0  502    0  0.00000000000E+00 -0.00000000000E+00 -0.52571412725E+03  0.52571412725E+03  0.00000000000E+00 0.  1.
          6    1    1    2  502    0 -0.14968150751E+03  0.29591794870E+03 -0.19574068559E+03  0.42215566092E+03  0.17300000000E+03 0.  1.
         -6    1    1    2    0  501  0.14968150751E+03 -0.29591794870E+03 -0.55415677966E+02  0.37811623003E+03  0.17300000000E+03 0. -1.
</event>
<event>
 4    1  0.1116913E+000  0.1000000E+03  0.7546771E-02  0.1280296E+00
          2   -1    0    0  502    0  0.00000000000E+00  0.00000000000E+00  0.10474627402E+04  0.10474627402E+04  0.00000000000E+00 0. -1.
         -2   -1    0    0    0  501 -0.00000000000E+00 -0.00000000000E+00 -0.33395711441E+02  0.33395711441E+02  0.00000000000E+00 0.  1.
          6    1    1    2  502    0  0.70184907194E+02  0.11040328489E+02  0.51277874891E+03  0.54581943478E+03  0.17300000000E+03 0. -1.
         -6    1    1    2    0  501 -0.70184907194E+02 -0.11040328489E+02  0.50128827987E+03  0.53503901688E+03  0.17300000000E+03 0.  1.
</event>
<event>
 4    1  0.1116913E+000  0.1000000E+03  0.7546771E-02  0.1280296E+00
          2   -1    0    0  502    0  0.00000000000E+00  0.00000000000E+00  0.17332794766E+04  0.17332794766E+04  0.00000000000E+00 0. -1.
         -2   -1    0    0    0  501 -0.00000000000E+00 -0.00000000000E+00 -0.23490530794E+02  0.23490530794E+02  0.00000000000E+00 0.  1.
          6    1    1    2  502    0  0.56967035199E+02 -0.33906853184E+02  0.50686689991E+03  0.53966468480E+03  0.17300000000E+03 0. -1.
         -6    1    1    2    0  501 -0.56967035199E+02  0.33906853184E+02  0.12029220459E+04  0.12171053226E+04  0.17300000000E+03 0.  1.
</event>
<event>
 4    1  0.1116913E+000  0.1000000E+03  0.7546771E-02  0.1280296E+00
          2   -1    0    0  502    0  0.00000000000E+00  0.00000000000E+00  0.33456988453E+03  0.33456988453E+03  0.00000000000E+00 0. -1.
         -2   -1    0    0    0  501 -0.00000000000E+00 -0.00000000000E+00 -0.18519399253E+03  0.18519399253E+03  0.00000000000E+00 0.  1.
          6    1    1    2  502    0  0.19301395328E+02  0.97556586629E+02  0.23004206016E+03  0.30452944176E+03  0.17300000000E+03 0.  1.
         -6    1    1    2    0  501 -0.19301395328E+02 -0.97556586629E+02 -0.80666168156E+02  0.21523443531E+03  0.17300000000E+03 0. -1.
</event>
<event>
 4    1  0.1116913E+000  0.1000000E+03  0.7546771E-02  0.1280296E+00
         -2   -1    0    0    0  501 -0.00000000000E+00  0.00000000000E+00  0.23157007080E+03  0.23157007080E+03  0.00000000000E+00 0. -1.
          2   -1    0    0  502    0  0.00000000000E+00 -0.00000000000E+00 -0.27071170986E+03  0.27071170986E+03  0.00000000000E+00 0.  1.
          6    1    1    2  502    0 -0.74130821850E+02  0.71769483461E+02 -0.16873047163E+03  0.26276455157E+03  0.17300000000E+03 0.  1.
         -6    1    1    2    0  501  0.74130821850E+02 -0.71769483461E+02  0.12958883257E+03  0.23951722909E+03  0.17300000000E+03 0. -1.
</event>
<event>
 4    1  0.1116913E+000  0.1000000E+03  0.7546771E-02  0.1280296E+00
         -4   -1    0    0    0  501 -0.00000000000E+00  0.00000000000E+00  0.43859527478E+02  0.43859527478E+02  0.00000000000E+00 0. -1.
          4   -1    0    0  502    0  0.00000000000E+00 -0.00000000000E+00 -0.82513508251E+03  0.82513508251E+03  0.00000000000E+00 0.  1.
          6    1    1    2  502    0  0.24223561328E+01  0.67387403180E+02 -0.48519860973E+03  0.51951286875E+03  0.17300000000E+03 0.  1.
         -6    1    1    2    0  501 -0.24223561328E+01 -0.67387403180E+02 -0.29607694530E+03  0.34948174123E+03  0.17300000000E+03 0. -1.
</event>
<event>
 4    1  0.1116913E+000  0.1000000E+03  0.7546771E-02  0.1280296E+00
         -2   -1    0    0    0  501 -0.00000000000E+00  0.00000000000E+00  0.60551541350E+02  0.60551541350E+02  0.00000000000E+00 0. -1.
          2   -1    0    0  502    0  0.00000000000E+00 -0.00000000000E+00 -0.51287325184E+03  0.51287325184E+03  0.00000000000E+00 0.  1.
          6    1    1    2  502    0  0.15656684198E+02 -0.26641407133E+02 -0.24745919318E+03  0.30351268281E+03  0.17300000000E+03 0.  1.
         -6    1    1    2    0  501 -0.15656684198E+02  0.26641407133E+02 -0.20486251731E+03  0.26991211039E+03  0.17300000000E+03 0. -1.
</event>
<event>
 4    1  0.1116913E+000  0.1000000E+03  0.7546771E-02  0.1280296E+00
          1   -1    0    0  502    0  0.00000000000E+00  0.00000000000E+00  0.39927566441E+03  0.39927566441E+03  0.00000000000E+00 0.  1.
         -1   -1    0    0    0  501 -0.00000000000E+00 -0.00000000000E+00 -0.11412304903E+03  0.11412304903E+03  0.00000000000E+00 0. -1.
          6    1    1    2  502    0 -0.37702094224E+02 -0.11637671667E+03  0.17376303622E+03  0.27402113212E+03  0.17300000000E+03 0.  1.
         -6    1    1    2    0  501  0.37702094224E+02  0.11637671667E+03  0.11138957917E+03  0.23937758132E+03  0.17300000000E+03 0. -1.
</event>
<event>
 4    1  0.1116913E+000  0.1000000E+03  0.7546771E-02  0.1280296E+00
         -1   -1    0    0    0  501 -0.00000000000E+00  0.00000000000E+00  0.38195999773E+02  0.38195999773E+02  0.00000000000E+00 0.  1.
          1   -1    0    0  502    0  0.00000000000E+00 -0.00000000000E+00 -0.17207628519E+04  0.17207628519E+04  0.00000000000E+00 0. -1.
          6    1    1    2  502    0 -0.51899707989E+02  0.11927655969E+02 -0.14640985001E+04  0.14752454937E+04  0.17300000000E+03 0. -1.
         -6    1    1    2    0  501  0.51899707989E+02 -0.11927655969E+02 -0.21846835208E+03  0.28371335804E+03  0.17300000000E+03 0. -1.
</event>
<event>
 4    1  0.1116913E+000  0.1000000E+03  0.7546771E-02  0.1280296E+00
          4   -1    0    0  502    0  0.00000000000E+00  0.00000000000E+00  0.83957920773E+02  0.83957920773E+02  0.00000000000E+00 0. -1.
         -4   -1    0    0    0  501 -0.00000000000E+00 -0.00000000000E+00 -0.71593765809E+03  0.71593765809E+03  0.00000000000E+00 0.  1.
          6    1    1    2  502    0  0.67235043274E+02  0.16008827422E+03 -0.30693200485E+03  0.39279137234E+03  0.17300000000E+03 0.  1.
         -6    1    1    2    0  501 -0.67235043274E+02 -0.16008827422E+03 -0.32504773247E+03  0.40710420652E+03  0.17300000000E+03 0.  1.
</event>
<event>
 4    1  0.1116913E+000  0.1000000E+03  0.7546771E-02  0.1280296E+00
         -2   -1    0    0    0  501 -0.00000000000E+00  0.00000000000E+00  0.19885504713E+02  0.19885504713E+02  0.00000000000E+00 0. -1.
          2   -1    0    0  502    0  0.00000000000E+00 -0.00000000000E+00 -0.15098158828E+04  0.15098158828E+04  0.00000000000E+00 0.  1.
          6    1    1    2  502    0  0.74975891184E+01  0.52047988440E+01 -0.73022758365E+03  0.75049625429E+03  0.17300000000E+03 0.  1.
         -6    1    1    2    0  501 -0.74975891184E+01 -0.52047988440E+01 -0.75970279449E+03  0.77920513328E+03  0.17300000000E+03 0. -1.
</event>
<event>
 4    1  0.1116913E+000  0.1000000E+03  0.7546771E-02  0.1280296E+00
         -2   -1    0    0    0  501 -0.00000000000E+00  0.00000000000E+00  0.11028120800E+03  0.11028120800E+03  0.00000000000E+00 0. -1.
          2   -1    0    0  502    0  0.00000000000E+00 -0.00000000000E+00 -0.43845019605E+03  0.43845019605E+03  0.00000000000E+00 0.  1.
          6    1    1    2  502    0  0.11070046404E+03 -0.34927247878E+02 -0.25186363765E+03  0.32686204636E+03  0.17300000000E+03 0.  1.
         -6    1    1    2    0  501 -0.11070046404E+03  0.34927247878E+02 -0.76305350399E+02  0.22186935769E+03  0.17300000000E+03 0. -1.
</event>
<event>
 4    1  0.1116913E+000  0.1000000E+03  0.7546771E-02  0.1280296E+00
         -2   -1    0    0    0  501 -0.00000000000E+00  0.00000000000E+00  0.30554443632E+03  0.30554443632E+03  0.00000000000E+00 0.  1.
          2   -1    0    0  502    0  0.00000000000E+00 -0.00000000000E+00 -0.11110719399E+03  0.11110719399E+03  0.00000000000E+00 0. -1.
          6    1    1    2  502    0  0.49858088486E+02  0.46231237514E+01  0.14118373691E+03  0.22884284963E+03  0.17300000000E+03 0. -1.
         -6    1    1    2    0  501 -0.49858088486E+02 -0.46231237514E+01  0.53253505423E+02  0.18780878068E+03  0.17300000000E+03 0.  1.
</event>
<event>
 4    1  0.1116913E+000  0.1000000E+03  0.7546771E-02  0.1280296E+00
         -1   -1    0    0    0  501 -0.00000000000E+00  0.00000000000E+00  0.22569255803E+03  0.22569255803E+03  0.00000000000E+00 0.  1.
          1   -1    0    0  502    0  0.00000000000E+00 -0.00000000000E+00 -0.13664169691E+03  0.13664169691E+03  0.00000000000E+00 0. -1.
          6    1    1    2  502    0 -0.84263858030E+01  0.73377371578E+01  0.15617940777E+02  0.17406253600E+03  0.17300000000E+03 0. -1.
         -6    1    1    2    0  501  0.84263858030E+01 -0.73377371578E+01  0.73432920340E+02  0.18827171894E+03  0.17300000000E+03 0.  1.
</event>
<event>
 4    1  0.1116913E+000  0.1000000E+03  0.7546771E-02  0.1280296E+00
         -1   -1    0    0    0  501 -0.00000000000E+00  0.00000000000E+00  0.71378910337E+02  0.71378910337E+02  0.00000000000E+00 0.  1.
          1   -1    0    0  502    0  0.00000000000E+00 -0.00000000000E+00 -0.56449940425E+03  0.56449940425E+03  0.00000000000E+00 0. -1.
          6    1    1    2  502    0  0.65920622949E+02 -0.55874054481E+02 -0.16131010531E+03  0.25182809329E+03  0.17300000000E+03 0. -1.
         -6    1    1    2    0  501 -0.65920622949E+02  0.55874054481E+02 -0.33181038860E+03  0.38405022130E+03  0.17300000000E+03 0.  1.
</event>
<event>
 4    1  0.1116913E+000  0.1000000E+03  0.7546771E-02  0.1280296E+00
         -1   -1    0    0    0  501 -0.00000000000E+00  0.00000000000E+00  0.14600425155E+04  0.14600425155E+04  0.00000000000E+00 0.  1.
          1   -1    0    0  502    0  0.00000000000E+00 -0.00000000000E+00 -0.33516581858E+02  0.33516581858E+02  0.00000000000E+00 0. -1.
          6    1    1    2  502    0  0.78880120086E+02  0.63066848058E+02  0.10300716684E+04  0.10493694024E+04  0.17300000000E+03 0. -1.
         -6    1    1    2    0  501 -0.78880120086E+02 -0.63066848058E+02  0.39645426521E+03  0.44418969492E+03  0.17300000000E+03 0.  1.
</event>
<event>
 4    1  0.1116913E+000  0.1000000E+03  0.7546771E-02  0.1280296E+00
         -2   -1    0    0    0  501 -0.00000000000E+00  0.00000000000E+00  0.24838341100E+02  0.24838341100E+02  0.00000000000E+00 0.  1.
          2   -1    0    0  502    0  0.00000000000E+00 -0.00000000000E+00 -0.12448090549E+04  0.12448090549E+04  0.00000000000E+00 0. -1.
          6    1    1    2  502    0  0.18958722170E+01 -0.17431656867E+02 -0.70430516433E+03  0.72545311461E+03  0.17300000000E+03 0. -1.
         -6    1    1    2    0  501 -0.18958722170E+01  0.17431656867E+02 -0.51566554951E+03  0.54419428143E+03  0.17300000000E+03 0.  1.
</event>
<event>
 4    1  0.1116913E+000  0.1000000E+03  0.7546771E-02  0.1280296E+00
         -1   -1    0    0    0  501 -0.00000000000E+00  0.00000000000E+00  0.10940839103E+03  0.10940839103E+03  0.00000000000E+00 0.  1.
          1   -1    0    0  502    0  0.00000000000E+00 -0.00000000000E+00 -0.39877023907E+03  0.39877023907E+03  0.00000000000E+00 0. -1.
          6    1    1    2  502    0  0.40843839163E+02 -0.10966489935E+03 -0.14745513208E+03  0.25566897607E+03  0.17300000000E+03 0. -1.
         -6    1    1    2    0  501 -0.40843839163E+02  0.10966489935E+03 -0.14190671595E+03  0.25250965403E+03  0.17300000000E+03 0.  1.
</event>
<event>
 4    1  0.1116913E+000  0.1000000E+03  0.7546771E-02  0.1280296E+00
         -1   -1    0    0    0  501 -0.00000000000E+00  0.00000000000E+00  0.72705822398E+02  0.72705822398E+02  0.00000000000E+00 0.  1.
          1   -1    0    0  502    0  0.00000000000E+00 -0.00000000000E+00 -0.45271918179E+03  0.45271918179E+03  0.00000000000E+00 0. -1.
          6    1    1    2  502    0 -0.10552427834E+02 -0.50775189302E+02 -0.16505797995E+03  0.24466836805E+03  0.17300000000E+03 0.  1.
         -6    1    1    2    0  501  0.10552427834E+02  0.50775189302E+02 -0.21495537944E+03  0.28075663614E+03  0.17300000000E+03 0.  1.
</event>
<event>
 4    1  0.1116913E+000  0.1000000E+03  0.7546771E-02  0.1280296E+00
         -2   -1    0    0    0  501 -0.00000000000E+00  0.00000000000E+00  0.42461616576E+03  0.42461616576E+03  0.00000000000E+00 0.  1.
          2   -1    0    0  502    0  0.00000000000E+00 -0.00000000000E+00 -0.90920076560E+02  0.90920076560E+02  0.00000000000E+00 0. -1.
          6    1    1    2  502    0  0.12533402369E+02 -0.62231083509E+02  0.77413914293E+02  0.19987923368E+03  0.17300000000E+03 0.  1.
         -6    1    1    2    0  501 -0.12533402369E+02  0.62231083509E+02  0.25628217491E+03  0.31565700864E+03  0.17300000000E+03 0.  1.
</event>
<event>
 4    1  0.1116913E+000  0.1000000E+03  0.7546771E-02  0.1280296E+00
         -2   -1    0    0    0  501 -0.00000000000E+00  0.00000000000E+00  0.40668437967E+03  0.40668437967E+03  0.00000000000E+00 0.  1.
          2   -1    0    0  502    0  0.00000000000E+00 -0.00000000000E+00 -0.15516969034E+03  0.15516969034E+03  0.00000000000E+00 0. -1.
          6    1    1    2  502    0  0.92798026720E+02  0.67193701763E+02  0.28410602078E+03  0.35181202134E+03  0.17300000000E+03 0.  1.
         -6    1    1    2    0  501 -0.92798026720E+02 -0.67193701763E+02 -0.32591331448E+02  0.21004204866E+03  0.17300000000E+03 0.  1.
</event>
<event>
 4    1  0.1116913E+000  0.1000000E+03  0.7546771E-02  0.1280296E+00
          2   -1    0    0  502    0  0.00000000000E+00  0.00000000000E+00  0.13952505237E+04  0.13952505237E+04  0.00000000000E+00 0.  1.
         -2   -1    0    0    0  501 -0.00000000000E+00 -0.00000000000E+00 -0.30904980185E+02  0.30904980185E+02  0.00000000000E+00 0. -1.
          6    1    1    2  502    0 -0.31402066489E+02  0.24844252722E+02  0.10518291745E+04  0.10667131475E+04  0.17300000000E+03 0.  1.
         -6    1    1    2    0  501  0.31402066489E+02 -0.24844252722E+02  0.31251636898E+03  0.35944235637E+03  0.17300000000E+03 0. -1.
</event>
<event>
 4    1  0.1116913E+000  0.1000000E+03  0.7546771E-02  0.1280296E+00
          2   -1    0    0  502    0  0.00000000000E+00  0.00000000000E+00  0.12115442625E+04  0.12115442625E+04  0.00000000000E+00 0.  1.
         -2   -1    0    0    0  501 -0.00000000000E+00 -0.00000000000E+00 -0.87179507932E+02  0.87179507932E+02  0.00000000000E+00 0. -1.
          6    1    1    2  502    0 -0.24060535148E+03  0.25057487831E+02  0.30033638934E+03  0.42266979975E+03  0.17300000000E+03 0.  1.
         -6    1    1    2    0  501  0.24060535148E+03 -0.25057487831E+02  0.82402836527E+03  0.87605397073E+03  0.17300000000E+03 0. -1.
</event>
<event>
 4    1  0.1116913E+000  0.1000000E+03  0.7546771E-02  0.1280296E+00
          1   -1    0    0  502    0  0.00000000000E+00  0.00000000000E+00  0.86392027239E+03  0.86392027239E+03  0.00000000000E+00 0.  1.
         -1   -1    0    0    0  501 -0.00000000000E+00 -0.00000000000E+00 -0.50163031517E+02  0.50163031517E+02  0.00000000000E+00 0. -1.
          6    1    1    2  502    0  0.28724234341E+02  0.11097497439E+03  0.44277524131E+03  0.48899840582E+03  0.17300000000E+03 0.  1.
         -6    1    1    2    0  501 -0.28724234341E+02 -0.11097497439E+03  0.37098199957E+03  0.42508489809E+03  0.17300000000E+03 0. -1.
</event>
<event>
 4    1  0.1116913E+000  0.1000000E+03  0.7546771E-02  0.1280296E+00
          1   -1    0    0  502    0  0.00000000000E+00  0.00000000000E+00  0.12753288787E+04  0.12753288787E+04  0.00000000000E+00 0.  1.
         -1   -1    0    0    0  501 -0.00000000000E+00 -0.00000000000E+00 -0.65404189058E+02  0.65404189058E+02  0.00000000000E+00 0. -1.
          6    1    1    2  502    0 -0.17464805689E+03 -0.11580668230E+03  0.83202622413E+03  0.87527696707E+03  0.17300000000E+03 0.  1.
         -6    1    1    2    0  501  0.17464805689E+03  0.11580668230E+03  0.37789846555E+03  0.46545610073E+03  0.17300000000E+03 0. -1.
</event>
<event>
 4    1  0.1116913E+000  0.1000000E+03  0.7546771E-02  0.1280296E+00
          3   -1    0    0  502    0  0.00000000000E+00  0.00000000000E+00  0.74269946422E+03  0.74269946422E+03  0.00000000000E+00 0.  1.
         -3   -1    0    0    0  501 -0.00000000000E+00 -0.00000000000E+00 -0.64837913849E+02  0.64837913849E+02  0.00000000000E+00 0. -1.
          6    1    1    2  502    0 -0.55470681735E+02 -0.47990248671E+02  0.54747392075E+03  0.57882359523E+03  0.17300000000E+03 0.  1.
         -6    1    1    2    0  501  0.55470681735E+02  0.47990248671E+02  0.13038762962E+03  0.22871378283E+03  0.17300000000E+03 0.  1.
</event>
<event>
 4    1  0.1116913E+000  0.1000000E+03  0.7546771E-02  0.1280296E+00
          2   -1    0    0  502    0  0.00000000000E+00  0.00000000000E+00  0.20887761357E+03  0.20887761357E+03  0.00000000000E+00 0.  1.
         -2   -1    0    0    0  501 -0.00000000000E+00 -0.00000000000E+00 -0.18264448410E+03  0.18264448410E+03  0.00000000000E+00 0. -1.
          6    1    1    2  502    0 -0.59337841477E+02  0.56824098609E+02  0.51561613549E+02  0.19833697992E+03  0.17300000000E+03 0.  1.
         -6    1    1    2    0  501  0.59337841477E+02 -0.56824098609E+02 -0.25328484072E+02  0.19318511775E+03  0.17300000000E+03 0.  1.
</event>
<event>
 4    1  0.1116913E+000  0.1000000E+03  0.7546771E-02  0.1280296E+00
         -2   -1    0    0    0  501 -0.00000000000E+00  0.00000000000E+00  0.29826214615E+03  0.29826214615E+03  0.00000000000E+00 0. -1.
          2   -1    0    0  502    0  0.00000000000E+00 -0.00000000000E+00 -0.14328380113E+03  0.14328380113E+03  0.00000000000E+00 0.  1.
          6    1    1    2  502    0  0.10671937647E+03 -0.37558595883E+02  0.74572182042E+02  0.21974913828E+03  0.17300000000E+03 0. -1.
         -6    1    1    2    0  501 -0.10671937647E+03  0.37558595883E+02  0.80406162974E+02  0.22179680900E+03  0.17300000000E+03 0.  1.
</event>
<event>
 4    1  0.1116913E+000  0.1000000E+03  0.7546771E-02  0.1280296E+00
          2   -1    0    0  502    0  0.00000000000E+00  0.00000000000E+00  0.47435678517E+03  0.47435678517E+03  0.00000000000E+00 0. -1.
         -2   -1    0    0    0  501 -0.00000000000E+00 -0.00000000000E+00 -0.10951437159E+03  0.10951437159E+03  0.00000000000E+00 0.  1.
          6    1    1    2  502    0 -0.10478042170E+03 -0.10315899933E+03  0.20801163123E+03  0.30792621623E+03  0.17300000000E+03 0. -1.
         -6    1    1    2    0  501  0.10478042170E+03  0.10315899933E+03  0.15683078235E+03  0.27594494053E+03  0.17300000000E+03 0.  1.
</event>
<event>
 4    1  0.1116913E+000  0.1000000E+03  0.7546771E-02  0.1280296E+00
          3   -1    0    0  502    0  0.00000000000E+00  0.00000000000E+00  0.27360482663E+02  0.27360482663E+02  0.00000000000E+00 0. -1.
         -3   -1    0    0    0  501 -0.00000000000E+00 -0.00000000000E+00 -0.12197242721E+04  0.12197242721E+04  0.00000000000E+00 0.  1.
          6    1    1    2  502    0  0.19841544860E+02  0.51867557265E+02 -0.66088283269E+03  0.68540429598E+03  0.17300000000E+03 0. -1.
         -6    1    1    2    0  501 -0.19841544860E+02 -0.51867557265E+02 -0.53148095677E+03  0.56168045881E+03  0.17300000000E+03 0. -1.
</event>
<event>
 4    1  0.1116913E+000  0.1000000E+03  0.7546771E-02  0.1280296E+00
          1   -1    0    0  502    0  0.00000000000E+00  0.00000000000E+00  0.11090346313E+04  0.11090346313E+04  0.00000000000E+00 0. -1.
         -1   -1    0    0    0  501 -0.00000000000E+00 -0.00000000000E+00 -0.35192207310E+02  0.35192207310E+02  0.00000000000E+00 0.  1.
          6    1    1    2  502    0  0.62592046278E+02 -0.29341989305E+01  0.32861622860E+03  0.37662182555E+03  0.17300000000E+03 0. -1.
         -6    1    1    2    0  501 -0.62592046278E+02  0.29341989305E+01  0.74522619538E+03  0.76760501305E+03  0.17300000000E+03 0. -1.
</event>
<event>
 4    1  0.1116913E+000  0.1000000E+03  0.7546771E-02  0.1280296E+00
          2   -1    0    0  502    0  0.00000000000E+00  0.00000000000E+00  0.25389167990E+03  0.25389167990E+03  0.00000000000E+00 0. -1.
         -2   -1    0    0    0  501 -0.00000000000E+00 -0.00000000000E+00 -0.40405368625E+03  0.40405368625E+03  0.00000000000E+00 0.  1.
          6    1    1    2  502    0 -0.39852438004E+02  0.26649980571E+03 -0.82085390802E+02  0.33057128526E+03  0.17300000000E+03 0. -1.
         -6    1    1    2    0  501  0.39852438004E+02 -0.26649980571E+03 -0.68076615552E+02  0.32737408089E+03  0.17300000000E+03 0. -1.
</event>
<event>
 4    1  0.1116913E+000  0.1000000E+03  0.7546771E-02  0.1280296E+00
          2   -1    0    0  502    0  0.00000000000E+00  0.00000000000E+00  0.11820351863E+04  0.11820351863E+04  0.00000000000E+00 0. -1.
         -2   -1    0    0    0  501 -0.00000000000E+00 -0.00000000000E+00 -0.39796348218E+02  0.39796348218E+02  0.00000000000E+00 0.  1.
          6    1    1    2  502    0 -0.10616274285E+03  0.36056021158E+02  0.38130641003E+03  0.43346758006E+03  0.17300000000E+03 0. -1.
         -6    1    1    2    0  501  0.10616274285E+03 -0.36056021158E+02  0.76093242805E+03  0.78836395446E+03  0.17300000000E+03 0. -1.
</event>
<event>
 4    1  0.1116913E+000  0.1000000E+03  0.7546771E-02  0.1280296E+00
         -2   -1    0    0    0  501 -0.00000000000E+00  0.00000000000E+00  0.31599902491E+03  0.31599902491E+03  0.00000000000E+00 0. -1.
          2   -1    0    0  502    0  0.00000000000E+00 -0.00000000000E+00 -0.10296862492E+03  0.10296862492E+03  0.00000000000E+00 0.  1.
          6    1    1    2  502    0  0.22460657128E+02  0.30828956805E+02  0.14596756180E+03  0.22954397137E+03  0.17300000000E+03 0. -1.
         -6    1    1    2    0  501 -0.22460657128E+02 -0.30828956805E+02  0.67062838194E+02  0.18942367846E+03  0.17300000000E+03 0.  1.
</event>
<event>
 4    1  0.1116913E+000  0.1000000E+03  0.7546771E-02  0.1280296E+00
         -1   -1    0    0    0  501 -0.00000000000E+00  0.00000000000E+00  0.25823838497E+03  0.25823838497E+03  0.00000000000E+00 0. -1.
          1   -1    0    0  502    0  0.00000000000E+00 -0.00000000000E+00 -0.30366864339E+03  0.30366864339E+03  0.00000000000E+00 0.  1.
          6    1    1    2  502    0  0.20123595230E+03 -0.84941280916E+02  0.52865808426E+01  0.27868957218E+03  0.17300000000E+03 0. -1.
         -6    1    1    2    0  501 -0.20123595230E+03  0.84941280916E+02 -0.50716839255E+02  0.28321745618E+03  0.17300000000E+03 0.  1.
</event>
<event>
 4    1  0.1116913E+000  0.1000000E+03  0.7546771E-02  0.1280296E+00
          3   -1    0    0  502    0  0.00000000000E+00  0.00000000000E+00  0.58449770144E+03  0.58449770144E+03  0.00000000000E+00 0.  1.
         -3   -1    0    0    0  501 -0.00000000000E+00 -0.00000000000E+00 -0.67478692773E+02  0.67478692773E+02  0.00000000000E+00 0. -1.
          6    1    1    2  502    0 -0.94142493646E+02  0.47891742212E+01  0.21742751511E+03  0.29341007077E+03  0.17300000000E+03 0.  1.
         -6    1    1    2    0  501  0.94142493646E+02 -0.47891742212E+01  0.29959149355E+03  0.35856632344E+03  0.17300000000E+03 0. -1.
</event>
<event>
 4    1  0.1116913E+000  0.1000000E+03  0.7546771E-02  0.1280296E+00
          3   -1    0    0  502    0  0.00000000000E+00  0.00000000000E+00  0.58691720692E+03  0.58691720692E+03  0.00000000000E+00 0.  1.
         -3   -1    0    0    0  501 -0.00000000000E+00 -0.00000000000E+00 -0.84045737364E+02  0.84045737364E+02  0.00000000000E+00 0. -1.
          6    1    1    2  502    0 -0.11093608518E+03 -0.79645591651E+02  0.29276549588E+03  0.36645718828E+03  0.17300000000E+03 0.  1.
         -6    1    1    2    0  501  0.11093608518E+03  0.79645591651E+02  0.21010597368E+03  0.30450575600E+03  0.17300000000E+03 0. -1.
</event>
<event>
 4    1  0.1116913E+000  0.1000000E+03  0.7546771E-02  0.1280296E+00
         -2   -1    0    0    0  501 -0.00000000000E+00  0.00000000000E+00  0.41006083458E+02  0.41006083458E+02  0.00000000000E+00 0.  1.
          2   -1    0    0  502    0  0.00000000000E+00 -0.00000000000E+00 -0.10010931645E+04  0.10010931645E+04  0.00000000000E+00 0. -1.
          6    1    1    2  502    0 -0.75966450713E+02 -0.11719423141E+02 -0.29435325447E+03  0.34997297743E+03  0.17300000000E+03 0.  1.
         -6    1    1    2    0  501  0.75966450713E+02  0.11719423141E+02 -0.66573382652E+03  0.69212627048E+03  0.17300000000E+03 0. -1.
</event>
<event>
 4    1  0.1116913E+000  0.1000000E+03  0.7546771E-02  0.1280296E+00
         -1   -1    0    0    0  501 -0.00000000000E+00  0.00000000000E+00  0.48594785653E+03  0.48594785653E+03  0.00000000000E+00 0.  1.
          1   -1    0    0  502    0  0.00000000000E+00 -0.00000000000E+00 -0.18898470542E+03  0.18898470542E+03  0.00000000000E+00 0. -1.
          6    1    1    2  502    0 -0.10861892951E+03 -0.40896281484E+02  0.39356359139E+03  0.44529976213E+03  0.17300000000E+03 0.  1.
         -6    1    1    2    0  501  0.10861892951E+03  0.40896281484E+02 -0.96600440292E+02  0.22963279982E+03  0.17300000000E+03 0. -1.
</event>
<event>
 4    1  0.1116913E+000  0.1000000E+03  0.7546771E-02  0.1280296E+00
         -1   -1    0    0    0  501 -0.00000000000E+00  0.00000000000E+00  0.38089620236E+02  0.38089620236E+02  0.00000000000E+00 0.  1.
          1   -1    0    0  502    0  0.00000000000E+00 -0.00000000000E+00 -0.10314838921E+04  0.10314838921E+04  0.00000000000E+00 0. -1.
          6    1    1    2  502    0  0.39171682401E+01  0.78990420987E+02 -0.34635634750E+03  0.39515383114E+03  0.17300000000E+03 0.  1.
         -6    1    1    2    0  501 -0.39171682401E+01 -0.78990420987E+02 -0.64703792439E+03  0.67441968121E+03  0.17300000000E+03 0. -1.
</event>
<event>
 4    1  0.1116913E+000  0.1000000E+03  0.7546771E-02  0.1280296E+00
         -2   -1    0    0    0  501 -0.00000000000E+00  0.00000000000E+00  0.10974140384E+03  0.10974140384E+03  0.00000000000E+00 0.  1.
          2   -1    0    0  502    0  0.00000000000E+00 -0.00000000000E+00 -0.33376988533E+03  0.33376988533E+03  0.00000000000E+00 0. -1.
          6    1    1    2  502    0 -0.48158804094E+02 -0.57543174078E+02 -0.74132314794E+02  0.20262055027E+03  0.17300000000E+03 0. -1.
         -6    1    1    2    0  501  0.48158804094E+02  0.57543174078E+02 -0.14989616670E+03  0.24089073890E+03  0.17300000000E+03 0.  1.
</event>
<event>
 4    1  0.1116913E+000  0.1000000E+03  0.7546771E-02  0.1280296E+00
         -2   -1    0    0    0  501 -0.00000000000E+00  0.00000000000E+00  0.17233884815E+03  0.17233884815E+03  0.00000000000E+00 0.  1.
          2   -1    0    0  502    0  0.00000000000E+00 -0.00000000000E+00 -0.36918895481E+03  0.36918895481E+03  0.00000000000E+00 0. -1.
          6    1    1    2  502    0 -0.11510389222E+03  0.10912162390E+03 -0.19762420004E+03  0.30682366148E+03  0.17300000000E+03 0. -1.
         -6    1    1    2    0  501  0.11510389222E+03 -0.10912162390E+03  0.77409337735E+00  0.23470414148E+03  0.17300000000E+03 0.  1.
</event>
<event>
 4    1  0.1116913E+000  0.1000000E+03  0.7546771E-02  0.1280296E+00
         -2   -1    0    0    0  501 -0.00000000000E+00  0.00000000000E+00  0.10342447906E+03  0.10342447906E+03  0.00000000000E+00 0. -1.
          2   -1    0    0  502    0  0.00000000000E+00 -0.00000000000E+00 -0.80073522097E+03  0.80073522097E+03  0.00000000000E+00 0.  1.
          6    1    1    2  502    0 -0.22103537120E+03 -0.63247230496E+02 -0.35722751265E+03  0.45869090168E+03  0.17300000000E+03 0.  1.
         -6    1    1    2    0  501  0.22103537120E+03  0.63247230496E+02 -0.34008322926E+03  0.44546879836E+03  0.17300000000E+03 0. -1.
</event>
<event>
 4    1  0.1116913E+000  0.1000000E+03  0.7546771E-02  0.1280296E+00
         -3   -1    0    0    0  501 -0.00000000000E+00  0.00000000000E+00  0.15457321958E+04  0.15457321958E+04  0.00000000000E+00 0. -1.
          3   -1    0    0  502    0  0.00000000000E+00 -0.00000000000E+00 -0.17923372396E+03  0.17923372396E+03  0.00000000000E+00 0.  1.
          6    1    1    2  502    0 -0.11810637885E+03  0.45195416096E+03  0.40465477961E+03  0.64178358579E+03  0.17300000000E+03 0.  1.
         -6    1    1    2    0  501  0.11810637885E+03 -0.45195416096E+03  0.96184369228E+03  0.10831823340E+04  0.17300000000E+03 0. -1.
</event>
<event>
 4    1  0.1116913E+000  0.1000000E+03  0.7546771E-02  0.1280296E+00
          2   -1    0    0  502    0  0.00000000000E+00  0.00000000000E+00  0.19646386359E+04  0.19646386359E+04  0.00000000000E+00 0.  1.
         -2   -1    0    0    0  501 -0.00000000000E+00 -0.00000000000E+00 -0.17236453538E+02  0.17236453538E+02  0.00000000000E+00 0. -1.
          6    1    1    2  502    0 -0.49249963945E+02  0.34058586089E+02  0.10742793914E+04  0.10897663773E+04  0.17300000000E+03 0.  1.
         -6    1    1    2    0  501  0.49249963945E+02 -0.34058586089E+02  0.87312279094E+03  0.89210871215E+03  0.17300000000E+03 0. -1.
</event>
<event>
 4    1  0.1116913E+000  0.1000000E+03  0.7546771E-02  0.1280296E+00
          1   -1    0    0  502    0  0.00000000000E+00  0.00000000000E+00  0.38266819991E+03  0.38266819991E+03  0.00000000000E+00 0.  1.
         -1   -1    0    0    0  501 -0.00000000000E+00 -0.00000000000E+00 -0.13645101698E+03  0.13645101698E+03  0.00000000000E+00 0. -1.
          6    1    1    2  502    0  0.14239810706E+03 -0.36588433201E+02  0.15252210264E+03  0.27351037664E+03  0.17300000000E+03 0.  1.
         -6    1    1    2    0  501 -0.14239810706E+03  0.36588433201E+02  0.93695080288E+02  0.24560884025E+03  0.17300000000E+03 0. -1.
</event>
<event>
 4    1  0.1116913E+000  0.1000000E+03  0.7546771E-02  0.1280296E+00
          1   -1    0    0  502    0  0.00000000000E+00  0.00000000000E+00  0.54436741439E+02  0.54436741439E+02  0.00000000000E+00 0. -1.
         -1   -1    0    0    0  501 -0.00000000000E+00 -0.00000000000E+00 -0.12224534794E+04  0.12224534794E+04  0.00000000000E+00 0.  1.
          6    1    1    2  502    0  0.20829500171E+02  0.14124912861E+03 -0.89932728229E+03  0.92687849532E+03  0.17300000000E+03 0.  1.
         -6    1    1    2    0  501 -0.20829500171E+02 -0.14124912861E+03 -0.26868945564E+03  0.35001172549E+03  0.17300000000E+03 0. -1.
</event>
<event>
 4    1  0.1116913E+000  0.1000000E+03  0.7546771E-02  0.1280296E+00
          1   -1    0    0  502    0  0.00000000000E+00  0.00000000000E+00  0.21450965590E+04  0.21450965590E+04  0.00000000000E+00 0.  1.
         -1   -1    0    0    0  501 -0.00000000000E+00 -0.00000000000E+00 -0.60177477036E+02  0.60177477036E+02  0.00000000000E+00 0. -1.
          6    1    1    2  502    0 -0.22376964210E+03  0.10241130071E+03  0.16453890262E+04  0.16726610460E+04  0.17300000000E+03 0.  1.
         -6    1    1    2    0  501  0.22376964210E+03 -0.10241130071E+03  0.43953005575E+03  0.53261299003E+03  0.17300000000E+03 0. -1.
</event>
<event>
 4    1  0.1116913E+000  0.1000000E+03  0.7546771E-02  0.1280296E+00
          2   -1    0    0  502    0  0.00000000000E+00  0.00000000000E+00  0.22146440235E+04  0.22146440235E+04  0.00000000000E+00 0. -1.
         -2   -1    0    0    0  501 -0.00000000000E+00 -0.00000000000E+00 -0.35684199919E+02  0.35684199919E+02  0.00000000000E+00 0.  1.
          6    1    1    2  502    0 -0.16917653273E+03  0.88584470337E+02  0.15393042443E+04  0.15607224174E+04  0.17300000000E+03 0. -1.
         -6    1    1    2    0  501  0.16917653273E+03 -0.88584470337E+02  0.63965557930E+03  0.68960580605E+03  0.17300000000E+03 0.  1.
</event>
<event>
 4    1  0.1116913E+000  0.1000000E+03  0.7546771E-02  0.1280296E+00
          3   -1    0    0  502    0  0.00000000000E+00  0.00000000000E+00  0.51917047746E+03  0.51917047746E+03  0.00000000000E+00 0. -1.
         -3   -1    0    0    0  501 -0.00000000000E+00 -0.00000000000E+00 -0.12865422349E+03  0.12865422349E+03  0.00000000000E+00 0.  1.
          6    1    1    2  502    0  0.13351133775E+03 -0.13737210099E+03  0.21150794413E+03  0.33370792899E+03  0.17300000000E+03 0. -1.
         -6    1    1    2    0  501 -0.13351133775E+03  0.13737210099E+03  0.17900830984E+03  0.31411677197E+03  0.17300000000E+03 0.  1.
</event>
<event>
 4    1  0.1116913E+000  0.1000000E+03  0.7546771E-02  0.1280296E+00
         -1   -1    0    0    0  501 -0.00000000000E+00  0.00000000000E+00  0.15114576997E+03  0.15114576997E+03  0.00000000000E+00 0. -1.
          1   -1    0    0  502    0  0.00000000000E+00 -0.00000000000E+00 -0.37968551420E+03  0.37968551420E+03  0.00000000000E+00 0.  1.
          6    1    1    2  502    0 -0.22524129955E+02  0.13720963370E+03 -0.14401208455E+02  0.22241900731E+03  0.17300000000E+03 0. -1.
         -6    1    1    2    0  501  0.22524129955E+02 -0.13720963370E+03 -0.21413853578E+03  0.30841227686E+03  0.17300000000E+03 0.  1.
</event>
<event>
 4    1  0.1116913E+000  0.1000000E+03  0.7546771E-02  0.1280296E+00
         -2   -1    0    0    0  501 -0.00000000000E+00  0.00000000000E+00  0.59387031113E+02  0.59387031113E+02  0.00000000000E+00 0. -1.
          2   -1    0    0  502    0  0.00000000000E+00 -0.00000000000E+00 -0.24994406339E+04  0.24994406339E+04  0.00000000000E+00 0.  1.
          6    1    1    2  502    0  0.13111590897E+03  0.18330226149E+03 -0.20841663540E+04  0.21034422958E+04  0.17300000000E+03 0. -1.
         -6    1    1    2    0  501 -0.13111590897E+03 -0.18330226149E+03 -0.35588724885E+03  0.45538536927E+03  0.17300000000E+03 0.  1.
</event>
<event>
 4    1  0.1116913E+000  0.1000000E+03  0.7546771E-02  0.1280296E+00
         -2   -1    0    0    0  501 -0.00000000000E+00  0.00000000000E+00  0.35310238418E+02  0.35310238418E+02  0.00000000000E+00 0. -1.
          2   -1    0    0  502    0  0.00000000000E+00 -0.00000000000E+00 -0.11077515349E+04  0.11077515349E+04  0.00000000000E+00 0.  1.
          6    1    1    2  502    0 -0.25680134149E+02  0.15974800454E+02 -0.27340254450E+03  0.32495017292E+03  0.17300000000E+03 0. -1.
         -6    1    1    2    0  501  0.25680134149E+02 -0.15974800454E+02 -0.79903875194E+03  0.81811160035E+03  0.17300000000E+03 0.  1.
</event>
<event>
 4    1  0.1116913E+000  0.1000000E+03  0.7546771E-02  0.1280296E+00
          1   -1    0    0  502    0  0.00000000000E+00  0.00000000000E+00  0.12234636890E+04  0.12234636890E+04  0.00000000000E+00 0.  1.
         -1   -1    0    0    0  501 -0.00000000000E+00 -0.00000000000E+00 -0.79279490511E+02  0.79279490511E+02  0.00000000000E+00 0. -1.
          6    1    1    2  502    0  0.14541775683E+03 -0.18158639777E+03  0.33411712889E+03  0.44236093823E+03  0.17300000000E+03 0.  1.
         -6    1    1    2    0  501 -0.14541775683E+03  0.18158639777E+03  0.81006706958E+03  0.86038224126E+03  0.17300000000E+03 0. -1.
</event>
<event>
 4    1  0.1116913E+000  0.1000000E+03  0.7546771E-02  0.1280296E+00
          2   -1    0    0  502    0  0.00000000000E+00  0.00000000000E+00  0.60292611660E+03  0.60292611660E+03  0.00000000000E+00 0.  1.
         -2   -1    0    0    0  501 -0.00000000000E+00 -0.00000000000E+00 -0.66654257740E+02  0.66654257740E+02  0.00000000000E+00 0. -1.
          6    1    1    2  502    0 -0.65875961374E+02 -0.21698834131E+00  0.13965243202E+03  0.23188680674E+03  0.17300000000E+03 0.  1.
         -6    1    1    2    0  501  0.65875961374E+02  0.21698834131E+00  0.39661942684E+03  0.43769356760E+03  0.17300000000E+03 0. -1.
</event>
<event>
 4    1  0.1116913E+000  0.1000000E+03  0.7546771E-02  0.1280296E+00
         -2   -1    0    0    0  501 -0.00000000000E+00  0.00000000000E+00  0.20510221259E+03  0.20510221259E+03  0.00000000000E+00 0. -1.
          2   -1    0    0  502    0  0.00000000000E+00 -0.00000000000E+00 -0.25089426533E+03  0.25089426533E+03  0.00000000000E+00 0.  1.
          6    1    1    2  502    0  0.52023504083E+02 -0.11750162563E+03 -0.94085917030E+02  0.23514726617E+03  0.17300000000E+03 0.  1.
         -6    1    1    2    0  501 -0.52023504083E+02  0.11750162563E+03  0.48293864292E+02  0.22084921175E+03  0.17300000000E+03 0.  1.
</event>
<event>
 4    1  0.1116913E+000  0.1000000E+03  0.7546771E-02  0.1280296E+00
         -2   -1    0    0    0  501 -0.00000000000E+00  0.00000000000E+00  0.19480422668E+02  0.19480422668E+02  0.00000000000E+00 0. -1.
          2   -1    0    0  502    0  0.00000000000E+00 -0.00000000000E+00 -0.17463907508E+04  0.17463907508E+04  0.00000000000E+00 0.  1.
          6    1    1    2  502    0  0.27185546451E+02 -0.13753959457E+02 -0.59422558868E+03  0.61964608898E+03  0.17300000000E+03 0.  1.
         -6    1    1    2    0  501 -0.27185546451E+02  0.13753959457E+02 -0.11326847394E+04  0.11462250844E+04  0.17300000000E+03 0.  1.
</event>
<event>
 4    1  0.1116913E+000  0.1000000E+03  0.7546771E-02  0.1280296E+00
         -2   -1    0    0    0  501 -0.00000000000E+00  0.00000000000E+00  0.71992995797E+03  0.71992995797E+03  0.00000000000E+00 0. -1.
          2   -1    0    0  502    0  0.00000000000E+00 -0.00000000000E+00 -0.10422652680E+03  0.10422652680E+03  0.00000000000E+00 0.  1.
          6    1    1    2  502    0 -0.15896121409E+02 -0.19630513785E+03  0.42742913226E+03  0.50141106582E+03  0.17300000000E+03 0.  1.
         -6    1    1    2    0  501  0.15896121409E+02  0.19630513785E+03  0.18827429891E+03  0.32274541895E+03  0.17300000000E+03 0.  1.
</event>
<event>
 4    1  0.1116913E+000  0.1000000E+03  0.7546771E-02  0.1280296E+00
          4   -1    0    0  502    0  0.00000000000E+00  0.00000000000E+00  0.67682420599E+02  0.67682420599E+02  0.00000000000E+00 0.  1.
         -4   -1    0    0    0  501 -0.00000000000E+00 -0.00000000000E+00 -0.90149399262E+03  0.90149399262E+03  0.00000000000E+00 0. -1.
          6    1    1    2  502    0 -0.17371927104E+03 -0.68214762911E+01 -0.35932861201E+03  0.43505283481E+03  0.17300000000E+03 0.  1.
         -6    1    1    2    0  501  0.17371927104E+03  0.68214762911E+01 -0.47448296001E+03  0.53412357840E+03  0.17300000000E+03 0. -1.
</event>
<event>
 4    1  0.1116913E+000  0.1000000E+03  0.7546771E-02  0.1280296E+00
          2   -1    0    0  502    0  0.00000000000E+00  0.00000000000E+00  0.48392324691E+03  0.48392324691E+03  0.00000000000E+00 0.  1.
         -2   -1    0    0    0  501 -0.00000000000E+00 -0.00000000000E+00 -0.69915300055E+02  0.69915300055E+02  0.00000000000E+00 0. -1.
          6    1    1    2  502    0 -0.26318650506E+02 -0.55679041047E+02  0.22292324180E+03  0.28881931845E+03  0.17300000000E+03 0. -1.
         -6    1    1    2    0  501  0.26318650506E+02  0.55679041047E+02  0.19108470506E+03  0.26501922852E+03  0.17300000000E+03 0.  1.
</event>
<event>
 4    1  0.1116913E+000  0.1000000E+03  0.7546771E-02  0.1280296E+00
          2   -1    0    0  502    0  0.00000000000E+00  0.00000000000E+00  0.33426514604E+03  0.33426514604E+03  0.00000000000E+00 0.  1.
         -2   -1    0    0    0  501 -0.00000000000E+00 -0.00000000000E+00 -0.25529830620E+03  0.25529830620E+03  0.00000000000E+00 0. -1.
          6    1    1    2  502    0  0.15799541526E+03 -0.75778754500E+02 -0.11911870834E+03  0.27353836578E+03  0.17300000000E+03 0. -1.
         -6    1    1    2    0  501 -0.15799541526E+03  0.75778754500E+02  0.19808554818E+03  0.31602508646E+03  0.17300000000E+03 0.  1.
</event>
<event>
 4    1  0.1116913E+000  0.1000000E+03  0.7546771E-02  0.1280296E+00
          2   -1    0    0  502    0  0.00000000000E+00  0.00000000000E+00  0.28624269736E+04  0.28624269736E+04  0.00000000000E+00 0.  1.
         -2   -1    0    0    0  501 -0.00000000000E+00 -0.00000000000E+00 -0.20212756267E+02  0.20212756267E+02  0.00000000000E+00 0. -1.
          6    1    1    2  502    0 -0.79502310357E+02  0.13848933758E+03  0.11258090408E+04  0.11501629930E+04  0.17300000000E+03 0. -1.
         -6    1    1    2    0  501  0.79502310357E+02 -0.13848933758E+03  0.17164051765E+04  0.17324767369E+04  0.17300000000E+03 0.  1.
</event>
<event>
 4    1  0.1116913E+000  0.1000000E+03  0.7546771E-02  0.1280296E+00
         -1   -1    0    0    0  501 -0.00000000000E+00  0.00000000000E+00  0.13999959625E+03  0.13999959625E+03  0.00000000000E+00 0.  1.
          1   -1    0    0  502    0  0.00000000000E+00 -0.00000000000E+00 -0.22428101569E+03  0.22428101569E+03  0.00000000000E+00 0. -1.
          6    1    1    2  502    0 -0.38236309290E+02 -0.80619053626E+00 -0.39309559686E+02  0.18148527977E+03  0.17300000000E+03 0. -1.
         -6    1    1    2    0  501  0.38236309290E+02  0.80619053626E+00 -0.44971859761E+02  0.18279533217E+03  0.17300000000E+03 0.  1.
</event>
<event>
 4    1  0.1116913E+000  0.1000000E+03  0.7546771E-02  0.1280296E+00
          2   -1    0    0  502    0  0.00000000000E+00  0.00000000000E+00  0.69704933662E+03  0.69704933662E+03  0.00000000000E+00 0.  1.
         -2   -1    0    0    0  501 -0.00000000000E+00 -0.00000000000E+00 -0.12056618019E+03  0.12056618019E+03  0.00000000000E+00 0. -1.
          6    1    1    2  502    0  0.72335976515E+02  0.91732662681E+02  0.57190941975E+03  0.60881586650E+03  0.17300000000E+03 0.  1.
         -6    1    1    2    0  501 -0.72335976515E+02 -0.91732662681E+02  0.45737366803E+01  0.20879965031E+03  0.17300000000E+03 0. -1.
</event>
<event>
 4    1  0.1116913E+000  0.1000000E+03  0.7546771E-02  0.1280296E+00
          1   -1    0    0  502    0  0.00000000000E+00  0.00000000000E+00  0.48706862120E+03  0.48706862120E+03  0.00000000000E+00 0.  1.
         -1   -1    0    0    0  501 -0.00000000000E+00 -0.00000000000E+00 -0.87993933693E+02  0.87993933693E+02  0.00000000000E+00 0. -1.
          6    1    1    2  502    0 -0.29709519391E+02  0.98103936959E+02  0.13117066565E+03  0.24008702905E+03  0.17300000000E+03 0.  1.
         -6    1    1    2    0  501  0.29709519391E+02 -0.98103936959E+02  0.26790402186E+03  0.33497552585E+03  0.17300000000E+03 0. -1.
</event>
<event>
 4    1  0.1116913E+000  0.1000000E+03  0.7546771E-02  0.1280296E+00
         -1   -1    0    0    0  501 -0.00000000000E+00  0.00000000000E+00  0.37457925937E+03  0.37457925937E+03  0.00000000000E+00 0.  1.
          1   -1    0    0  502    0  0.00000000000E+00 -0.00000000000E+00 -0.12096297145E+03  0.12096297145E+03  0.00000000000E+00 0. -1.
          6    1    1    2  502    0  0.10044863409E+03 -0.51067887368E+02  0.66511615784E+02  0.21691162312E+03  0.17300000000E+03 0.  1.
         -6    1    1    2    0  501 -0.10044863409E+03  0.51067887368E+02  0.18710467213E+03  0.27863060770E+03  0.17300000000E+03 0. -1.
</event>
<event>
 4    1  0.1116913E+000  0.1000000E+03  0.7546771E-02  0.1280296E+00
         -3   -1    0    0    0  501 -0.00000000000E+00  0.00000000000E+00  0.18734094099E+03  0.18734094099E+03  0.00000000000E+00 0.  1.
          3   -1    0    0  502    0  0.00000000000E+00 -0.00000000000E+00 -0.33189397133E+03  0.33189397133E+03  0.00000000000E+00 0. -1.
          6    1    1    2  502    0 -0.83566523842E+02  0.14353523689E+03 -0.11826747725E+01  0.23982520062E+03  0.17300000000E+03 0.  1.
         -6    1    1    2    0  501  0.83566523842E+02 -0.14353523689E+03 -0.14337035557E+03  0.27940971170E+03  0.17300000000E+03 0. -1.
</event>
<event>
 4    1  0.1116913E+000  0.1000000E+03  0.7546771E-02  0.1280296E+00
         -2   -1    0    0    0  501 -0.00000000000E+00  0.00000000000E+00  0.23249423105E+03  0.23249423105E+03  0.00000000000E+00 0.  1.
          2   -1    0    0  502    0  0.00000000000E+00 -0.00000000000E+00 -0.29576104049E+03  0.29576104049E+03  0.00000000000E+00 0. -1.
          6    1    1    2  502    0  0.10945339975E+03  0.16061046960E+03 -0.64395610225E+02  0.26805142096E+03  0.17300000000E+03 0.  1.
         -6    1    1    2    0  501 -0.10945339975E+03 -0.16061046960E+03  0.11288007915E+01  0.26020385058E+03  0.17300000000E+03 0. -1.
</event>
<event>
 4    1  0.1116913E+000  0.1000000E+03  0.7546771E-02  0.1280296E+00
         -2   -1    0    0    0  501 -0.00000000000E+00  0.00000000000E+00  0.14556442981E+03  0.14556442981E+03  0.00000000000E+00 0.  1.
          2   -1    0    0  502    0  0.00000000000E+00 -0.00000000000E+00 -0.31553027065E+03  0.31553027065E+03  0.00000000000E+00 0. -1.
          6    1    1    2  502    0 -0.12360842515E+03  0.19096121268E+01 -0.56151683632E+02  0.21991976028E+03  0.17300000000E+03 0.  1.
         -6    1    1    2    0  501  0.12360842515E+03 -0.19096121268E+01 -0.11381415721E+03  0.24117494017E+03  0.17300000000E+03 0. -1.
</event>
<event>
 4    1  0.1116913E+000  0.1000000E+03  0.7546771E-02  0.1280296E+00
          2   -1    0    0  502    0  0.00000000000E+00  0.00000000000E+00  0.23885292314E+04  0.23885292314E+04  0.00000000000E+00 0. -1.
         -2   -1    0    0    0  501 -0.00000000000E+00 -0.00000000000E+00 -0.16391589430E+02  0.16391589430E+02  0.00000000000E+00 0.  1.
          6    1    1    2  502    0 -0.42585565451E+02 -0.85786486069E+02  0.11431236271E+04  0.11601006329E+04  0.17300000000E+03 0. -1.
         -6    1    1    2    0  501  0.42585565451E+02  0.85786486069E+02  0.12290140148E+04  0.12448201879E+04  0.17300000000E+03 0.  1.
</event>
<event>
 4    1  0.1116913E+000  0.1000000E+03  0.7546771E-02  0.1280296E+00
         -1   -1    0    0    0  501 -0.00000000000E+00  0.00000000000E+00  0.71848531753E+02  0.71848531753E+02  0.00000000000E+00 0.  1.
          1   -1    0    0  502    0  0.00000000000E+00 -0.00000000000E+00 -0.82659701110E+03  0.82659701110E+03  0.00000000000E+00 0. -1.
          6    1    1    2  502    0  0.52618815064E+02  0.16251614390E+03 -0.34649923254E+03  0.42328590205E+03  0.17300000000E+03 0.  1.
         -6    1    1    2    0  501 -0.52618815064E+02 -0.16251614390E+03 -0.40824924681E+03  0.47515964081E+03  0.17300000000E+03 0. -1.
</event>
<event>
 4    1  0.1116913E+000  0.1000000E+03  0.7546771E-02  0.1280296E+00
         -1   -1    0    0    0  501 -0.00000000000E+00  0.00000000000E+00  0.40149609583E+02  0.40149609583E+02  0.00000000000E+00 0.  1.
          1   -1    0    0  502    0  0.00000000000E+00 -0.00000000000E+00 -0.11772595957E+04  0.11772595957E+04  0.00000000000E+00 0. -1.
          6    1    1    2  502    0  0.10961697735E+03  0.24291446776E+01 -0.77268708557E+03  0.79937232544E+03  0.17300000000E+03 0. -1.
         -6    1    1    2    0  501 -0.10961697735E+03 -0.24291446776E+01 -0.36442290052E+03  0.41803687982E+03  0.17300000000E+03 0.  1.
</event>
<event>
 4    1  0.1116913E+000  0.1000000E+03  0.7546771E-02  0.1280296E+00
         -2   -1    0    0    0  501 -0.00000000000E+00  0.00000000000E+00  0.60574241851E+02  0.60574241851E+02  0.00000000000E+00 0.  1.
          2   -1    0    0  502    0  0.00000000000E+00 -0.00000000000E+00 -0.51610094724E+03  0.51610094724E+03  0.00000000000E+00 0. -1.
          6    1    1    2  502    0  0.37835841449E+01  0.12812280022E+02 -0.17234262653E+03  0.24455970835E+03  0.17300000000E+03 0. -1.
         -6    1    1    2    0  501 -0.37835841449E+01 -0.12812280022E+02 -0.28318407886E+03  0.33211548074E+03  0.17300000000E+03 0.  1.
</event>
<event>
 4    1  0.1116913E+000  0.1000000E+03  0.7546771E-02  0.1280296E+00
         -1   -1    0    0    0  501 -0.00000000000E+00  0.00000000000E+00  0.31640403032E+03  0.31640403032E+03  0.00000000000E+00 0.  1.
          1   -1    0    0  502    0  0.00000000000E+00 -0.00000000000E+00 -0.55404846222E+03  0.55404846222E+03  0.00000000000E+00 0. -1.
          6    1    1    2  502    0  0.60544694280E+02 -0.17445950390E+03 -0.46557016528E+03  0.52989277906E+03  0.17300000000E+03 0. -1.
         -6    1    1    2    0  501 -0.60544694280E+02  0.17445950390E+03  0.22792573338E+03  0.34055971347E+03  0.17300000000E+03 0.  1.
</event>
<event>
 4    1  0.1116913E+000  0.1000000E+03  0.7546771E-02  0.1280296E+00
         -2   -1    0    0    0  501 -0.00000000000E+00  0.00000000000E+00  0.26247607048E+02  0.26247607048E+02  0.00000000000E+00 0. -1.
          2   -1    0    0  502    0  0.00000000000E+00 -0.00000000000E+00 -0.12071431319E+04  0.12071431319E+04  0.00000000000E+00 0.  1.
          6    1    1    2  502    0 -0.15252456996E+02 -0.36926470001E+02 -0.54670424645E+03  0.57481365217E+03  0.17300000000E+03 0.  1.
         -6    1    1    2    0  501  0.15252456996E+02  0.36926470001E+02 -0.63419127837E+03  0.65857708675E+03  0.17300000000E+03 0. -1.
</event>
<event>
 4    1  0.1116913E+000  0.1000000E+03  0.7546771E-02  0.1280296E+00
         -2   -1    0    0    0  501 -0.00000000000E+00  0.00000000000E+00  0.94333158146E+03  0.94333158146E+03  0.00000000000E+00 0. -1.
          2   -1    0    0  502    0  0.00000000000E+00 -0.00000000000E+00 -0.64532960282E+03  0.64532960282E+03  0.00000000000E+00 0.  1.
          6    1    1    2  502    0  0.43286262215E+02  0.73010663736E+03 -0.64312075297E+02  0.75431720479E+03  0.17300000000E+03 0.  1.
         -6    1    1    2    0  501 -0.43286262215E+02 -0.73010663736E+03  0.36231405394E+03  0.83434397948E+03  0.17300000000E+03 0. -1.
</event>
<event>
 4    1  0.1116913E+000  0.1000000E+03  0.7546771E-02  0.1280296E+00
         -2   -1    0    0    0  501 -0.00000000000E+00  0.00000000000E+00  0.35205972896E+03  0.35205972896E+03  0.00000000000E+00 0.  1.
          2   -1    0    0  502    0  0.00000000000E+00 -0.00000000000E+00 -0.25029823172E+03  0.25029823172E+03  0.00000000000E+00 0. -1.
          6    1    1    2  502    0  0.13930912845E+03  0.78144125834E+02  0.23428579162E+03  0.33216316747E+03  0.17300000000E+03 0.  1.
         -6    1    1    2    0  501 -0.13930912845E+03 -0.78144125834E+02 -0.13252429438E+03  0.27019479320E+03  0.17300000000E+03 0. -1.
</event>
<event>
 4    1  0.1116913E+000  0.1000000E+03  0.7546771E-02  0.1280296E+00
         -2   -1    0    0    0  501 -0.00000000000E+00  0.00000000000E+00  0.89965536954E+02  0.89965536954E+02  0.00000000000E+00 0.  1.
          2   -1    0    0  502    0  0.00000000000E+00 -0.00000000000E+00 -0.18207530434E+04  0.18207530434E+04  0.00000000000E+00 0. -1.
          6    1    1    2  502    0 -0.17689030387E+03  0.30529103931E+03 -0.10940479782E+04  0.11624813018E+04  0.17300000000E+03 0.  1.
         -6    1    1    2    0  501  0.17689030387E+03 -0.30529103931E+03 -0.63673952825E+03  0.74823727862E+03  0.17300000000E+03 0. -1.
</event>
<event>
 4    1  0.1116913E+000  0.1000000E+03  0.7546771E-02  0.1280296E+00
         -3   -1    0    0    0  501 -0.00000000000E+00  0.00000000000E+00  0.37807511824E+02  0.37807511824E+02  0.00000000000E+00 0. -1.
          3   -1    0    0  502    0  0.00000000000E+00 -0.00000000000E+00 -0.15258195023E+04  0.15258195023E+04  0.00000000000E+00 0.  1.
          6    1    1    2  502    0  0.23452400460E+02  0.16162751500E+03 -0.63678707192E+03  0.67977955520E+03  0.17300000000E+03 0. -1.
         -6    1    1    2    0  501 -0.23452400460E+02 -0.16162751500E+03 -0.85122491856E+03  0.88384745894E+03  0.17300000000E+03 0. -1.
</event>
<event>
 4    1  0.1116913E+000  0.1000000E+03  0.7546771E-02  0.1280296E+00
         -2   -1    0    0    0  501 -0.00000000000E+00  0.00000000000E+00  0.22598295000E+02  0.22598295000E+02  0.00000000000E+00 0. -1.
          2   -1    0    0  502    0  0.00000000000E+00 -0.00000000000E+00 -0.14698368987E+04  0.14698368987E+04  0.00000000000E+00 0.  1.
          6    1    1    2  502    0 -0.11066152259E+02  0.47044333508E+02 -0.84989627311E+03  0.86867042316E+03  0.17300000000E+03 0.  1.
         -6    1    1    2    0  501  0.11066152259E+02 -0.47044333508E+02 -0.59734233056E+03  0.62376477050E+03  0.17300000000E+03 0. -1.
</event>
<event>
 4    1  0.1116913E+000  0.1000000E+03  0.7546771E-02  0.1280296E+00
         -2   -1    0    0    0  501 -0.00000000000E+00  0.00000000000E+00  0.24447436384E+02  0.24447436384E+02  0.00000000000E+00 0.  1.
          2   -1    0    0  502    0  0.00000000000E+00 -0.00000000000E+00 -0.15361925567E+04  0.15361925567E+04  0.00000000000E+00 0. -1.
          6    1    1    2  502    0  0.85803829499E+02 -0.57266247850E+01 -0.69455802962E+03  0.72092645110E+03  0.17300000000E+03 0.  1.
         -6    1    1    2    0  501 -0.85803829499E+02  0.57266247850E+01 -0.81718709072E+03  0.83971354200E+03  0.17300000000E+03 0.  1.
</event>
<event>
 4    1  0.1116913E+000  0.1000000E+03  0.7546771E-02  0.1280296E+00
         -1   -1    0    0    0  501 -0.00000000000E+00  0.00000000000E+00  0.97182260119E+02  0.97182260119E+02  0.00000000000E+00 0.  1.
          1   -1    0    0  502    0  0.00000000000E+00 -0.00000000000E+00 -0.63431571855E+03  0.63431571855E+03  0.00000000000E+00 0. -1.
          6    1    1    2  502    0  0.81522004039E+02 -0.99964465569E+02 -0.44944534212E+03  0.49856679299E+03  0.17300000000E+03 0.  1.
         -6    1    1    2    0  501 -0.81522004039E+02  0.99964465569E+02 -0.87688116309E+02  0.23293118568E+03  0.17300000000E+03 0.  1.
</event>
<event>
 4    1  0.1116913E+000  0.1000000E+03  0.7546771E-02  0.1280296E+00
          2   -1    0    0  502    0  0.00000000000E+00  0.00000000000E+00  0.13240403217E+04  0.13240403217E+04  0.00000000000E+00 0. -1.
         -2   -1    0    0    0  501 -0.00000000000E+00 -0.00000000000E+00 -0.39413513281E+02  0.39413513281E+02  0.00000000000E+00 0.  1.
          6    1    1    2  502    0 -0.13936867744E+03 -0.31726014407E+02  0.51479371363E+03  0.56157967898E+03  0.17300000000E+03 0.  1.
         -6    1    1    2    0  501  0.13936867744E+03  0.31726014407E+02  0.76983309478E+03  0.80187415600E+03  0.17300000000E+03 0. -1.
</event>
<event>
 4    1  0.1116913E+000  0.1000000E+03  0.7546771E-02  0.1280296E+00
          1   -1    0    0  502    0  0.00000000000E+00  0.00000000000E+00  0.13469171718E+04  0.13469171718E+04  0.00000000000E+00 0.  1.
         -1   -1    0    0    0  501 -0.00000000000E+00 -0.00000000000E+00 -0.96338886004E+02  0.96338886004E+02  0.00000000000E+00 0. -1.
          6    1    1    2  502    0 -0.16427968657E+03 -0.35932557043E+02  0.11611532313E+04  0.11859531149E+04  0.17300000000E+03 0. -1.
         -6    1    1    2    0  501  0.16427968657E+03  0.35932557043E+02  0.89425054484E+02  0.25730294294E+03  0.17300000000E+03 0. -1.
</event>
<event>
 4    1  0.1116913E+000  0.1000000E+03  0.7546771E-02  0.1280296E+00
         -1   -1    0    0    0  501 -0.00000000000E+00  0.00000000000E+00  0.24991090206E+03  0.24991090206E+03  0.00000000000E+00 0. -1.
          1   -1    0    0  502    0  0.00000000000E+00 -0.00000000000E+00 -0.16987015859E+03  0.16987015859E+03  0.00000000000E+00 0.  1.
          6    1    1    2  502    0 -0.84627884356E+01 -0.96670347354E+02  0.96799202370E+02  0.22071669721E+03  0.17300000000E+03 0.  1.
         -6    1    1    2    0  501  0.84627884356E+01  0.96670347354E+02 -0.16758458901E+02  0.19906436344E+03  0.17300000000E+03 0. -1.
</event>
<event>
 4    1  0.1116913E+000  0.1000000E+03  0.7546771E-02  0.1280296E+00
         -1   -1    0    0    0  501 -0.00000000000E+00  0.00000000000E+00  0.28796393693E+03  0.28796393693E+03  0.00000000000E+00 0. -1.
          1   -1    0    0  502    0  0.00000000000E+00 -0.00000000000E+00 -0.17597539983E+03  0.17597539983E+03  0.00000000000E+00 0.  1.
          6    1    1    2  502    0  0.75244724944E+02  0.32283340334E+02 -0.66113770241E+02  0.20249447723E+03  0.17300000000E+03 0.  1.
         -6    1    1    2    0  501 -0.75244724944E+02 -0.32283340334E+02  0.17810230734E+03  0.26144485953E+03  0.17300000000E+03 0. -1.
</event>
<event>
 4    1  0.1116913E+000  0.1000000E+03  0.7546771E-02  0.1280296E+00
         -1   -1    0    0    0  501 -0.00000000000E+00  0.00000000000E+00  0.78288505071E+02  0.78288505071E+02  0.00000000000E+00 0. -1.
          1   -1    0    0  502    0  0.00000000000E+00 -0.00000000000E+00 -0.84277249163E+03  0.84277249163E+03  0.00000000000E+00 0.  1.
          6    1    1    2  502    0  0.12182674807E+03  0.13819602748E+03 -0.29987619893E+03  0.39216658864E+03  0.17300000000E+03 0.  1.
         -6    1    1    2    0  501 -0.12182674807E+03 -0.13819602748E+03 -0.46460778762E+03  0.52889440806E+03  0.17300000000E+03 0. -1.
</event>
<event>
 4    1  0.1116913E+000  0.1000000E+03  0.7546771E-02  0.1280296E+00
         -1   -1    0    0    0  501 -0.00000000000E+00  0.00000000000E+00  0.54273670045E+02  0.54273670045E+02  0.00000000000E+00 0. -1.
          1   -1    0    0  502    0  0.00000000000E+00 -0.00000000000E+00 -0.70588150016E+03  0.70588150016E+03  0.00000000000E+00 0.  1.
          6    1    1    2  502    0 -0.76255066743E+02  0.33869231449E+02 -0.25263470865E+03  0.31735667010E+03  0.17300000000E+03 0.  1.
         -6    1    1    2    0  501  0.76255066743E+02 -0.33869231449E+02 -0.39897312146E+03  0.44279850010E+03  0.17300000000E+03 0. -1.
</event>
<event>
 4    1  0.1116913E+000  0.1000000E+03  0.7546771E-02  0.1280296E+00
          1   -1    0    0  502    0  0.00000000000E+00  0.00000000000E+00  0.27274834928E+02  0.27274834928E+02  0.00000000000E+00 0.  1.
         -1   -1    0    0    0  501 -0.00000000000E+00 -0.00000000000E+00 -0.27151586772E+04  0.27151586772E+04  0.00000000000E+00 0. -1.
          6    1    1    2  502    0 -0.65545424215E+02 -0.12844115666E+03 -0.21136292268E+04  0.21255942326E+04  0.17300000000E+03 0. -1.
         -6    1    1    2    0  501  0.65545424215E+02  0.12844115666E+03 -0.57425461553E+03  0.61683927956E+03  0.17300000000E+03 0.  1.
</event>
<event>
 4    1  0.1116913E+000  0.1000000E+03  0.7546771E-02  0.1280296E+00
          2   -1    0    0  502    0  0.00000000000E+00  0.00000000000E+00  0.49569408323E+03  0.49569408323E+03  0.00000000000E+00 0.  1.
         -2   -1    0    0    0  501 -0.00000000000E+00 -0.00000000000E+00 -0.65421500403E+02  0.65421500403E+02  0.00000000000E+00 0. -1.
          6    1    1    2  502    0 -0.27271536585E+02  0.20422171443E+02  0.27215086252E+03  0.32427749500E+03  0.17300000000E+03 0. -1.
         -6    1    1    2    0  501  0.27271536585E+02 -0.20422171443E+02  0.15812172031E+03  0.23683808863E+03  0.17300000000E+03 0.  1.
</event>
<event>
 4    1  0.1116913E+000  0.1000000E+03  0.7546771E-02  0.1280296E+00
          2   -1    0    0  502    0  0.00000000000E+00  0.00000000000E+00  0.22325999330E+03  0.22325999330E+03  0.00000000000E+00 0.  1.
         -2   -1    0    0    0  501 -0.00000000000E+00 -0.00000000000E+00 -0.20313336161E+03  0.20313336161E+03  0.00000000000E+00 0. -1.
          6    1    1    2  502    0  0.56162035259E+02  0.44318678914E+02  0.11168635885E+03  0.21799349132E+03  0.17300000000E+03 0. -1.
         -6    1    1    2    0  501 -0.56162035259E+02 -0.44318678914E+02 -0.91559727157E+02  0.20839986358E+03  0.17300000000E+03 0.  1.
</event>
<event>
 4    1  0.1116913E+000  0.1000000E+03  0.7546771E-02  0.1280296E+00
          2   -1    0    0  502    0  0.00000000000E+00  0.00000000000E+00  0.16778501063E+03  0.16778501063E+03  0.00000000000E+00 0. -1.
         -2   -1    0    0    0  501 -0.00000000000E+00 -0.00000000000E+00 -0.28800942553E+03  0.28800942553E+03  0.00000000000E+00 0.  1.
          6    1    1    2  502    0  0.53404824946E+02  0.12353061430E+02 -0.18872325553E+03  0.26182081780E+03  0.17300000000E+03 0. -1.
         -6    1    1    2    0  501 -0.53404824946E+02 -0.12353061430E+02  0.68498840630E+02  0.19397361837E+03  0.17300000000E+03 0.  1.
</event>
<event>
 4    1  0.1116913E+000  0.1000000E+03  0.7546771E-02  0.1280296E+00
          1   -1    0    0  502    0  0.00000000000E+00  0.00000000000E+00  0.41282838634E+03  0.41282838634E+03  0.00000000000E+00 0.  1.
         -1   -1    0    0    0  501 -0.00000000000E+00 -0.00000000000E+00 -0.10360271833E+03  0.10360271833E+03  0.00000000000E+00 0. -1.
          6    1    1    2  502    0  0.71185378671E+02  0.28499483314E+02  0.50437364668E+02  0.19583795965E+03  0.17300000000E+03 0.  1.
         -6    1    1    2    0  501 -0.71185378671E+02 -0.28499483314E+02  0.25878830335E+03  0.32059314502E+03  0.17300000000E+03 0. -1.
</event>
<event>
 4    1  0.1116913E+000  0.1000000E+03  0.7546771E-02  0.1280296E+00
          2   -1    0    0  502    0  0.00000000000E+00  0.00000000000E+00  0.11228867800E+04  0.11228867800E+04  0.00000000000E+00 0.  1.
         -2   -1    0    0    0  501 -0.00000000000E+00 -0.00000000000E+00 -0.54520179371E+02  0.54520179371E+02  0.00000000000E+00 0. -1.
          6    1    1    2  502    0 -0.17633526628E+03 -0.12208267056E+02  0.55063679384E+03  0.60363320539E+03  0.17300000000E+03 0.  1.
         -6    1    1    2    0  501  0.17633526628E+03  0.12208267056E+02  0.51772980677E+03  0.57377375396E+03  0.17300000000E+03 0. -1.
</event>
<event>
 4    1  0.1116913E+000  0.1000000E+03  0.7546771E-02  0.1280296E+00
          1   -1    0    0  502    0  0.00000000000E+00  0.00000000000E+00  0.13351469589E+04  0.13351469589E+04  0.00000000000E+00 0. -1.
         -1   -1    0    0    0  501 -0.00000000000E+00 -0.00000000000E+00 -0.64668641474E+02  0.64668641474E+02  0.00000000000E+00 0.  1.
          6    1    1    2  502    0 -0.18255481978E+03 -0.11004118050E+03  0.38567201404E+03  0.47339964728E+03  0.17300000000E+03 0. -1.
         -6    1    1    2    0  501  0.18255481978E+03  0.11004118050E+03  0.88480630337E+03  0.92641595308E+03  0.17300000000E+03 0.  1.
</event>
<event>
 4    1  0.1116913E+000  0.1000000E+03  0.7546771E-02  0.1280296E+00
          1   -1    0    0  502    0  0.00000000000E+00  0.00000000000E+00  0.12817011705E+04  0.12817011705E+04  0.00000000000E+00 0. -1.
         -1   -1    0    0    0  501 -0.00000000000E+00 -0.00000000000E+00 -0.32375879171E+02  0.32375879171E+02  0.00000000000E+00 0.  1.
          6    1    1    2  502    0 -0.90000371932E+02 -0.53057404241E+02  0.54230078391E+03  0.57873508216E+03  0.17300000000E+03 0. -1.
         -6    1    1    2    0  501  0.90000371932E+02  0.53057404241E+02  0.70702450741E+03  0.73534196750E+03  0.17300000000E+03 0.  1.
</event>
<event>
 4    1  0.1116913E+000  0.1000000E+03  0.7546771E-02  0.1280296E+00
          1   -1    0    0  502    0  0.00000000000E+00  0.00000000000E+00  0.16180558025E+04  0.16180558025E+04  0.00000000000E+00 0. -1.
         -1   -1    0    0    0  501 -0.00000000000E+00 -0.00000000000E+00 -0.23114859029E+02  0.23114859029E+02  0.00000000000E+00 0.  1.
          6    1    1    2  502    0 -0.21497233152E+02  0.62864209456E+02  0.56282798972E+03  0.59255243301E+03  0.17300000000E+03 0. -1.
         -6    1    1    2    0  501  0.21497233152E+02 -0.62864209456E+02  0.10321129538E+04  0.10486182285E+04  0.17300000000E+03 0.  1.
</event>
<event>
 4    1  0.1116913E+000  0.1000000E+03  0.7546771E-02  0.1280296E+00
         -2   -1    0    0    0  501 -0.00000000000E+00  0.00000000000E+00  0.12254332669E+03  0.12254332669E+03  0.00000000000E+00 0.  1.
          2   -1    0    0  502    0  0.00000000000E+00 -0.00000000000E+00 -0.30071615864E+03  0.30071615864E+03  0.00000000000E+00 0. -1.
          6    1    1    2  502    0 -0.49674960338E+01  0.69679205326E+02 -0.39270313703E+02  0.19065944826E+03  0.17300000000E+03 0. -1.
         -6    1    1    2    0  501  0.49674960338E+01 -0.69679205326E+02 -0.13890251825E+03  0.23260003708E+03  0.17300000000E+03 0.  1.
</event>
<event>
 4    1  0.1116913E+000  0.1000000E+03  0.7546771E-02  0.1280296E+00
         -2   -1    0    0    0  501 -0.00000000000E+00  0.00000000000E+00  0.52880196297E+03  0.52880196297E+03  0.00000000000E+00 0.  1.
          2   -1    0    0  502    0  0.00000000000E+00 -0.00000000000E+00 -0.41083579177E+03  0.41083579177E+03  0.00000000000E+00 0. -1.
          6    1    1    2  502    0 -0.13663056572E+03  0.26937338342E+03  0.37144209863E+03  0.50904632778E+03  0.17300000000E+03 0. -1.
         -6    1    1    2    0  501  0.13663056572E+03 -0.26937338342E+03 -0.25347592744E+03  0.43059142696E+03  0.17300000000E+03 0.  1.
</event>
<event>
 4    1  0.1116913E+000  0.1000000E+03  0.7546771E-02  0.1280296E+00
         -2   -1    0    0    0  501 -0.00000000000E+00  0.00000000000E+00  0.13786750316E+03  0.13786750316E+03  0.00000000000E+00 0.  1.
          2   -1    0    0  502    0  0.00000000000E+00 -0.00000000000E+00 -0.34158947362E+03  0.34158947362E+03  0.00000000000E+00 0. -1.
          6    1    1    2  502    0  0.12121528646E+03  0.32038715114E+02 -0.14386007962E+03  0.25757396500E+03  0.17300000000E+03 0. -1.
         -6    1    1    2    0  501 -0.12121528646E+03 -0.32038715114E+02 -0.59861890836E+02  0.22188301177E+03  0.17300000000E+03 0.  1.
</event>
<event>
 4    1  0.1116913E+000  0.1000000E+03  0.7546771E-02  0.1280296E+00
         -4   -1    0    0    0  501 -0.00000000000E+00  0.00000000000E+00  0.90954135520E+02  0.90954135520E+02  0.00000000000E+00 0.  1.
          4   -1    0    0  502    0  0.00000000000E+00 -0.00000000000E+00 -0.45398805966E+03  0.45398805966E+03  0.00000000000E+00 0. -1.
          6    1    1    2  502    0 -0.91855365248E+02  0.17242049410E+02 -0.11277335349E+03  0.22667493388E+03  0.17300000000E+03 0.  1.
         -6    1    1    2    0  501  0.91855365248E+02 -0.17242049410E+02 -0.25026057064E+03  0.31826726129E+03  0.17300000000E+03 0. -1.
</event>
<event>
 4    1  0.1116913E+000  0.1000000E+03  0.7546771E-02  0.1280296E+00
         -2   -1    0    0    0  501 -0.00000000000E+00  0.00000000000E+00  0.67942925141E+03  0.67942925141E+03  0.00000000000E+00 0.  1.
          2   -1    0    0  502    0  0.00000000000E+00 -0.00000000000E+00 -0.18626299124E+03  0.18626299124E+03  0.00000000000E+00 0. -1.
          6    1    1    2  502    0  0.12910863405E+03 -0.25994289259E+03  0.38198719884E+03  0.50998290841E+03  0.17300000000E+03 0.  1.
         -6    1    1    2    0  501 -0.12910863405E+03  0.25994289259E+03  0.11117906133E+03  0.35570933425E+03  0.17300000000E+03 0. -1.
</event>
<event>
 4    1  0.1116913E+000  0.1000000E+03  0.7546771E-02  0.1280296E+00
         -1   -1    0    0    0  501 -0.00000000000E+00  0.00000000000E+00  0.13812216844E+04  0.13812216844E+04  0.00000000000E+00 0.  1.
          1   -1    0    0  502    0  0.00000000000E+00 -0.00000000000E+00 -0.37704521714E+02  0.37704521714E+02  0.00000000000E+00 0. -1.
          6    1    1    2  502    0 -0.12305855770E+03 -0.10685117841E+02  0.92984508666E+03  0.95383356281E+03  0.17300000000E+03 0. -1.
         -6    1    1    2    0  501  0.12305855770E+03  0.10685117841E+02  0.41367207600E+03  0.46509264328E+03  0.17300000000E+03 0.  1.
</event>
<event>
 4    1  0.1116913E+000  0.1000000E+03  0.7546771E-02  0.1280296E+00
         -1   -1    0    0    0  501 -0.00000000000E+00  0.00000000000E+00  0.24468325759E+03  0.24468325759E+03  0.00000000000E+00 0.  1.
          1   -1    0    0  502    0  0.00000000000E+00 -0.00000000000E+00 -0.85222506076E+03  0.85222506076E+03  0.00000000000E+00 0. -1.
          6    1    1    2  502    0 -0.65873959391E+02 -0.20146199440E+03  0.13534367381E+03  0.30524289304E+03  0.17300000000E+03 0. -1.
         -6    1    1    2    0  501  0.65873959391E+02  0.20146199440E+03 -0.74288547698E+03  0.79166542530E+03  0.17300000000E+03 0.  1.
</event>
<event>
 4    1  0.1116913E+000  0.1000000E+03  0.7546771E-02  0.1280296E+00
         -2   -1    0    0    0  501 -0.00000000000E+00  0.00000000000E+00  0.14412768317E+03  0.14412768317E+03  0.00000000000E+00 0.  1.
          2   -1    0    0  502    0  0.00000000000E+00 -0.00000000000E+00 -0.32227609671E+03  0.32227609671E+03  0.00000000000E+00 0. -1.
          6    1    1    2  502    0 -0.36812710501E+02  0.12314126626E+03 -0.88013998097E+02  0.23279693076E+03  0.17300000000E+03 0. -1.
         -6    1    1    2    0  501  0.36812710501E+02 -0.12314126626E+03 -0.90134415443E+02  0.23360684913E+03  0.17300000000E+03 0.  1.
</event>
<event>
 4    1  0.1116913E+000  0.1000000E+03  0.7546771E-02  0.1280296E+00
         -2   -1    0    0    0  501 -0.00000000000E+00  0.00000000000E+00  0.14387001688E+03  0.14387001688E+03  0.00000000000E+00 0.  1.
          2   -1    0    0  502    0  0.00000000000E+00 -0.00000000000E+00 -0.88958264409E+03  0.88958264409E+03  0.00000000000E+00 0. -1.
          6    1    1    2  502    0  0.30211308572E+03  0.38461900287E+02 -0.26766760187E+03  0.44082488521E+03  0.17300000000E+03 0.  1.
         -6    1    1    2    0  501 -0.30211308572E+03 -0.38461900287E+02 -0.47804502535E+03  0.59262777575E+03  0.17300000000E+03 0. -1.
</event>
<event>
 4    1  0.1116913E+000  0.1000000E+03  0.7546771E-02  0.1280296E+00
         -2   -1    0    0    0  501 -0.00000000000E+00  0.00000000000E+00  0.57594805846E+03  0.57594805846E+03  0.00000000000E+00 0.  1.
          2   -1    0    0  502    0  0.00000000000E+00 -0.00000000000E+00 -0.54340605814E+03  0.54340605814E+03  0.00000000000E+00 0. -1.
          6    1    1    2  502    0 -0.32577645736E+03 -0.42042493376E+03  0.28815801960E+02  0.56004176232E+03  0.17300000000E+03 0.  1.
         -6    1    1    2    0  501  0.32577645736E+03  0.42042493376E+03  0.37261983579E+01  0.55931235428E+03  0.17300000000E+03 0. -1.
</event>
<event>
 4    1  0.1116913E+000  0.1000000E+03  0.7546771E-02  0.1280296E+00
          2   -1    0    0  502    0  0.00000000000E+00  0.00000000000E+00  0.24150494246E+04  0.24150494246E+04  0.00000000000E+00 0. -1.
         -2   -1    0    0    0  501 -0.00000000000E+00 -0.00000000000E+00 -0.16346453862E+02  0.16346453862E+02  0.00000000000E+00 0.  1.
          6    1    1    2  502    0  0.41137704389E+02  0.35164859471E+02  0.16971656945E+04  0.17068184651E+04  0.17300000000E+03 0.  1.
         -6    1    1    2    0  501 -0.41137704389E+02 -0.35164859471E+02  0.70153727616E+03  0.72457741333E+03  0.17300000000E+03 0. -1.
</event>
<event>
 4    1  0.1116913E+000  0.1000000E+03  0.7546771E-02  0.1280296E+00
          1   -1    0    0  502    0  0.00000000000E+00  0.00000000000E+00  0.37550005510E+03  0.37550005510E+03  0.00000000000E+00 0.  1.
         -1   -1    0    0    0  501 -0.00000000000E+00 -0.00000000000E+00 -0.15281125202E+03  0.15281125202E+03  0.00000000000E+00 0. -1.
          6    1    1    2  502    0 -0.76499974250E+02  0.56778379743E+02 -0.38140744912E+02  0.20114608345E+03  0.17300000000E+03 0. -1.
         -6    1    1    2    0  501  0.76499974250E+02 -0.56778379743E+02  0.26082954799E+03  0.32716522366E+03  0.17300000000E+03 0.  1.
</event>
<event>
 4    1  0.1116913E+000  0.1000000E+03  0.7546771E-02  0.1280296E+00
          2   -1    0    0  502    0  0.00000000000E+00  0.00000000000E+00  0.41294172100E+03  0.41294172100E+03  0.00000000000E+00 0.  1.
         -2   -1    0    0    0  501 -0.00000000000E+00 -0.00000000000E+00 -0.13767843437E+03  0.13767843437E+03  0.00000000000E+00 0. -1.
          6    1    1    2  502    0 -0.82413839702E+02  0.40713478150E+02  0.29457090338E+03  0.35376637120E+03  0.17300000000E+03 0. -1.
         -6    1    1    2    0  501  0.82413839702E+02 -0.40713478150E+02 -0.19307616740E+02  0.19685378417E+03  0.17300000000E+03 0.  1.
</event>
<event>
 4    1  0.1116913E+000  0.1000000E+03  0.7546771E-02  0.1280296E+00
          2   -1    0    0  502    0  0.00000000000E+00  0.00000000000E+00  0.91911611632E+03  0.91911611632E+03  0.00000000000E+00 0.  1.
         -2   -1    0    0    0  501 -0.00000000000E+00 -0.00000000000E+00 -0.91247098300E+02  0.91247098300E+02  0.00000000000E+00 0. -1.
          6    1    1    2  502    0 -0.19521416576E+03 -0.98006066028E+02  0.27631348704E+03  0.39241802024E+03  0.17300000000E+03 0. -1.
         -6    1    1    2    0  501  0.19521416576E+03  0.98006066028E+02  0.55155553098E+03  0.61794519437E+03  0.17300000000E+03 0.  1.
</event>
<event>
 4    1  0.1116913E+000  0.1000000E+03  0.7546771E-02  0.1280296E+00
          1   -1    0    0  502    0  0.00000000000E+00  0.00000000000E+00  0.59136325660E+03  0.59136325660E+03  0.00000000000E+00 0.  1.
         -1   -1    0    0    0  501 -0.00000000000E+00 -0.00000000000E+00 -0.53621347319E+02  0.53621347319E+02  0.00000000000E+00 0. -1.
          6    1    1    2  502    0  0.10745403824E+02 -0.40624575822E+02  0.27585565167E+03  0.32831564145E+03  0.17300000000E+03 0. -1.
         -6    1    1    2    0  501 -0.10745403824E+02  0.40624575822E+02  0.26188625761E+03  0.31666896247E+03  0.17300000000E+03 0.  1.
</event>
<event>
 4    1  0.1116913E+000  0.1000000E+03  0.7546771E-02  0.1280296E+00
          2   -1    0    0  502    0  0.00000000000E+00  0.00000000000E+00  0.97972267270E+02  0.97972267270E+02  0.00000000000E+00 0.  1.
         -2   -1    0    0    0  501 -0.00000000000E+00 -0.00000000000E+00 -0.98997329491E+03  0.98997329491E+03  0.00000000000E+00 0. -1.
          6    1    1    2  502    0 -0.35685398882E+00 -0.47791107208E+02 -0.89055360254E+03  0.90845959529E+03  0.17300000000E+03 0. -1.
         -6    1    1    2    0  501  0.35685398882E+00  0.47791107208E+02 -0.14474251021E+01  0.17948596690E+03  0.17300000000E+03 0.  1.
</event>
<event>
 4    1  0.1116913E+000  0.1000000E+03  0.7546771E-02  0.1280296E+00
         -1   -1    0    0    0  501 -0.00000000000E+00  0.00000000000E+00  0.18525837555E+03  0.18525837555E+03  0.00000000000E+00 0. -1.
          1   -1    0    0  502    0  0.00000000000E+00 -0.00000000000E+00 -0.29175478232E+03  0.29175478232E+03  0.00000000000E+00 0.  1.
          6    1    1    2  502    0  0.53384774090E+02  0.39796929259E+02 -0.19719280616E+03  0.27064318296E+03  0.17300000000E+03 0. -1.
         -6    1    1    2    0  501 -0.53384774090E+02 -0.39796929259E+02  0.90696399392E+02  0.20636997491E+03  0.17300000000E+03 0.  1.
</event>
<event>
 4    1  0.1116913E+000  0.1000000E+03  0.7546771E-02  0.1280296E+00
         -1   -1    0    0    0  501 -0.00000000000E+00  0.00000000000E+00  0.63398936162E+02  0.63398936162E+02  0.00000000000E+00 0. -1.
          1   -1    0    0  502    0  0.00000000000E+00 -0.00000000000E+00 -0.49073940669E+03  0.49073940669E+03  0.00000000000E+00 0.  1.
          6    1    1    2  502    0 -0.97305632125E+01  0.52400897879E+00 -0.16184806513E+03  0.23710494434E+03  0.17300000000E+03 0. -1.
         -6    1    1    2    0  501  0.97305632125E+01 -0.52400897879E+00 -0.26549240540E+03  0.31703339851E+03  0.17300000000E+03 0.  1.
</event>
<event>
 4    1  0.1116913E+000  0.1000000E+03  0.7546771E-02  0.1280296E+00
          1   -1    0    0  502    0  0.00000000000E+00  0.00000000000E+00  0.16609198681E+03  0.16609198681E+03  0.00000000000E+00 0. -1.
         -1   -1    0    0    0  501 -0.00000000000E+00 -0.00000000000E+00 -0.21773133066E+03  0.21773133066E+03  0.00000000000E+00 0.  1.
          6    1    1    2  502    0 -0.60777552156E+02  0.38171606958E+02 -0.59037433748E+02  0.19638075519E+03  0.17300000000E+03 0.  1.
         -6    1    1    2    0  501  0.60777552156E+02 -0.38171606958E+02  0.73980898997E+01  0.18744256229E+03  0.17300000000E+03 0. -1.
</event>
<event>
 4    1  0.1116913E+000  0.1000000E+03  0.7546771E-02  0.1280296E+00
          2   -1    0    0  502    0  0.00000000000E+00  0.00000000000E+00  0.55051683717E+03  0.55051683717E+03  0.00000000000E+00 0. -1.
         -2   -1    0    0    0  501 -0.00000000000E+00 -0.00000000000E+00 -0.67040254663E+02  0.67040254663E+02  0.00000000000E+00 0.  1.
          6    1    1    2  502    0 -0.16254865810E+02 -0.35536213552E+02  0.12307348012E+03  0.21587756865E+03  0.17300000000E+03 0.  1.
         -6    1    1    2    0  501  0.16254865810E+02  0.35536213552E+02  0.36040310239E+03  0.40167952319E+03  0.17300000000E+03 0. -1.
</event>
<event>
 4    1  0.1116913E+000  0.1000000E+03  0.7546771E-02  0.1280296E+00
          2   -1    0    0  502    0  0.00000000000E+00  0.00000000000E+00  0.61775133642E+03  0.61775133642E+03  0.00000000000E+00 0. -1.
         -2   -1    0    0    0  501 -0.00000000000E+00 -0.00000000000E+00 -0.32423572631E+03  0.32423572631E+03  0.00000000000E+00 0.  1.
          6    1    1    2  502    0 -0.23443485942E+03  0.99681097618E+02  0.48853754289E+03  0.57748935518E+03  0.17300000000E+03 0.  1.
         -6    1    1    2    0  501  0.23443485942E+03 -0.99681097618E+02 -0.19502193279E+03  0.36449770754E+03  0.17300000000E+03 0. -1.
</event>
<event>
 4    1  0.1116913E+000  0.1000000E+03  0.7546771E-02  0.1280296E+00
         -2   -1    0    0    0  501 -0.00000000000E+00  0.00000000000E+00  0.26569595567E+02  0.26569595567E+02  0.00000000000E+00 0.  1.
          2   -1    0    0  502    0  0.00000000000E+00 -0.00000000000E+00 -0.16431184758E+04  0.16431184758E+04  0.00000000000E+00 0. -1.
          6    1    1    2  502    0 -0.85381482403E+02 -0.78768252226E+02 -0.74721173119E+03  0.77572469751E+03  0.17300000000E+03 0.  1.
         -6    1    1    2    0  501  0.85381482403E+02  0.78768252226E+02 -0.86933714903E+03  0.89396337385E+03  0.17300000000E+03 0. -1.
</event>
<event>
 4    1  0.1116913E+000  0.1000000E+03  0.7546771E-02  0.1280296E+00
         -1   -1    0    0    0  501 -0.00000000000E+00  0.00000000000E+00  0.11768256962E+04  0.11768256962E+04  0.00000000000E+00 0.  1.
          1   -1    0    0  502    0  0.00000000000E+00 -0.00000000000E+00 -0.33714072050E+03  0.33714072050E+03  0.00000000000E+00 0. -1.
          6    1    1    2  502    0 -0.32243098330E+03  0.47910063320E+03  0.20044720328E+03  0.63530090274E+03  0.17300000000E+03 0.  1.
         -6    1    1    2    0  501  0.32243098330E+03 -0.47910063320E+03  0.63923777244E+03  0.87866551397E+03  0.17300000000E+03 0. -1.
</event>
<event>
 4    1  0.1116913E+000  0.1000000E+03  0.7546771E-02  0.1280296E+00
          2   -1    0    0  502    0  0.00000000000E+00  0.00000000000E+00  0.14863468358E+03  0.14863468358E+03  0.00000000000E+00 0.  1.
         -2   -1    0    0    0  501 -0.00000000000E+00 -0.00000000000E+00 -0.22689645774E+03  0.22689645774E+03  0.00000000000E+00 0. -1.
          6    1    1    2  502    0 -0.54015437070E+02  0.26315046425E+02 -0.53057768649E+02  0.19066797299E+03  0.17300000000E+03 0. -1.
         -6    1    1    2    0  501  0.54015437070E+02 -0.26315046425E+02 -0.25204005515E+02  0.18486316833E+03  0.17300000000E+03 0. -1.
</event>
<event>
 4    1  0.1116913E+000  0.1000000E+03  0.7546771E-02  0.1280296E+00
          1   -1    0    0  502    0  0.00000000000E+00  0.00000000000E+00  0.17769968979E+03  0.17769968979E+03  0.00000000000E+00 0.  1.
         -1   -1    0    0    0  501 -0.00000000000E+00 -0.00000000000E+00 -0.27406175704E+03  0.27406175704E+03  0.00000000000E+00 0. -1.
          6    1    1    2  502    0  0.11026515330E+03  0.54279110157E+02 -0.11016378127E+03  0.23910182880E+03  0.17300000000E+03 0. -1.
         -6    1    1    2    0  501 -0.11026515330E+03 -0.54279110157E+02  0.13801714026E+02  0.21265961803E+03  0.17300000000E+03 0. -1.
</event>
<event>
 4    1  0.1116913E+000  0.1000000E+03  0.7546771E-02  0.1280296E+00
          2   -1    0    0  502    0  0.00000000000E+00  0.00000000000E+00  0.18228379151E+04  0.18228379151E+04  0.00000000000E+00 0.  1.
         -2   -1    0    0    0  501 -0.00000000000E+00 -0.00000000000E+00 -0.26166666656E+02  0.26166666656E+02  0.00000000000E+00 0. -1.
          6    1    1    2  502    0 -0.10660859485E+03  0.80017674878E+02  0.89575619080E+03  0.92199586450E+03  0.17300000000E+03 0.  1.
         -6    1    1    2    0  501  0.10660859485E+03 -0.80017674878E+02  0.90091505761E+03  0.92700871723E+03  0.17300000000E+03 0.  1.
</event>
<event>
 4    1  0.1116913E+000  0.1000000E+03  0.7546771E-02  0.1280296E+00
          2   -1    0    0  502    0  0.00000000000E+00  0.00000000000E+00  0.14296768546E+04  0.14296768546E+04  0.00000000000E+00 0.  1.
         -2   -1    0    0    0  501 -0.00000000000E+00 -0.00000000000E+00 -0.11175710620E+03  0.11175710620E+03  0.00000000000E+00 0. -1.
          6    1    1    2  502    0  0.31991112838E+03 -0.70398961126E+02  0.94849170525E+03  0.10182655148E+04  0.17300000000E+03 0.  1.
         -6    1    1    2    0  501 -0.31991112838E+03  0.70398961126E+02  0.36942804314E+03  0.52316844596E+03  0.17300000000E+03 0.  1.
</event>
<event>
 4    1  0.1116913E+000  0.1000000E+03  0.7546771E-02  0.1280296E+00
          2   -1    0    0  502    0  0.00000000000E+00  0.00000000000E+00  0.20701057805E+04  0.20701057805E+04  0.00000000000E+00 0. -1.
         -2   -1    0    0    0  501 -0.00000000000E+00 -0.00000000000E+00 -0.14942446460E+02  0.14942446460E+02  0.00000000000E+00 0.  1.
          6    1    1    2  502    0 -0.24967298829E+01  0.14264188996E+02  0.11945827263E+04  0.12071315548E+04  0.17300000000E+03 0.  1.
         -6    1    1    2    0  501  0.24967298829E+01 -0.14264188996E+02  0.86058060778E+03  0.87791667215E+03  0.17300000000E+03 0. -1.
</event>
<event>
 4    1  0.1116913E+000  0.1000000E+03  0.7546771E-02  0.1280296E+00
          3   -1    0    0  502    0  0.00000000000E+00  0.00000000000E+00  0.16511714744E+03  0.16511714744E+03  0.00000000000E+00 0. -1.
         -3   -1    0    0    0  501 -0.00000000000E+00 -0.00000000000E+00 -0.24928355875E+03  0.24928355875E+03  0.00000000000E+00 0.  1.
          6    1    1    2  502    0  0.10394664994E+03 -0.75641336405E+01 -0.61724538184E+02  0.21118958489E+03  0.17300000000E+03 0.  1.
         -6    1    1    2    0  501 -0.10394664994E+03  0.75641336405E+01 -0.22441873119E+02  0.20321112130E+03  0.17300000000E+03 0. -1.
</event>
<event>
 4    1  0.1116913E+000  0.1000000E+03  0.7546771E-02  0.1280296E+00
          2   -1    0    0  502    0  0.00000000000E+00  0.00000000000E+00  0.73513840456E+03  0.73513840456E+03  0.00000000000E+00 0. -1.
         -2   -1    0    0    0  501 -0.00000000000E+00 -0.00000000000E+00 -0.12873835895E+03  0.12873835895E+03  0.00000000000E+00 0.  1.
          6    1    1    2  502    0  0.20824192380E+03 -0.98183827696E+02  0.15128475994E+03  0.32530115499E+03  0.17300000000E+03 0.  1.
         -6    1    1    2    0  501 -0.20824192380E+03  0.98183827696E+02  0.45511528567E+03  0.53857560852E+03  0.17300000000E+03 0. -1.
</event>
<event>
 4    1  0.1116913E+000  0.1000000E+03  0.7546771E-02  0.1280296E+00
         -1   -1    0    0    0  501 -0.00000000000E+00  0.00000000000E+00  0.43758422562E+04  0.43758422562E+04  0.00000000000E+00 0. -1.
          1   -1    0    0  502    0  0.00000000000E+00 -0.00000000000E+00 -0.12345803775E+03  0.12345803775E+03  0.00000000000E+00 0.  1.
          6    1    1    2  502    0  0.36875802468E+03  0.44932731677E+03  0.33971358476E+04  0.34508460536E+04  0.17300000000E+03 0.  1.
         -6    1    1    2    0  501 -0.36875802468E+03 -0.44932731677E+03  0.85524837085E+03  0.10484542404E+04  0.17300000000E+03 0. -1.
</event>
<event>
 4    1  0.1116913E+000  0.1000000E+03  0.7546771E-02  0.1280296E+00
         -3   -1    0    0    0  501 -0.00000000000E+00  0.00000000000E+00  0.30914260961E+03  0.30914260961E+03  0.00000000000E+00 0. -1.
          3   -1    0    0  502    0  0.00000000000E+00 -0.00000000000E+00 -0.12085142543E+03  0.12085142543E+03  0.00000000000E+00 0.  1.
          6    1    1    2  502    0  0.38667520215E+02 -0.53623488405E+02  0.15568245089E+03  0.24194354949E+03  0.17300000000E+03 0.  1.
         -6    1    1    2    0  501 -0.38667520215E+02  0.53623488405E+02  0.32608733296E+02  0.18805048555E+03  0.17300000000E+03 0. -1.
</event>
<event>
 4    1  0.1116913E+000  0.1000000E+03  0.7546771E-02  0.1280296E+00
         -2   -1    0    0    0  501 -0.00000000000E+00  0.00000000000E+00  0.56423734557E+02  0.56423734557E+02  0.00000000000E+00 0. -1.
          2   -1    0    0  502    0  0.00000000000E+00 -0.00000000000E+00 -0.70952498257E+03  0.70952498257E+03  0.00000000000E+00 0.  1.
          6    1    1    2  502    0 -0.16376811383E+02 -0.49598034482E+02 -0.16215455681E+03  0.24279881645E+03  0.17300000000E+03 0.  1.
         -6    1    1    2    0  501  0.16376811383E+02  0.49598034482E+02 -0.49094669120E+03  0.52314990067E+03  0.17300000000E+03 0. -1.
</event>
<event>
 4    1  0.1116913E+000  0.1000000E+03  0.7546771E-02  0.1280296E+00
         -2   -1    0    0    0  501 -0.00000000000E+00  0.00000000000E+00  0.84845871746E+02  0.84845871746E+02  0.00000000000E+00 0.  1.
          2   -1    0    0  502    0  0.00000000000E+00 -0.00000000000E+00 -0.52860100997E+03  0.52860100997E+03  0.00000000000E+00 0. -1.
          6    1    1    2  502    0  0.44004476747E+02 -0.90407780971E+02 -0.32233211986E+03  0.37939024280E+03  0.17300000000E+03 0. -1.
         -6    1    1    2    0  501 -0.44004476747E+02  0.90407780971E+02 -0.12142301836E+03  0.23405663892E+03  0.17300000000E+03 0. -1.
</event>
<event>
 4    1  0.1116913E+000  0.1000000E+03  0.7546771E-02  0.1280296E+00
         -3   -1    0    0    0  501 -0.00000000000E+00  0.00000000000E+00  0.86289773146E+03  0.86289773146E+03  0.00000000000E+00 0. -1.
          3   -1    0    0  502    0  0.00000000000E+00 -0.00000000000E+00 -0.45361987636E+02  0.45361987636E+02  0.00000000000E+00 0.  1.
          6    1    1    2  502    0 -0.93212559739E+01 -0.11444981283E+02  0.19105893787E+03  0.25816737042E+03  0.17300000000E+03 0.  1.
         -6    1    1    2    0  501  0.93212559739E+01  0.11444981283E+02  0.62647680595E+03  0.65009234867E+03  0.17300000000E+03 0.  1.
</event>
<event>
 4    1  0.1116913E+000  0.1000000E+03  0.7546771E-02  0.1280296E+00
         -2   -1    0    0    0  501 -0.00000000000E+00  0.00000000000E+00  0.28054509961E+04  0.28054509961E+04  0.00000000000E+00 0. -1.
          2   -1    0    0  502    0  0.00000000000E+00 -0.00000000000E+00 -0.37375225571E+02  0.37375225571E+02  0.00000000000E+00 0.  1.
          6    1    1    2  502    0  0.65058363550E+02  0.90647355065E+02  0.28684475435E+03  0.35307003094E+03  0.17300000000E+03 0.  1.
         -6    1    1    2    0  501 -0.65058363550E+02 -0.90647355065E+02  0.24812310162E+04  0.24897561907E+04  0.17300000000E+03 0.  1.
</event>
<event>
 4    1  0.1116913E+000  0.1000000E+03  0.7546771E-02  0.1280296E+00
         -2   -1    0    0    0  501 -0.00000000000E+00  0.00000000000E+00  0.11466055522E+03  0.11466055522E+03  0.00000000000E+00 0. -1.
          2   -1    0    0  502    0  0.00000000000E+00 -0.00000000000E+00 -0.46573223136E+03  0.46573223136E+03  0.00000000000E+00 0.  1.
          6    1    1    2  502    0  0.14414865124E+02  0.11871229620E+02 -0.36649596990E+03  0.40570557105E+03  0.17300000000E+03 0.  1.
         -6    1    1    2    0  501 -0.14414865124E+02 -0.11871229620E+02  0.15424293761E+02  0.17468721552E+03  0.17300000000E+03 0.  1.
</event>
<event>
 4    1  0.1116913E+000  0.1000000E+03  0.7546771E-02  0.1280296E+00
         -2   -1    0    0    0  501 -0.00000000000E+00  0.00000000000E+00  0.73071900877E+02  0.73071900877E+02  0.00000000000E+00 0. -1.
          2   -1    0    0  502    0  0.00000000000E+00 -0.00000000000E+00 -0.43820310476E+03  0.43820310476E+03  0.00000000000E+00 0.  1.
          6    1    1    2  502    0  0.57733566105E+01  0.43713264608E+02 -0.19989548915E+03  0.26801378273E+03  0.17300000000E+03 0.  1.
         -6    1    1    2    0  501 -0.57733566105E+01 -0.43713264608E+02 -0.16523571473E+03  0.24326122291E+03  0.17300000000E+03 0.  1.
</event>
<event>
 4    1  0.1116913E+000  0.1000000E+03  0.7546771E-02  0.1280296E+00
         -1   -1    0    0    0  501 -0.00000000000E+00  0.00000000000E+00  0.62492505664E+03  0.62492505664E+03  0.00000000000E+00 0. -1.
          1   -1    0    0  502    0  0.00000000000E+00 -0.00000000000E+00 -0.17624895887E+03  0.17624895887E+03  0.00000000000E+00 0.  1.
          6    1    1    2  502    0  0.21260636798E+03 -0.17126989499E+03  0.13338061836E+03  0.34964872942E+03  0.17300000000E+03 0.  1.
         -6    1    1    2    0  501 -0.21260636798E+03  0.17126989499E+03  0.31529547941E+03  0.45152528608E+03  0.17300000000E+03 0.  1.
</event>
<event>
 4    1  0.1116913E+000  0.1000000E+03  0.7546771E-02  0.1280296E+00
         -2   -1    0    0    0  501 -0.00000000000E+00  0.00000000000E+00  0.47575644805E+02  0.47575644805E+02  0.00000000000E+00 0. -1.
          2   -1    0    0  502    0  0.00000000000E+00 -0.00000000000E+00 -0.67112819056E+03  0.67112819056E+03  0.00000000000E+00 0.  1.
          6    1    1    2  502    0  0.16553773424E+01  0.31045984633E+02 -0.24711632183E+03  0.30325248548E+03  0.17300000000E+03 0.  1.
         -6    1    1    2    0  501 -0.16553773424E+01 -0.31045984633E+02 -0.37643622392E+03  0.41545134988E+03  0.17300000000E+03 0.  1.
</event>
<event>
 4    1  0.1116913E+000  0.1000000E+03  0.7546771E-02  0.1280296E+00
         -1   -1    0    0    0  501 -0.00000000000E+00  0.00000000000E+00  0.32134228969E+02  0.32134228969E+02  0.00000000000E+00 0. -1.
          1   -1    0    0  502    0  0.00000000000E+00 -0.00000000000E+00 -0.15360779562E+04  0.15360779562E+04  0.00000000000E+00 0.  1.
          6    1    1    2  502    0  0.30823172687E+02  0.13573639516E+03 -0.72526957208E+03  0.75849811412E+03  0.17300000000E+03 0. -1.
         -6    1    1    2    0  501 -0.30823172687E+02 -0.13573639516E+03 -0.77867415511E+03  0.80971407100E+03  0.17300000000E+03 0.  1.
</event>
<event>
 4    1  0.1116913E+000  0.1000000E+03  0.7546771E-02  0.1280296E+00
         -2   -1    0    0    0  501 -0.00000000000E+00  0.00000000000E+00  0.28668952944E+02  0.28668952944E+02  0.00000000000E+00 0.  1.
          2   -1    0    0  502    0  0.00000000000E+00 -0.00000000000E+00 -0.11787325773E+04  0.11787325773E+04  0.00000000000E+00 0. -1.
          6    1    1    2  502    0  0.45120527105E+01 -0.61232149316E+02 -0.60692150551E+03  0.63407605899E+03  0.17300000000E+03 0. -1.
         -6    1    1    2    0  501 -0.45120527105E+01  0.61232149316E+02 -0.54314211887E+03  0.57332547128E+03  0.17300000000E+03 0.  1.
</event>
<event>
 4    1  0.1116913E+000  0.1000000E+03  0.7546771E-02  0.1280296E+00
         -2   -1    0    0    0  501 -0.00000000000E+00  0.00000000000E+00  0.14480216172E+03  0.14480216172E+03  0.00000000000E+00 0.  1.
          2   -1    0    0  502    0  0.00000000000E+00 -0.00000000000E+00 -0.65727370094E+03  0.65727370094E+03  0.00000000000E+00 0. -1.
          6    1    1    2  502    0  0.78301968960E+02 -0.16980451547E+03 -0.30027199964E+02  0.25650614916E+03  0.17300000000E+03 0. -1.
         -6    1    1    2    0  501 -0.78301968960E+02  0.16980451547E+03 -0.48244433926E+03  0.54556971351E+03  0.17300000000E+03 0.  1.
</event>
<event>
 4    1  0.1116913E+000  0.1000000E+03  0.7546771E-02  0.1280296E+00
         -2   -1    0    0    0  501 -0.00000000000E+00  0.00000000000E+00  0.50767565770E+02  0.50767565770E+02  0.00000000000E+00 0.  1.
          2   -1    0    0  502    0  0.00000000000E+00 -0.00000000000E+00 -0.92360907968E+03  0.92360907968E+03  0.00000000000E+00 0. -1.
          6    1    1    2  502    0  0.38900809830E+02  0.50785308342E+02 -0.69164065128E+03  0.71581297212E+03  0.17300000000E+03 0. -1.
         -6    1    1    2    0  501 -0.38900809830E+02 -0.50785308342E+02 -0.18120086263E+03  0.25856367333E+03  0.17300000000E+03 0.  1.
</event>
<event>
 4    1  0.1116913E+000  0.1000000E+03  0.7546771E-02  0.1280296E+00
         -2   -1    0    0    0  501 -0.00000000000E+00  0.00000000000E+00  0.10037922282E+03  0.10037922282E+03  0.00000000000E+00 0.  1.
          2   -1    0    0  502    0  0.00000000000E+00 -0.00000000000E+00 -0.14011740315E+04  0.14011740315E+04  0.00000000000E+00 0. -1.
          6    1    1    2  502    0 -0.39086456972E+02  0.28740644881E+03 -0.32396127394E+03  0.46798517599E+03  0.17300000000E+03 0. -1.
         -6    1    1    2    0  501  0.39086456972E+02 -0.28740644881E+03 -0.97683353475E+03  0.10335680783E+04  0.17300000000E+03 0.  1.
</event>
<event>
 4    1  0.1116913E+000  0.1000000E+03  0.7546771E-02  0.1280296E+00
         -2   -1    0    0    0  501 -0.00000000000E+00  0.00000000000E+00  0.32964105990E+02  0.32964105990E+02  0.00000000000E+00 0.  1.
          2   -1    0    0  502    0  0.00000000000E+00 -0.00000000000E+00 -0.34475078651E+04  0.34475078651E+04  0.00000000000E+00 0. -1.
          6    1    1    2  502    0 -0.11858641296E+03  0.78799525856E+02 -0.40702321691E+03  0.46461704845E+03  0.17300000000E+03 0. -1.
         -6    1    1    2    0  501  0.11858641296E+03 -0.78799525856E+02 -0.30075205422E+04  0.30158549226E+04  0.17300000000E+03 0.  1.
</event>
<event>
 4    1  0.1116913E+000  0.1000000E+03  0.7546771E-02  0.1280296E+00
          2   -1    0    0  502    0  0.00000000000E+00  0.00000000000E+00  0.14568973298E+04  0.14568973298E+04  0.00000000000E+00 0. -1.
         -2   -1    0    0    0  501 -0.00000000000E+00 -0.00000000000E+00 -0.53624856385E+02  0.53624856385E+02  0.00000000000E+00 0.  1.
          6    1    1    2  502    0 -0.20036600820E+03 -0.47570951077E+01  0.94373707610E+03  0.98017235015E+03  0.17300000000E+03 0. -1.
         -6    1    1    2    0  501  0.20036600820E+03  0.47570951077E+01  0.45953539730E+03  0.53034983602E+03  0.17300000000E+03 0.  1.
</event>
<event>
 4    1  0.1116913E+000  0.1000000E+03  0.7546771E-02  0.1280296E+00
          2   -1    0    0  502    0  0.00000000000E+00  0.00000000000E+00  0.51143140370E+03  0.51143140370E+03  0.00000000000E+00 0.  1.
         -2   -1    0    0    0  501 -0.00000000000E+00 -0.00000000000E+00 -0.97902805761E+03  0.97902805761E+03  0.00000000000E+00 0. -1.
          6    1    1    2  502    0 -0.53289268717E+03 -0.39393955889E+03 -0.42105468947E+03  0.80397701685E+03  0.17300000000E+03 0.  1.
         -6    1    1    2    0  501  0.53289268717E+03  0.39393955889E+03 -0.46541964446E+02  0.68648244446E+03  0.17300000000E+03 0. -1.
</event>
<event>
 4    1  0.1116913E+000  0.1000000E+03  0.7546771E-02  0.1280296E+00
          2   -1    0    0  502    0  0.00000000000E+00  0.00000000000E+00  0.40587246340E+03  0.40587246340E+03  0.00000000000E+00 0.  1.
         -2   -1    0    0    0  501 -0.00000000000E+00 -0.00000000000E+00 -0.10817998500E+03  0.10817998500E+03  0.00000000000E+00 0. -1.
          6    1    1    2  502    0  0.11183035531E+03 -0.26176587953E+02  0.18325794280E+03  0.27695435675E+03  0.17300000000E+03 0. -1.
         -6    1    1    2    0  501 -0.11183035531E+03  0.26176587953E+02  0.11443453560E+03  0.23709809165E+03  0.17300000000E+03 0.  1.
</event>
<event>
 4    1  0.1116913E+000  0.1000000E+03  0.7546771E-02  0.1280296E+00
          1   -1    0    0  502    0  0.00000000000E+00  0.00000000000E+00  0.10281563287E+04  0.10281563287E+04  0.00000000000E+00 0.  1.
         -1   -1    0    0    0  501 -0.00000000000E+00 -0.00000000000E+00 -0.21999961248E+03  0.21999961248E+03  0.00000000000E+00 0. -1.
          6    1    1    2  502    0 -0.18907295766E+03  0.16541422433E+03  0.88290280485E+03  0.93410749475E+03  0.17300000000E+03 0. -1.
         -6    1    1    2    0  501  0.18907295766E+03 -0.16541422433E+03 -0.74746088647E+02  0.31404844642E+03  0.17300000000E+03 0.  1.
</event>
<event>
 4    1  0.1116913E+000  0.1000000E+03  0.7546771E-02  0.1280296E+00
          4   -1    0    0  502    0  0.00000000000E+00  0.00000000000E+00  0.82924580824E+02  0.82924580824E+02  0.00000000000E+00 0.  1.
         -4   -1    0    0    0  501 -0.00000000000E+00 -0.00000000000E+00 -0.53364167405E+03  0.53364167405E+03  0.00000000000E+00 0. -1.
          6    1    1    2  502    0 -0.42064129140E+02  0.12403267441E+02 -0.62169788687E+02  0.18899025009E+03  0.17300000000E+03 0. -1.
         -6    1    1    2    0  501  0.42064129140E+02 -0.12403267441E+02 -0.38854730454E+03  0.42757600478E+03  0.17300000000E+03 0.  1.
</event>
<event>
 4    1  0.1116913E+000  0.1000000E+03  0.7546771E-02  0.1280296E+00
          2   -1    0    0  502    0  0.00000000000E+00  0.00000000000E+00  0.19736440073E+04  0.19736440073E+04  0.00000000000E+00 0. -1.
         -2   -1    0    0    0  501 -0.00000000000E+00 -0.00000000000E+00 -0.43721759068E+02  0.43721759068E+02  0.00000000000E+00 0.  1.
          6    1    1    2  502    0 -0.18909860081E+03 -0.94228694277E+02  0.13367747169E+04  0.13643800686E+04  0.17300000000E+03 0. -1.
         -6    1    1    2    0  501  0.18909860081E+03  0.94228694277E+02  0.59314753129E+03  0.65298569780E+03  0.17300000000E+03 0.  1.
</event>
<event>
 4    1  0.1116913E+000  0.1000000E+03  0.7546771E-02  0.1280296E+00
          2   -1    0    0  502    0  0.00000000000E+00  0.00000000000E+00  0.18573553273E+03  0.18573553273E+03  0.00000000000E+00 0. -1.
         -2   -1    0    0    0  501 -0.00000000000E+00 -0.00000000000E+00 -0.18773080391E+03  0.18773080391E+03  0.00000000000E+00 0.  1.
          6    1    1    2  502    0  0.10094456946E+02 -0.62158575709E+02 -0.32202155657E+02  0.18689988075E+03  0.17300000000E+03 0. -1.
         -6    1    1    2    0  501 -0.10094456946E+02  0.62158575709E+02  0.30206884476E+02  0.18656645589E+03  0.17300000000E+03 0.  1.
</event>
<event>
 4    1  0.1116913E+000  0.1000000E+03  0.7546771E-02  0.1280296E+00
          2   -1    0    0  502    0  0.00000000000E+00  0.00000000000E+00  0.13411912692E+04  0.13411912692E+04  0.00000000000E+00 0. -1.
         -2   -1    0    0    0  501 -0.00000000000E+00 -0.00000000000E+00 -0.99045294808E+02  0.99045294808E+02  0.00000000000E+00 0.  1.
          6    1    1    2  502    0  0.50250069913E+02  0.87952332493E+02  0.12224709144E+04  0.12387997493E+04  0.17300000000E+03 0. -1.
         -6    1    1    2    0  501 -0.50250069913E+02 -0.87952332493E+02  0.19675059948E+02  0.20143681466E+03  0.17300000000E+03 0.  1.
</event>
<event>
 4    1  0.1116913E+000  0.1000000E+03  0.7546771E-02  0.1280296E+00
         -1   -1    0    0    0  501 -0.00000000000E+00  0.00000000000E+00  0.29812267349E+03  0.29812267349E+03  0.00000000000E+00 0. -1.
          1   -1    0    0  502    0  0.00000000000E+00 -0.00000000000E+00 -0.37964614689E+03  0.37964614689E+03  0.00000000000E+00 0.  1.
          6    1    1    2  502    0 -0.50254990963E+02 -0.21072641689E+03 -0.23273604557E+03  0.36197548784E+03  0.17300000000E+03 0.  1.
         -6    1    1    2    0  501  0.50254990963E+02  0.21072641689E+03  0.15121257218E+03  0.31579333254E+03  0.17300000000E+03 0. -1.
</event>
<event>
 4    1  0.1116913E+000  0.1000000E+03  0.7546771E-02  0.1280296E+00
          2   -1    0    0  502    0  0.00000000000E+00  0.00000000000E+00  0.10768427014E+03  0.10768427014E+03  0.00000000000E+00 0. -1.
         -2   -1    0    0    0  501 -0.00000000000E+00 -0.00000000000E+00 -0.66267369560E+03  0.66267369560E+03  0.00000000000E+00 0.  1.
          6    1    1    2  502    0  0.19658859135E+03  0.12009418071E+02 -0.20341906838E+03  0.33181262446E+03  0.17300000000E+03 0. -1.
         -6    1    1    2    0  501 -0.19658859135E+03 -0.12009418071E+02 -0.35157035708E+03  0.43854534127E+03  0.17300000000E+03 0.  1.
</event>
<event>
 4    1  0.1116913E+000  0.1000000E+03  0.7546771E-02  0.1280296E+00
         -1   -1    0    0    0  501 -0.00000000000E+00  0.00000000000E+00  0.18955445647E+03  0.18955445647E+03  0.00000000000E+00 0.  1.
          1   -1    0    0  502    0  0.00000000000E+00 -0.00000000000E+00 -0.33659883596E+03  0.33659883596E+03  0.00000000000E+00 0. -1.
          6    1    1    2  502    0 -0.30249784609E+02  0.31427473027E+02 -0.25974993969E+03  0.31512182835E+03  0.17300000000E+03 0. -1.
         -6    1    1    2    0  501  0.30249784609E+02 -0.31427473027E+02  0.11270556021E+03  0.21103146408E+03  0.17300000000E+03 0.  1.
</event>
<event>
 4    1  0.1116913E+000  0.1000000E+03  0.7546771E-02  0.1280296E+00
         -2   -1    0    0    0  501 -0.00000000000E+00  0.00000000000E+00  0.22035439969E+02  0.22035439969E+02  0.00000000000E+00 0.  1.
          2   -1    0    0  502    0  0.00000000000E+00 -0.00000000000E+00 -0.19312884812E+04  0.19312884812E+04  0.00000000000E+00 0. -1.
          6    1    1    2  502    0  0.10627773798E+03  0.33008162678E+02 -0.10284724266E+04  0.10488417558E+04  0.17300000000E+03 0. -1.
         -6    1    1    2    0  501 -0.10627773798E+03 -0.33008162678E+02 -0.88078061458E+03  0.90448216534E+03  0.17300000000E+03 0.  1.
</event>
<event>
 4    1  0.1116913E+000  0.1000000E+03  0.7546771E-02  0.1280296E+00
         -1   -1    0    0    0  501 -0.00000000000E+00  0.00000000000E+00  0.13463853076E+03  0.13463853076E+03  0.00000000000E+00 0.  1.
          1   -1    0    0  502    0  0.00000000000E+00 -0.00000000000E+00 -0.34553155122E+03  0.34553155122E+03  0.00000000000E+00 0. -1.
          6    1    1    2  502    0 -0.58195172132E+02  0.86737708968E+02 -0.18935693560E+03  0.27693890531E+03  0.17300000000E+03 0. -1.
         -6    1    1    2    0  501  0.58195172132E+02 -0.86737708968E+02 -0.21536084865E+02  0.20323117666E+03  0.17300000000E+03 0.  1.
</event>
<event>
 4    1  0.1116913E+000  0.1000000E+03  0.7546771E-02  0.1280296E+00
         -1   -1    0    0    0  501 -0.00000000000E+00  0.00000000000E+00  0.40907146387E+02  0.40907146387E+02  0.00000000000E+00 0.  1.
          1   -1    0    0  502    0  0.00000000000E+00 -0.00000000000E+00 -0.14220056430E+04  0.14220056430E+04  0.00000000000E+00 0. -1.
          6    1    1    2  502    0 -0.10436081232E+03 -0.12968135203E+03 -0.76055025967E+03  0.79754255666E+03  0.17300000000E+03 0. -1.
         -6    1    1    2    0  501  0.10436081232E+03  0.12968135203E+03 -0.62054823690E+03  0.66537023268E+03  0.17300000000E+03 0.  1.
</event>
<event>
 4    1  0.1116913E+000  0.1000000E+03  0.7546771E-02  0.1280296E+00
          2   -1    0    0  502    0  0.00000000000E+00  0.00000000000E+00  0.21435694190E+04  0.21435694190E+04  0.00000000000E+00 0.  1.
         -2   -1    0    0    0  501 -0.00000000000E+00 -0.00000000000E+00 -0.17155236780E+02  0.17155236780E+02  0.00000000000E+00 0. -1.
          6    1    1    2  502    0  0.81160462568E+02  0.15889436773E+02  0.10757365317E+04  0.10926928116E+04  0.17300000000E+03 0.  1.
         -6    1    1    2    0  501 -0.81160462568E+02 -0.15889436773E+02  0.10506776505E+04  0.10680318442E+04  0.17300000000E+03 0. -1.
</event>
<event>
 4    1  0.1116913E+000  0.1000000E+03  0.7546771E-02  0.1280296E+00
          1   -1    0    0  502    0  0.00000000000E+00  0.00000000000E+00  0.13399719457E+03  0.13399719457E+03  0.00000000000E+00 0. -1.
         -1   -1    0    0    0  501 -0.00000000000E+00 -0.00000000000E+00 -0.10341632878E+04  0.10341632878E+04  0.00000000000E+00 0.  1.
          6    1    1    2  502    0 -0.19501398007E+03 -0.11782720408E+03 -0.82380207438E+03  0.87206224560E+03  0.17300000000E+03 0.  1.
         -6    1    1    2    0  501  0.19501398007E+03  0.11782720408E+03 -0.76364018842E+02  0.29609823677E+03  0.17300000000E+03 0.  1.
</event>
<event>
 4    1  0.1116913E+000  0.1000000E+03  0.7546771E-02  0.1280296E+00
         -2   -1    0    0    0  501 -0.00000000000E+00  0.00000000000E+00  0.10808628342E+03  0.10808628342E+03  0.00000000000E+00 0. -1.
          2   -1    0    0  502    0  0.00000000000E+00 -0.00000000000E+00 -0.57844257014E+03  0.57844257014E+03  0.00000000000E+00 0.  1.
          6    1    1    2  502    0  0.78074828596E+02  0.15638801026E+03 -0.17317564408E+03  0.30078512649E+03  0.17300000000E+03 0.  1.
         -6    1    1    2    0  501 -0.78074828596E+02 -0.15638801026E+03 -0.29718064265E+03  0.38574372708E+03  0.17300000000E+03 0. -1.
</event>
<event>
 4    1  0.1116913E+000  0.1000000E+03  0.7546771E-02  0.1280296E+00
         -1   -1    0    0    0  501 -0.00000000000E+00  0.00000000000E+00  0.14662976985E+03  0.14662976985E+03  0.00000000000E+00 0. -1.
          1   -1    0    0  502    0  0.00000000000E+00 -0.00000000000E+00 -0.55326146472E+03  0.55326146472E+03  0.00000000000E+00 0.  1.
          6    1    1    2  502    0  0.11218503377E+03 -0.89895006966E+02  0.11358727484E+02  0.22522125736E+03  0.17300000000E+03 0.  1.
         -6    1    1    2    0  501 -0.11218503377E+03  0.89895006966E+02 -0.41799042235E+03  0.47466997720E+03  0.17300000000E+03 0. -1.
</event>
<event>
 4    1  0.1116913E+000  0.1000000E+03  0.7546771E-02  0.1280296E+00
         -1   -1    0    0    0  501 -0.00000000000E+00  0.00000000000E+00  0.10235425412E+04  0.10235425412E+04  0.00000000000E+00 0. -1.
          1   -1    0    0  502    0  0.00000000000E+00 -0.00000000000E+00 -0.84827201990E+02  0.84827201990E+02  0.00000000000E+00 0.  1.
          6    1    1    2  502    0  0.10205582912E+03 -0.19311124583E+03  0.64963552339E+03  0.70686820467E+03  0.17300000000E+03 0.  1.
         -6    1    1    2    0  501 -0.10205582912E+03  0.19311124583E+03  0.28907981583E+03  0.40150153853E+03  0.17300000000E+03 0. -1.
</event>
<event>
 4    1  0.1116913E+000  0.1000000E+03  0.7546771E-02  0.1280296E+00
         -2   -1    0    0    0  501 -0.00000000000E+00  0.00000000000E+00  0.56646108077E+02  0.56646108077E+02  0.00000000000E+00 0. -1.
          2   -1    0    0  502    0  0.00000000000E+00 -0.00000000000E+00 -0.20321040216E+04  0.20321040216E+04  0.00000000000E+00 0.  1.
          6    1    1    2  502    0  0.14142111449E+03  0.19764798681E+03 -0.49026550611E+03  0.57389365286E+03  0.17300000000E+03 0.  1.
         -6    1    1    2    0  501 -0.14142111449E+03 -0.19764798681E+03 -0.14851924074E+04  0.15148564768E+04  0.17300000000E+03 0. -1.
</event>
<event>
 4    1  0.1116913E+000  0.1000000E+03  0.7546771E-02  0.1280296E+00
         -1   -1    0    0    0  501 -0.00000000000E+00  0.00000000000E+00  0.15462339436E+03  0.15462339436E+03  0.00000000000E+00 0. -1.
          1   -1    0    0  502    0  0.00000000000E+00 -0.00000000000E+00 -0.39141938678E+03  0.39141938678E+03  0.00000000000E+00 0.  1.
          6    1    1    2  502    0 -0.84298188594E+02 -0.24348146594E+02 -0.28631869086E+03  0.34584159608E+03  0.17300000000E+03 0.  1.
         -6    1    1    2    0  501  0.84298188594E+02  0.24348146594E+02  0.49522698439E+02  0.20020118507E+03  0.17300000000E+03 0. -1.
</event>
<event>
 4    1  0.1116913E+000  0.1000000E+03  0.7546771E-02  0.1280296E+00
         -2   -1    0    0    0  501 -0.00000000000E+00  0.00000000000E+00  0.81284306262E+02  0.81284306262E+02  0.00000000000E+00 0.  1.
          2   -1    0    0  502    0  0.00000000000E+00 -0.00000000000E+00 -0.73664783362E+03  0.73664783362E+03  0.00000000000E+00 0. -1.
          6    1    1    2  502    0 -0.15739928919E+03 -0.41394697560E+02 -0.22936096168E+03  0.33018708025E+03  0.17300000000E+03 0.  1.
         -6    1    1    2    0  501  0.15739928919E+03  0.41394697560E+02 -0.42600256568E+03  0.48774505963E+03  0.17300000000E+03 0. -1.
</event>
<event>
 4    1  0.1116913E+000  0.1000000E+03  0.7546771E-02  0.1280296E+00
         -2   -1    0    0    0  501 -0.00000000000E+00  0.00000000000E+00  0.67672383313E+02  0.67672383313E+02  0.00000000000E+00 0.  1.
          2   -1    0    0  502    0  0.00000000000E+00 -0.00000000000E+00 -0.10306270464E+04  0.10306270464E+04  0.00000000000E+00 0. -1.
          6    1    1    2  502    0  0.10315922040E+03  0.14022661989E+03 -0.68426407489E+03  0.72694680264E+03  0.17300000000E+03 0.  1.
         -6    1    1    2    0  501 -0.10315922040E+03 -0.14022661989E+03 -0.27869058816E+03  0.37135262704E+03  0.17300000000E+03 0. -1.
</event>
<event>
 4    1  0.1116913E+000  0.1000000E+03  0.7546771E-02  0.1280296E+00
         -2   -1    0    0    0  501 -0.00000000000E+00  0.00000000000E+00  0.44299939388E+02  0.44299939388E+02  0.00000000000E+00 0.  1.
          2   -1    0    0  502    0  0.00000000000E+00 -0.00000000000E+00 -0.98538294991E+03  0.98538294991E+03  0.00000000000E+00 0. -1.
          6    1    1    2  502    0 -0.12059507975E+02 -0.27234297715E+02 -0.19135863307E+03  0.25968108355E+03  0.17300000000E+03 0.  1.
         -6    1    1    2    0  501  0.12059507975E+02  0.27234297715E+02 -0.74972437745E+03  0.77000180574E+03  0.17300000000E+03 0. -1.
</event>
<event>
 4    1  0.1116913E+000  0.1000000E+03  0.7546771E-02  0.1280296E+00
         -1   -1    0    0    0  501 -0.00000000000E+00  0.00000000000E+00  0.86333840957E+03  0.86333840957E+03  0.00000000000E+00 0. -1.
          1   -1    0    0  502    0  0.00000000000E+00 -0.00000000000E+00 -0.73095582652E+02  0.73095582652E+02  0.00000000000E+00 0.  1.
          6    1    1    2  502    0  0.86816312211E+02  0.15184185077E+03  0.30037244193E+03  0.38825973727E+03  0.17300000000E+03 0. -1.
         -6    1    1    2    0  501 -0.86816312211E+02 -0.15184185077E+03  0.48987038499E+03  0.54817425496E+03  0.17300000000E+03 0. -1.
</event>
<event>
 4    1  0.1116913E+000  0.1000000E+03  0.7546771E-02  0.1280296E+00
         -1   -1    0    0    0  501 -0.00000000000E+00  0.00000000000E+00  0.38877401609E+03  0.38877401609E+03  0.00000000000E+00 0. -1.
          1   -1    0    0  502    0  0.00000000000E+00 -0.00000000000E+00 -0.47834697081E+03  0.47834697081E+03  0.00000000000E+00 0.  1.
          6    1    1    2  502    0 -0.29767791019E+03  0.18192231994E+03  0.14149906517E+03  0.41431733509E+03  0.17300000000E+03 0. -1.
         -6    1    1    2    0  501  0.29767791019E+03 -0.18192231994E+03 -0.23107201990E+03  0.45280365181E+03  0.17300000000E+03 0. -1.
</event>
<event>
 4    1  0.1116913E+000  0.1000000E+03  0.7546771E-02  0.1280296E+00
         -2   -1    0    0    0  501 -0.00000000000E+00  0.00000000000E+00  0.13188042117E+02  0.13188042117E+02  0.00000000000E+00 0. -1.
          2   -1    0    0  502    0  0.00000000000E+00 -0.00000000000E+00 -0.36204188572E+04  0.36204188572E+04  0.00000000000E+00 0.  1.
          6    1    1    2  502    0  0.76595795541E+02 -0.52907663959E+02 -0.25989960449E+04  0.26064104777E+04  0.17300000000E+03 0. -1.
         -6    1    1    2    0  501 -0.76595795541E+02  0.52907663959E+02 -0.10082347702E+04  0.10271964216E+04  0.17300000000E+03 0. -1.
</event>
<event>
 4    1  0.1116913E+000  0.1000000E+03  0.7546771E-02  0.1280296E+00
         -2   -1    0    0    0  501 -0.00000000000E+00  0.00000000000E+00  0.39926808344E+02  0.39926808344E+02  0.00000000000E+00 0. -1.
          2   -1    0    0  502    0  0.00000000000E+00 -0.00000000000E+00 -0.95530590685E+03  0.95530590685E+03  0.00000000000E+00 0.  1.
          6    1    1    2  502    0  0.36191048228E+02 -0.49681955545E+02 -0.28800236090E+03  0.34154421172E+03  0.17300000000E+03 0. -1.
         -6    1    1    2    0  501 -0.36191048228E+02  0.49681955545E+02 -0.62737673761E+03  0.65368850347E+03  0.17300000000E+03 0. -1.
</event>
<event>
 4    1  0.1116913E+000  0.1000000E+03  0.7546771E-02  0.1280296E+00
          1   -1    0    0  502    0  0.00000000000E+00  0.00000000000E+00  0.68689186412E+03  0.68689186412E+03  0.00000000000E+00 0. -1.
         -1   -1    0    0    0  501 -0.00000000000E+00 -0.00000000000E+00 -0.10448982958E+03  0.10448982958E+03  0.00000000000E+00 0.  1.
          6    1    1    2  502    0  0.10881360408E+03  0.17271395459E+03  0.27173492338E+03  0.38136515196E+03  0.17300000000E+03 0. -1.
         -6    1    1    2    0  501 -0.10881360408E+03 -0.17271395459E+03  0.31066711116E+03  0.41001654174E+03  0.17300000000E+03 0.  1.
</event>
<event>
 4    1  0.1116913E+000  0.1000000E+03  0.7546771E-02  0.1280296E+00
          1   -1    0    0  502    0  0.00000000000E+00  0.00000000000E+00  0.21028887786E+04  0.21028887786E+04  0.00000000000E+00 0. -1.
         -1   -1    0    0    0  501 -0.00000000000E+00 -0.00000000000E+00 -0.20037033956E+03  0.20037033956E+03  0.00000000000E+00 0.  1.
          6    1    1    2  502    0  0.15353120985E+03  0.38306594662E+03  0.11700540192E+03  0.46252634081E+03  0.17300000000E+03 0. -1.
         -6    1    1    2    0  501 -0.15353120985E+03 -0.38306594662E+03  0.17855130371E+04  0.18407327773E+04  0.17300000000E+03 0.  1.
</event>
<event>
 4    1  0.1116913E+000  0.1000000E+03  0.7546771E-02  0.1280296E+00
          2   -1    0    0  502    0  0.00000000000E+00  0.00000000000E+00  0.45698483396E+03  0.45698483396E+03  0.00000000000E+00 0.  1.
         -2   -1    0    0    0  501 -0.00000000000E+00 -0.00000000000E+00 -0.10240617263E+03  0.10240617263E+03  0.00000000000E+00 0. -1.
          6    1    1    2  502    0  0.97063371659E+02  0.38957395040E+02  0.77725360981E+02  0.21658533765E+03  0.17300000000E+03 0. -1.
         -6    1    1    2    0  501 -0.97063371659E+02 -0.38957395040E+02  0.27685330034E+03  0.34280566894E+03  0.17300000000E+03 0.  1.
</event>
<event>
 4    1  0.1116913E+000  0.1000000E+03  0.7546771E-02  0.1280296E+00
          2   -1    0    0  502    0  0.00000000000E+00  0.00000000000E+00  0.45599390542E+03  0.45599390542E+03  0.00000000000E+00 0.  1.
         -2   -1    0    0    0  501 -0.00000000000E+00 -0.00000000000E+00 -0.12743507613E+03  0.12743507613E+03  0.00000000000E+00 0. -1.
          6    1    1    2  502    0 -0.60698809234E+00  0.16222349180E+03  0.11203591205E+03  0.26229349080E+03  0.17300000000E+03 0. -1.
         -6    1    1    2    0  501  0.60698809234E+00 -0.16222349180E+03  0.21652291724E+03  0.32113549075E+03  0.17300000000E+03 0.  1.
</event>
<event>
 4    1  0.1116913E+000  0.1000000E+03  0.7546771E-02  0.1280296E+00
          1   -1    0    0  502    0  0.00000000000E+00  0.00000000000E+00  0.44562450069E+03  0.44562450069E+03  0.00000000000E+00 0.  1.
         -1   -1    0    0    0  501 -0.00000000000E+00 -0.00000000000E+00 -0.72384714717E+02  0.72384714717E+02  0.00000000000E+00 0. -1.
          6    1    1    2  502    0 -0.31282868556E+02 -0.11048678800E+01  0.13368108147E+03  0.22086074830E+03  0.17300000000E+03 0. -1.
         -6    1    1    2    0  501  0.31282868556E+02  0.11048678800E+01  0.23955870450E+03  0.29714846710E+03  0.17300000000E+03 0.  1.
</event>
<event>
 4    1  0.1116913E+000  0.1000000E+03  0.7546771E-02  0.1280296E+00
          2   -1    0    0  502    0  0.00000000000E+00  0.00000000000E+00  0.15133366042E+04  0.15133366042E+04  0.00000000000E+00 0.  1.
         -2   -1    0    0    0  501 -0.00000000000E+00 -0.00000000000E+00 -0.33297885431E+02  0.33297885431E+02  0.00000000000E+00 0. -1.
          6    1    1    2  502    0 -0.12506670292E+03 -0.10237720728E+02  0.97657956380E+03  0.99969152018E+03  0.17300000000E+03 0. -1.
         -6    1    1    2    0  501  0.12506670292E+03  0.10237720728E+02  0.50345915500E+03  0.54694296948E+03  0.17300000000E+03 0.  1.
</event>
<event>
 4    1  0.1116913E+000  0.1000000E+03  0.7546771E-02  0.1280296E+00
         -1   -1    0    0    0  501 -0.00000000000E+00  0.00000000000E+00  0.12151091751E+03  0.12151091751E+03  0.00000000000E+00 0.  1.
          1   -1    0    0  502    0  0.00000000000E+00 -0.00000000000E+00 -0.44149037538E+03  0.44149037538E+03  0.00000000000E+00 0. -1.
          6    1    1    2  502    0 -0.15776731223E+01  0.79368713087E+02 -0.32037818305E+03  0.37265676144E+03  0.17300000000E+03 0. -1.
         -6    1    1    2    0  501  0.15776731223E+01 -0.79368713087E+02  0.39872518187E+00  0.19034453145E+03  0.17300000000E+03 0.  1.
</event>
<event>
 4    1  0.1116913E+000  0.1000000E+03  0.7546771E-02  0.1280296E+00
         -1   -1    0    0    0  501 -0.00000000000E+00  0.00000000000E+00  0.52373999794E+02  0.52373999794E+02  0.00000000000E+00 0.  1.
          1   -1    0    0  502    0  0.00000000000E+00 -0.00000000000E+00 -0.94529066030E+03  0.94529066030E+03  0.00000000000E+00 0. -1.
          6    1    1    2  502    0 -0.13867222249E+03 -0.15601712271E+02 -0.46956763884E+03  0.51951531851E+03  0.17300000000E+03 0. -1.
         -6    1    1    2    0  501  0.13867222249E+03  0.15601712271E+02 -0.42334902167E+03  0.47814934159E+03  0.17300000000E+03 0.  1.
</event>
<event>
 4    1  0.1116913E+000  0.1000000E+03  0.7546771E-02  0.1280296E+00
         -3   -1    0    0    0  501 -0.00000000000E+00  0.00000000000E+00  0.13273067445E+04  0.13273067445E+04  0.00000000000E+00 0.  1.
          3   -1    0    0  502    0  0.00000000000E+00 -0.00000000000E+00 -0.15778492388E+03  0.15778492388E+03  0.00000000000E+00 0. -1.
          6    1    1    2  502    0 -0.42045159868E+03  0.41026304033E+02  0.53250266939E+03  0.70139204256E+03  0.17300000000E+03 0. -1.
         -6    1    1    2    0  501  0.42045159868E+03 -0.41026304033E+02  0.63701915122E+03  0.78369962580E+03  0.17300000000E+03 0.  1.
</event>
<event>
 4    1  0.1116913E+000  0.1000000E+03  0.7546771E-02  0.1280296E+00
         -1   -1    0    0    0  501 -0.00000000000E+00  0.00000000000E+00  0.13350190007E+03  0.13350190007E+03  0.00000000000E+00 0.  1.
          1   -1    0    0  502    0  0.00000000000E+00 -0.00000000000E+00 -0.14897098802E+04  0.14897098802E+04  0.00000000000E+00 0. -1.
          6    1    1    2  502    0 -0.26828408511E+03  0.11994192343E+03 -0.15509607426E+03  0.37462809234E+03  0.17300000000E+03 0. -1.
         -6    1    1    2    0  501  0.26828408511E+03 -0.11994192343E+03 -0.12011119059E+04  0.12485836880E+04  0.17300000000E+03 0.  1.
</event>
<event>
 4    1  0.1116913E+000  0.1000000E+03  0.7546771E-02  0.1280296E+00
          1   -1    0    0  502    0  0.00000000000E+00  0.00000000000E+00  0.68961307455E+03  0.68961307455E+03  0.00000000000E+00 0. -1.
         -1   -1    0    0    0  501 -0.00000000000E+00 -0.00000000000E+00 -0.67348059467E+02  0.67348059467E+02  0.00000000000E+00 0.  1.
          6    1    1    2  502    0  0.87317928891E+02 -0.75921544567E+01  0.47618930642E+03  0.51416662383E+03  0.17300000000E+03 0. -1.
         -6    1    1    2    0  501 -0.87317928891E+02  0.75921544567E+01  0.14607570867E+03  0.24279451019E+03  0.17300000000E+03 0.  1.
</event>
<event>
 4    1  0.1116913E+000  0.1000000E+03  0.7546771E-02  0.1280296E+00
          2   -1    0    0  502    0  0.00000000000E+00  0.00000000000E+00  0.80034832493E+03  0.80034832493E+03  0.00000000000E+00 0. -1.
         -2   -1    0    0    0  501 -0.00000000000E+00 -0.00000000000E+00 -0.39973445476E+02  0.39973445476E+02  0.00000000000E+00 0.  1.
          6    1    1    2  502    0 -0.38114586121E+02  0.18575753719E+02  0.34188298056E+03  0.38550065201E+03  0.17300000000E+03 0. -1.
         -6    1    1    2    0  501  0.38114586121E+02 -0.18575753719E+02  0.41849189890E+03  0.45482111840E+03  0.17300000000E+03 0.  1.
</event>
<event>
 4    1  0.1116913E+000  0.1000000E+03  0.7546771E-02  0.1280296E+00
         -1   -1    0    0    0  501 -0.00000000000E+00  0.00000000000E+00  0.93343809266E+02  0.93343809266E+02  0.00000000000E+00 0. -1.
          1   -1    0    0  502    0  0.00000000000E+00 -0.00000000000E+00 -0.70149652094E+03  0.70149652094E+03  0.00000000000E+00 0.  1.
          6    1    1    2  502    0  0.10241276302E+03 -0.15821108871E+03 -0.31289409148E+03  0.40416684068E+03  0.17300000000E+03 0. -1.
         -6    1    1    2    0  501 -0.10241276302E+03  0.15821108871E+03 -0.29525862019E+03  0.39067348953E+03  0.17300000000E+03 0.  1.
</event>
<event>
 4    1  0.1116913E+000  0.1000000E+03  0.7546771E-02  0.1280296E+00
         -1   -1    0    0    0  501 -0.00000000000E+00  0.00000000000E+00  0.46352098760E+02  0.46352098760E+02  0.00000000000E+00 0. -1.
          1   -1    0    0  502    0  0.00000000000E+00 -0.00000000000E+00 -0.77015337374E+03  0.77015337374E+03  0.00000000000E+00 0.  1.
          6    1    1    2  502    0  0.10194708314E+02 -0.70150516429E+02 -0.42084606222E+03  0.46050562984E+03  0.17300000000E+03 0. -1.
         -6    1    1    2    0  501 -0.10194708314E+02  0.70150516429E+02 -0.30295521277E+03  0.35599984266E+03  0.17300000000E+03 0.  1.
</event>
<event>
 4    1  0.1116913E+000  0.1000000E+03  0.7546771E-02  0.1280296E+00
         -1   -1    0    0    0  501 -0.00000000000E+00  0.00000000000E+00  0.44669809036E+03  0.44669809036E+03  0.00000000000E+00 0. -1.
          1   -1    0    0  502    0  0.00000000000E+00 -0.00000000000E+00 -0.33406300756E+03  0.33406300756E+03  0.00000000000E+00 0.  1.
          6    1    1    2  502    0  0.92011765946E+02  0.22933241023E+03 -0.18755653428E+03  0.35519849803E+03  0.17300000000E+03 0. -1.
         -6    1    1    2    0  501 -0.92011765946E+02 -0.22933241023E+03  0.30019161708E+03  0.42556259989E+03  0.17300000000E+03 0.  1.
</event>
<event>
 4    1  0.1116913E+000  0.1000000E+03  0.7546771E-02  0.1280296E+00
         -2   -1    0    0    0  501 -0.00000000000E+00  0.00000000000E+00  0.27123861559E+03  0.27123861559E+03  0.00000000000E+00 0.  1.
          2   -1    0    0  502    0  0.00000000000E+00 -0.00000000000E+00 -0.84413300495E+03  0.84413300495E+03  0.00000000000E+00 0. -1.
          6    1    1    2  502    0  0.62214597080E+02  0.30264898012E+03  0.88625761276E+02  0.36503504875E+03  0.17300000000E+03 0. -1.
         -6    1    1    2    0  501 -0.62214597080E+02 -0.30264898012E+03 -0.66152015064E+03  0.75033657178E+03  0.17300000000E+03 0.  1.
</event>
<event>
 4    1  0.1116913E+000  0.1000000E+03  0.7546771E-02  0.1280296E+00
         -2   -1    0    0    0  501 -0.00000000000E+00  0.00000000000E+00  0.11970143490E+04  0.11970143490E+04  0.00000000000E+00 0.  1.
          2   -1    0    0  502    0  0.00000000000E+00 -0.00000000000E+00 -0.36172863603E+02  0.36172863603E+02  0.00000000000E+00 0. -1.
          6    1    1    2  502    0 -0.90469037551E+02  0.64026774773E+02  0.48275433750E+03  0.52465686407E+03  0.17300000000E+03 0. -1.
         -6    1    1    2    0  501  0.90469037551E+02 -0.64026774773E+02  0.67808714787E+03  0.70853034850E+03  0.17300000000E+03 0.  1.
</event>
<event>
 4    1  0.1116913E+000  0.1000000E+03  0.7546771E-02  0.1280296E+00
         -1   -1    0    0    0  501 -0.00000000000E+00  0.00000000000E+00  0.13324749248E+03  0.13324749248E+03  0.00000000000E+00 0.  1.
          1   -1    0    0  502    0  0.00000000000E+00 -0.00000000000E+00 -0.73256598775E+03  0.73256598775E+03  0.00000000000E+00 0. -1.
          6    1    1    2  502    0 -0.19185474854E+03 -0.32222845688E+02 -0.53900140753E+03  0.59858004781E+03  0.17300000000E+03 0. -1.
         -6    1    1    2    0  501  0.19185474854E+03  0.32222845688E+02 -0.60317087744E+02  0.26723343241E+03  0.17300000000E+03 0.  1.
</event>
<event>
 4    1  0.1116913E+000  0.1000000E+03  0.7546771E-02  0.1280296E+00
         -1   -1    0    0    0  501 -0.00000000000E+00  0.00000000000E+00  0.50839086713E+03  0.50839086713E+03  0.00000000000E+00 0.  1.
          1   -1    0    0  502    0  0.00000000000E+00 -0.00000000000E+00 -0.13356286053E+03  0.13356286053E+03  0.00000000000E+00 0. -1.
          6    1    1    2  502    0  0.10474657574E+02 -0.98820706320E+02 -0.19061646793E+02  0.20041855410E+03  0.17300000000E+03 0. -1.
         -6    1    1    2    0  501 -0.10474657574E+02  0.98820706320E+02  0.39388965339E+03  0.44153517357E+03  0.17300000000E+03 0.  1.
</event>
<event>
 4    1  0.1116913E+000  0.1000000E+03  0.7546771E-02  0.1280296E+00
         -1   -1    0    0    0  501 -0.00000000000E+00  0.00000000000E+00  0.26392629427E+02  0.26392629427E+02  0.00000000000E+00 0.  1.
          1   -1    0    0  502    0  0.00000000000E+00 -0.00000000000E+00 -0.20369762435E+04  0.20369762435E+04  0.00000000000E+00 0. -1.
          6    1    1    2  502    0  0.63129609101E+02  0.32569068422E+02 -0.39543130786E+03  0.43742543479E+03  0.17300000000E+03 0. -1.
         -6    1    1    2    0  501 -0.63129609101E+02 -0.32569068422E+02 -0.16151523062E+04  0.16259434382E+04  0.17300000000E+03 0.  1.
</event>
<event>
 4    1  0.1116913E+000  0.1000000E+03  0.7546771E-02  0.1280296E+00
          1   -1    0    0  502    0  0.00000000000E+00  0.00000000000E+00  0.25352383851E+04  0.25352383851E+04  0.00000000000E+00 0.  1.
         -1   -1    0    0    0  501 -0.00000000000E+00 -0.00000000000E+00 -0.82946362966E+02  0.82946362966E+02  0.00000000000E+00 0. -1.
          6    1    1    2  502    0 -0.18582353178E+02 -0.24428348746E+03  0.22164473382E+04  0.22366464918E+04  0.17300000000E+03 0. -1.
         -6    1    1    2    0  501  0.18582353178E+02  0.24428348746E+03  0.23584468398E+03  0.38153825635E+03  0.17300000000E+03 0.  1.
</event>
<event>
 4    1  0.1116913E+000  0.1000000E+03  0.7546771E-02  0.1280296E+00
          1   -1    0    0  502    0  0.00000000000E+00  0.00000000000E+00  0.50445162905E+03  0.50445162905E+03  0.00000000000E+00 0.  1.
         -1   -1    0    0    0  501 -0.00000000000E+00 -0.00000000000E+00 -0.11975080932E+03  0.11975080932E+03  0.00000000000E+00 0. -1.
          6    1    1    2  502    0  0.57905619514E+01  0.69057894275E+02  0.39582882093E+03  0.43750654721E+03  0.17300000000E+03 0. -1.
         -6    1    1    2    0  501 -0.57905619514E+01 -0.69057894275E+02 -0.11128001201E+02  0.18669589117E+03  0.17300000000E+03 0.  1.
</event>
<event>
 4    1  0.1116913E+000  0.1000000E+03  0.7546771E-02  0.1280296E+00
         -2   -1    0    0    0  501 -0.00000000000E+00  0.00000000000E+00  0.91245872971E+02  0.91245872971E+02  0.00000000000E+00 0. -1.
          2   -1    0    0  502    0  0.00000000000E+00 -0.00000000000E+00 -0.74718449902E+03  0.74718449902E+03  0.00000000000E+00 0.  1.
          6    1    1    2  502    0 -0.14267150683E+03  0.13374893595E+03 -0.33139970788E+03  0.42189892523E+03  0.17300000000E+03 0.  1.
         -6    1    1    2    0  501  0.14267150683E+03 -0.13374893595E+03 -0.32453891817E+03  0.41653144675E+03  0.17300000000E+03 0. -1.
</event>
<event>
 4    1  0.1116913E+000  0.1000000E+03  0.7546771E-02  0.1280296E+00
         -2   -1    0    0    0  501 -0.00000000000E+00  0.00000000000E+00  0.64245678286E+02  0.64245678286E+02  0.00000000000E+00 0.  1.
          2   -1    0    0  502    0  0.00000000000E+00 -0.00000000000E+00 -0.15268093191E+04  0.15268093191E+04  0.00000000000E+00 0. -1.
          6    1    1    2  502    0  0.22906593793E+03 -0.44896910802E+02 -0.43424934904E+03  0.52248295060E+03  0.17300000000E+03 0. -1.
         -6    1    1    2    0  501 -0.22906593793E+03  0.44896910802E+02 -0.10283142918E+04  0.10685720468E+04  0.17300000000E+03 0.  1.
</event>
<event>
 4    1  0.1116913E+000  0.1000000E+03  0.7546771E-02  0.1280296E+00
         -2   -1    0    0    0  501 -0.00000000000E+00  0.00000000000E+00  0.22264407508E+02  0.22264407508E+02  0.00000000000E+00 0.  1.
          2   -1    0    0  502    0  0.00000000000E+00 -0.00000000000E+00 -0.20535561737E+04  0.20535561737E+04  0.00000000000E+00 0. -1.
          6    1    1    2  502    0 -0.10571512661E+03  0.38025738282E+02 -0.74232714816E+03  0.77045456690E+03  0.17300000000E+03 0. -1.
         -6    1    1    2    0  501  0.10571512661E+03 -0.38025738282E+02 -0.12889646181E+04  0.13053660143E+04  0.17300000000E+03 0.  1.
</event>
<event>
 4    1  0.1116913E+000  0.1000000E+03  0.7546771E-02  0.1280296E+00
          2   -1    0    0  502    0  0.00000000000E+00  0.00000000000E+00  0.18414816055E+04  0.18414816055E+04  0.00000000000E+00 0. -1.
         -2   -1    0    0    0  501 -0.00000000000E+00 -0.00000000000E+00 -0.25879366465E+02  0.25879366465E+02  0.00000000000E+00 0.  1.
          6    1    1    2  502    0 -0.12272300964E+03 -0.35748458289E+02  0.74843029279E+03  0.77872703339E+03  0.17300000000E+03 0.  1.
         -6    1    1    2    0  501  0.12272300964E+03  0.35748458289E+02  0.10671719463E+04  0.10886339386E+04  0.17300000000E+03 0. -1.
</event>
<event>
 4    1  0.1116913E+000  0.1000000E+03  0.7546771E-02  0.1280296E+00
          2   -1    0    0  502    0  0.00000000000E+00  0.00000000000E+00  0.19942523018E+04  0.19942523018E+04  0.00000000000E+00 0. -1.
         -2   -1    0    0    0  501 -0.00000000000E+00 -0.00000000000E+00 -0.31166061044E+02  0.31166061044E+02  0.00000000000E+00 0.  1.
          6    1    1    2  502    0  0.28054875737E+02 -0.91030906769E+02  0.36348128528E+03  0.41366816023E+03  0.17300000000E+03 0.  1.
         -6    1    1    2    0  501 -0.28054875737E+02  0.91030906769E+02  0.15996049555E+04  0.16117502026E+04  0.17300000000E+03 0. -1.
</event>
<event>
 4    1  0.1116913E+000  0.1000000E+03  0.7546771E-02  0.1280296E+00
         -2   -1    0    0    0  501 -0.00000000000E+00  0.00000000000E+00  0.37380857272E+03  0.37380857272E+03  0.00000000000E+00 0.  1.
          2   -1    0    0  502    0  0.00000000000E+00 -0.00000000000E+00 -0.10195357405E+03  0.10195357405E+03  0.00000000000E+00 0. -1.
          6    1    1    2  502    0  0.83084832179E+02 -0.15639778388E+02  0.96736695990E+02  0.21548707701E+03  0.17300000000E+03 0. -1.
         -6    1    1    2    0  501 -0.83084832179E+02  0.15639778388E+02  0.17511830268E+03  0.26027506976E+03  0.17300000000E+03 0.  1.
</event>
<event>
 4    1  0.1116913E+000  0.1000000E+03  0.7546771E-02  0.1280296E+00
         -1   -1    0    0    0  501 -0.00000000000E+00  0.00000000000E+00  0.82287398806E+03  0.82287398806E+03  0.00000000000E+00 0.  1.
          1   -1    0    0  502    0  0.00000000000E+00 -0.00000000000E+00 -0.13753201239E+03  0.13753201239E+03  0.00000000000E+00 0. -1.
          6    1    1    2  502    0 -0.37103163245E+02 -0.19753196213E+03  0.63814309295E+03  0.69105074189E+03  0.17300000000E+03 0. -1.
         -6    1    1    2    0  501  0.37103163245E+02  0.19753196213E+03  0.47198882716E+02  0.26935525856E+03  0.17300000000E+03 0.  1.
</event>
<event>
 4    1  0.1116913E+000  0.1000000E+03  0.7546771E-02  0.1280296E+00
         -1   -1    0    0    0  501 -0.00000000000E+00  0.00000000000E+00  0.92614719545E+02  0.92614719545E+02  0.00000000000E+00 0.  1.
          1   -1    0    0  502    0  0.00000000000E+00 -0.00000000000E+00 -0.46113559554E+03  0.46113559554E+03  0.00000000000E+00 0. -1.
          6    1    1    2  502    0  0.37110082935E+02 -0.10477984432E+03 -0.15670645727E+03  0.25853798131E+03  0.17300000000E+03 0. -1.
         -6    1    1    2    0  501 -0.37110082935E+02  0.10477984432E+03 -0.21181441873E+03  0.29521233378E+03  0.17300000000E+03 0.  1.
</event>
<event>
 4    1  0.1116913E+000  0.1000000E+03  0.7546771E-02  0.1280296E+00
          2   -1    0    0  502    0  0.00000000000E+00  0.00000000000E+00  0.61911082092E+02  0.61911082092E+02  0.00000000000E+00 0. -1.
         -2   -1    0    0    0  501 -0.00000000000E+00 -0.00000000000E+00 -0.11722834943E+04  0.11722834943E+04  0.00000000000E+00 0.  1.
          6    1    1    2  502    0  0.70126147073E+02  0.13468116354E+03 -0.87580471706E+03  0.90554933313E+03  0.17300000000E+03 0. -1.
         -6    1    1    2    0  501 -0.70126147073E+02 -0.13468116354E+03 -0.23456769519E+03  0.32864524330E+03  0.17300000000E+03 0.  1.
</event>
<event>
 4    1  0.1116913E+000  0.1000000E+03  0.7546771E-02  0.1280296E+00
          1   -1    0    0  502    0  0.00000000000E+00  0.00000000000E+00  0.13122718495E+03  0.13122718495E+03  0.00000000000E+00 0. -1.
         -1   -1    0    0    0  501 -0.00000000000E+00 -0.00000000000E+00 -0.45688282526E+03  0.45688282526E+03  0.00000000000E+00 0.  1.
          6    1    1    2  502    0  0.13202641743E+03  0.10518952752E+03 -0.20981183569E+03  0.32007158261E+03  0.17300000000E+03 0. -1.
         -6    1    1    2    0  501 -0.13202641743E+03 -0.10518952752E+03 -0.11584380463E+03  0.26803842760E+03  0.17300000000E+03 0.  1.
</event>
<event>
 4    1  0.1116913E+000  0.1000000E+03  0.7546771E-02  0.1280296E+00
          2   -1    0    0  502    0  0.00000000000E+00  0.00000000000E+00  0.46953386357E+02  0.46953386357E+02  0.00000000000E+00 0. -1.
         -2   -1    0    0    0  501 -0.00000000000E+00 -0.00000000000E+00 -0.84895935762E+03  0.84895935762E+03  0.00000000000E+00 0.  1.
          6    1    1    2  502    0  0.22750232693E+02  0.38729058195E+02 -0.20139203197E+03  0.26926801440E+03  0.17300000000E+03 0. -1.
         -6    1    1    2    0  501 -0.22750232693E+02 -0.38729058195E+02 -0.60061393929E+03  0.62664472958E+03  0.17300000000E+03 0.  1.
</event>
<event>
 4    1  0.1116913E+000  0.1000000E+03  0.7546771E-02  0.1280296E+00
          1   -1    0    0  502    0  0.00000000000E+00  0.00000000000E+00  0.75949307122E+03  0.75949307122E+03  0.00000000000E+00 0. -1.
         -1   -1    0    0    0  501 -0.00000000000E+00 -0.00000000000E+00 -0.17101236404E+03  0.17101236404E+03  0.00000000000E+00 0.  1.
          6    1    1    2  502    0 -0.41238003821E+02  0.51134163103E+01  0.69884294822E+03  0.72113603866E+03  0.17300000000E+03 0. -1.
         -6    1    1    2    0  501  0.41238003821E+02 -0.51134163103E+01 -0.11036224104E+03  0.20936939660E+03  0.17300000000E+03 0.  1.
</event>
<event>
 4    1  0.1116913E+000  0.1000000E+03  0.7546771E-02  0.1280296E+00
          2   -1    0    0  502    0  0.00000000000E+00  0.00000000000E+00  0.12074880313E+04  0.12074880313E+04  0.00000000000E+00 0. -1.
         -2   -1    0    0    0  501 -0.00000000000E+00 -0.00000000000E+00 -0.47807043827E+02  0.47807043827E+02  0.00000000000E+00 0.  1.
          6    1    1    2  502    0 -0.22890274683E+02  0.61690123988E+02  0.17965197013E+03  0.25794081965E+03  0.17300000000E+03 0.  1.
         -6    1    1    2    0  501  0.22890274683E+02 -0.61690123988E+02  0.98002901733E+03  0.99735425546E+03  0.17300000000E+03 0.  1.
</event>
<event>
 4    1  0.1116913E+000  0.1000000E+03  0.7546771E-02  0.1280296E+00
          1   -1    0    0  502    0  0.00000000000E+00  0.00000000000E+00  0.43857144806E+03  0.43857144806E+03  0.00000000000E+00 0. -1.
         -1   -1    0    0    0  501 -0.00000000000E+00 -0.00000000000E+00 -0.10869927970E+03  0.10869927970E+03  0.00000000000E+00 0.  1.
          6    1    1    2  502    0  0.13054636051E+02  0.13203723501E+03  0.15015271670E+03  0.26472456117E+03  0.17300000000E+03 0.  1.
         -6    1    1    2    0  501 -0.13054636051E+02 -0.13203723501E+03  0.17971945166E+03  0.28254616659E+03  0.17300000000E+03 0.  1.
</event>
<event>
 4    1  0.1116913E+000  0.1000000E+03  0.7546771E-02  0.1280296E+00
          2   -1    0    0  502    0  0.00000000000E+00  0.00000000000E+00  0.64914816195E+03  0.64914816195E+03  0.00000000000E+00 0. -1.
         -2   -1    0    0    0  501 -0.00000000000E+00 -0.00000000000E+00 -0.13673188226E+03  0.13673188226E+03  0.00000000000E+00 0.  1.
          6    1    1    2  502    0 -0.33113000930E+02  0.10001244063E+03 -0.31943465465E+02  0.20505692892E+03  0.17300000000E+03 0.  1.
         -6    1    1    2    0  501  0.33113000930E+02 -0.10001244063E+03  0.54435974516E+03  0.58082311529E+03  0.17300000000E+03 0.  1.
</event>
<event>
 4    1  0.1116913E+000  0.1000000E+03  0.7546771E-02  0.1280296E+00
          1   -1    0    0  502    0  0.00000000000E+00  0.00000000000E+00  0.33681266951E+03  0.33681266951E+03  0.00000000000E+00 0. -1.
         -1   -1    0    0    0  501 -0.00000000000E+00 -0.00000000000E+00 -0.18163520629E+03  0.18163520629E+03  0.00000000000E+00 0.  1.
          6    1    1    2  502    0 -0.28181142593E+02 -0.16259986419E+03  0.11179026273E+02  0.23934674274E+03  0.17300000000E+03 0. -1.
         -6    1    1    2    0  501  0.28181142593E+02  0.16259986419E+03  0.14399843695E+03  0.27910113306E+03  0.17300000000E+03 0.  1.
</event>
<event>
 4    1  0.1116913E+000  0.1000000E+03  0.7546771E-02  0.1280296E+00
          2   -1    0    0  502    0  0.00000000000E+00  0.00000000000E+00  0.26181629681E+03  0.26181629681E+03  0.00000000000E+00 0. -1.
         -2   -1    0    0    0  501 -0.00000000000E+00 -0.00000000000E+00 -0.18669823170E+03  0.18669823170E+03  0.00000000000E+00 0.  1.
          6    1    1    2  502    0  0.22143936680E+02  0.13502925352E+03  0.52888010765E+02  0.22682459064E+03  0.17300000000E+03 0. -1.
         -6    1    1    2    0  501 -0.22143936680E+02 -0.13502925352E+03  0.22230054348E+02  0.22168993787E+03  0.17300000000E+03 0.  1.
</event>
<event>
 4    1  0.1116913E+000  0.1000000E+03  0.7546771E-02  0.1280296E+00
          1   -1    0    0  502    0  0.00000000000E+00  0.00000000000E+00  0.53998390379E+03  0.53998390379E+03  0.00000000000E+00 0. -1.
         -1   -1    0    0    0  501 -0.00000000000E+00 -0.00000000000E+00 -0.97142685120E+02  0.97142685120E+02  0.00000000000E+00 0.  1.
          6    1    1    2  502    0  0.50613331123E+02  0.42348841232E+02  0.40891742831E+03  0.44888483692E+03  0.17300000000E+03 0. -1.
         -6    1    1    2    0  501 -0.50613331123E+02 -0.42348841232E+02  0.33923790363E+02  0.18824175199E+03  0.17300000000E+03 0.  1.
</event>
<event>
 4    1  0.1116913E+000  0.1000000E+03  0.7546771E-02  0.1280296E+00
          1   -1    0    0  502    0  0.00000000000E+00  0.00000000000E+00  0.11008065036E+04  0.11008065036E+04  0.00000000000E+00 0. -1.
         -1   -1    0    0    0  501 -0.00000000000E+00 -0.00000000000E+00 -0.42374668989E+02  0.42374668989E+02  0.00000000000E+00 0.  1.
          6    1    1    2  502    0  0.97578029606E+02 -0.64109269471E+02  0.67623143637E+03  0.70770716107E+03  0.17300000000E+03 0. -1.
         -6    1    1    2    0  501 -0.97578029606E+02  0.64109269471E+02  0.38220039824E+03  0.43547401152E+03  0.17300000000E+03 0.  1.
</event>
<event>
 4    1  0.1116913E+000  0.1000000E+03  0.7546771E-02  0.1280296E+00
         -2   -1    0    0    0  501 -0.00000000000E+00  0.00000000000E+00  0.23455782963E+03  0.23455782963E+03  0.00000000000E+00 0.  1.
          2   -1    0    0  502    0  0.00000000000E+00 -0.00000000000E+00 -0.27649512774E+03  0.27649512774E+03  0.00000000000E+00 0. -1.
          6    1    1    2  502    0  0.10042479242E+03 -0.36992927395E+02  0.13275385579E+03  0.24291192197E+03  0.17300000000E+03 0.  1.
         -6    1    1    2    0  501 -0.10042479242E+03  0.36992927395E+02 -0.17469115390E+03  0.26814103540E+03  0.17300000000E+03 0. -1.
</event>
<event>
 4    1  0.1116913E+000  0.1000000E+03  0.7546771E-02  0.1280296E+00
          3   -1    0    0  502    0  0.00000000000E+00  0.00000000000E+00  0.40370236326E+04  0.40370236326E+04  0.00000000000E+00 0.  1.
         -3   -1    0    0    0  501 -0.00000000000E+00 -0.00000000000E+00 -0.14047593334E+02  0.14047593334E+02  0.00000000000E+00 0. -1.
          6    1    1    2  502    0  0.14988223759E+03 -0.36219827016E+01  0.14534967930E+04  0.14714141943E+04  0.17300000000E+03 0. -1.
         -6    1    1    2    0  501 -0.14988223759E+03  0.36219827016E+01  0.25694792463E+04  0.25796570316E+04  0.17300000000E+03 0.  1.
</event>
<event>
 4    1  0.1116913E+000  0.1000000E+03  0.7546771E-02  0.1280296E+00
          1   -1    0    0  502    0  0.00000000000E+00  0.00000000000E+00  0.17860038263E+03  0.17860038263E+03  0.00000000000E+00 0.  1.
         -1   -1    0    0    0  501 -0.00000000000E+00 -0.00000000000E+00 -0.17361350350E+03  0.17361350350E+03  0.00000000000E+00 0. -1.
          6    1    1    2  502    0  0.61096808894E+01 -0.22901080233E+02  0.25225664956E+02  0.17642880108E+03  0.17300000000E+03 0. -1.
         -6    1    1    2    0  501 -0.61096808894E+01  0.22901080233E+02 -0.20238785823E+02  0.17578508506E+03  0.17300000000E+03 0.  1.
</event>
<event>
 4    1  0.1116913E+000  0.1000000E+03  0.7546771E-02  0.1280296E+00
          2   -1    0    0  502    0  0.00000000000E+00  0.00000000000E+00  0.40452117697E+03  0.40452117697E+03  0.00000000000E+00 0.  1.
         -2   -1    0    0    0  501 -0.00000000000E+00 -0.00000000000E+00 -0.25996883625E+03  0.25996883625E+03  0.00000000000E+00 0. -1.
          6    1    1    2  502    0 -0.77990005191E+01  0.12498777909E+03 -0.17774235588E+03  0.27785628372E+03  0.17300000000E+03 0. -1.
         -6    1    1    2    0  501  0.77990005191E+01 -0.12498777909E+03  0.32229469660E+03  0.38663372950E+03  0.17300000000E+03 0.  1.
</event>
<event>
 4    1  0.1116913E+000  0.1000000E+03  0.7546771E-02  0.1280296E+00
          1   -1    0    0  502    0  0.00000000000E+00  0.00000000000E+00  0.16142780203E+04  0.16142780203E+04  0.00000000000E+00 0.  1.
         -1   -1    0    0    0  501 -0.00000000000E+00 -0.00000000000E+00 -0.32785352973E+02  0.32785352973E+02  0.00000000000E+00 0. -1.
          6    1    1    2  502    0  0.12658021594E+03  0.43326905623E+02  0.53520462972E+03  0.57816327062E+03  0.17300000000E+03 0.  1.
         -6    1    1    2    0  501 -0.12658021594E+03 -0.43326905623E+02  0.10462880376E+04  0.10689001027E+04  0.17300000000E+03 0. -1.
</event>
<event>
 4    1  0.1116913E+000  0.1000000E+03  0.7546771E-02  0.1280296E+00
          1   -1    0    0  502    0  0.00000000000E+00  0.00000000000E+00  0.33700245648E+03  0.33700245648E+03  0.00000000000E+00 0.  1.
         -1   -1    0    0    0  501 -0.00000000000E+00 -0.00000000000E+00 -0.10882262667E+04  0.10882262667E+04  0.00000000000E+00 0. -1.
          6    1    1    2  502    0 -0.44397691052E+03  0.26536464409E+02 -0.81430858190E+03  0.94384699373E+03  0.17300000000E+03 0.  1.
         -6    1    1    2    0  501  0.44397691052E+03 -0.26536464409E+02  0.63084771686E+02  0.48138172944E+03  0.17300000000E+03 0. -1.
</event>
<event>
 4    1  0.1116913E+000  0.1000000E+03  0.7546771E-02  0.1280296E+00
          1   -1    0    0  502    0  0.00000000000E+00  0.00000000000E+00  0.64734221687E+03  0.64734221687E+03  0.00000000000E+00 0.  1.
         -1   -1    0    0    0  501 -0.00000000000E+00 -0.00000000000E+00 -0.88594151764E+02  0.88594151764E+02  0.00000000000E+00 0. -1.
          6    1    1    2  502    0  0.10540372541E+03 -0.77651127468E+02  0.12356898861E+03  0.24967566536E+03  0.17300000000E+03 0.  1.
         -6    1    1    2    0  501 -0.10540372541E+03  0.77651127468E+02  0.43517907650E+03  0.48626070327E+03  0.17300000000E+03 0. -1.
</event>
<event>
 4    1  0.1116913E+000  0.1000000E+03  0.7546771E-02  0.1280296E+00
          3   -1    0    0  502    0  0.00000000000E+00  0.00000000000E+00  0.78758436593E+02  0.78758436593E+02  0.00000000000E+00 0.  1.
         -3   -1    0    0    0  501 -0.00000000000E+00 -0.00000000000E+00 -0.49246616206E+03  0.49246616206E+03  0.00000000000E+00 0. -1.
          6    1    1    2  502    0 -0.90335470810E+02  0.25052875723E+02 -0.21887610048E+03  0.29431936944E+03  0.17300000000E+03 0.  1.
         -6    1    1    2    0  501  0.90335470810E+02 -0.25052875723E+02 -0.19483162499E+03  0.27690522921E+03  0.17300000000E+03 0. -1.
</event>
<event>
 4    1  0.1116913E+000  0.1000000E+03  0.7546771E-02  0.1280296E+00
          2   -1    0    0  502    0  0.00000000000E+00  0.00000000000E+00  0.71525994436E+03  0.71525994436E+03  0.00000000000E+00 0.  1.
         -2   -1    0    0    0  501 -0.00000000000E+00 -0.00000000000E+00 -0.67018075404E+02  0.67018075404E+02  0.00000000000E+00 0. -1.
          6    1    1    2  502    0  0.50442441494E+02  0.63321542242E+02  0.51530395577E+03  0.54956457714E+03  0.17300000000E+03 0.  1.
         -6    1    1    2    0  501 -0.50442441494E+02 -0.63321542242E+02  0.13293791319E+03  0.23271344263E+03  0.17300000000E+03 0. -1.
</event>
<event>
 4    1  0.1116913E+000  0.1000000E+03  0.7546771E-02  0.1280296E+00
          1   -1    0    0  502    0  0.00000000000E+00  0.00000000000E+00  0.64071555111E+03  0.64071555111E+03  0.00000000000E+00 0. -1.
         -1   -1    0    0    0  501 -0.00000000000E+00 -0.00000000000E+00 -0.75865577586E+02  0.75865577586E+02  0.00000000000E+00 0.  1.
          6    1    1    2  502    0 -0.92301707167E+02  0.54246374399E+02  0.42048189316E+03  0.46711486462E+03  0.17300000000E+03 0.  1.
         -6    1    1    2    0  501  0.92301707167E+02 -0.54246374399E+02  0.14436808037E+03  0.24946626407E+03  0.17300000000E+03 0. -1.
</event>
<event>
 4    1  0.1116913E+000  0.1000000E+03  0.7546771E-02  0.1280296E+00
         -2   -1    0    0    0  501 -0.00000000000E+00  0.00000000000E+00  0.51240743807E+02  0.51240743807E+02  0.00000000000E+00 0. -1.
          2   -1    0    0  502    0  0.00000000000E+00 -0.00000000000E+00 -0.25489932764E+04  0.25489932764E+04  0.00000000000E+00 0.  1.
          6    1    1    2  502    0  0.31357930461E+03 -0.26511146034E+02 -0.13949370345E+04  0.14404211715E+04  0.17300000000E+03 0.  1.
         -6    1    1    2    0  501 -0.31357930461E+03  0.26511146034E+02 -0.11028154981E+04  0.11598128487E+04  0.17300000000E+03 0. -1.
</event>
<event>
 4    1  0.1116913E+000  0.1000000E+03  0.7546771E-02  0.1280296E+00
         -1   -1    0    0    0  501 -0.00000000000E+00  0.00000000000E+00  0.14802445336E+03  0.14802445336E+03  0.00000000000E+00 0. -1.
          1   -1    0    0  502    0  0.00000000000E+00 -0.00000000000E+00 -0.61247404493E+03  0.61247404493E+03  0.00000000000E+00 0.  1.
          6    1    1    2  502    0 -0.22399113054E+03  0.93913783674E+02 -0.17954171759E+03  0.34807478174E+03  0.17300000000E+03 0.  1.
         -6    1    1    2    0  501  0.22399113054E+03 -0.93913783674E+02 -0.28490787398E+03  0.41242371656E+03  0.17300000000E+03 0. -1.
</event>
<event>
 4    1  0.1116913E+000  0.1000000E+03  0.7546771E-02  0.1280296E+00
         -1   -1    0    0    0  501 -0.00000000000E+00  0.00000000000E+00  0.67538094382E+02  0.67538094382E+02  0.00000000000E+00 0.  1.
          1   -1    0    0  502    0  0.00000000000E+00 -0.00000000000E+00 -0.92467329369E+03  0.92467329369E+03  0.00000000000E+00 0. -1.
          6    1    1    2  502    0 -0.86184825331E+02  0.15392738056E+03 -0.35428242052E+03  0.43193343942E+03  0.17300000000E+03 0.  1.
         -6    1    1    2    0  501  0.86184825331E+02 -0.15392738056E+03 -0.50285277879E+03  0.56027794865E+03  0.17300000000E+03 0.  1.
</event>
