<event>
 4    1  0.5959403E+000  0.1000000E+03  0.7546771E-02  0.1280296E+00
         21   -1    0    0  501  502  0.00000000000E+00  0.00000000000E+00  0.17823411136E+03  0.17823411136E+03  0.00000000000E+00 0.  1.
         21   -1    0    0  502  503 -0.00000000000E+00 -0.00000000000E+00 -0.71525658081E+03  0.71525658081E+03  0.00000000000E+00 0.  1.
          6    1    1    2  501    0  0.20195746685E+03  0.89265530235E+02  0.78893841239E+01  0.28061788198E+03  0.17300000000E+03 0.  1.
         -6    1    1    2    0  503 -0.20195746685E+03 -0.89265530235E+02 -0.54491185358E+03  0.61287281019E+03  0.17300000000E+03 0.  1.
</event>
<event>
 4    1  0.5959403E+000  0.1000000E+03  0.7546771E-02  0.1280296E+00
         21   -1    0    0  501  502  0.00000000000E+00  0.00000000000E+00  0.33505415685E+03  0.33505415685E+03  0.00000000000E+00 0.  1.
         21   -1    0    0  502  503 -0.00000000000E+00 -0.00000000000E+00 -0.12573265136E+03  0.12573265136E+03  0.00000000000E+00 0.  1.
          6    1    1    2  501    0 -0.94443546062E+02  0.57061471805E+02  0.99318224024E+02  0.22796645495E+03  0.17300000000E+03 0.  1.
         -6    1    1    2    0  503  0.94443546062E+02 -0.57061471805E+02  0.11000328147E+03  0.23282035326E+03  0.17300000000E+03 0.  1.
</event>
<event>
 4    1  0.5959403E+000  0.1000000E+03  0.7546771E-02  0.1280296E+00
         21   -1    0    0  503  502  0.00000000000E+00  0.00000000000E+00  0.23751491206E+03  0.23751491206E+03  0.00000000000E+00 0. -1.
         21   -1    0    0  501  503 -0.00000000000E+00 -0.00000000000E+00 -0.26714046821E+03  0.26714046821E+03  0.00000000000E+00 0. -1.
          6    1    1    2  501    0 -0.97911485811E+02  0.76048367946E+02  0.12014499160E+03  0.24440505790E+03  0.17300000000E+03 0. -1.
         -6    1    1    2    0  502  0.97911485811E+02 -0.76048367946E+02 -0.14977054775E+03  0.26025032237E+03  0.17300000000E+03 0. -1.
</event>
<event>
 4    1  0.5959403E+000  0.1000000E+03  0.7546771E-02  0.1280296E+00
         21   -1    0    0  503  502  0.00000000000E+00  0.00000000000E+00  0.12093030595E+04  0.12093030595E+04  0.00000000000E+00 0. -1.
         21   -1    0    0  501  503 -0.00000000000E+00 -0.00000000000E+00 -0.59451505482E+02  0.59451505482E+02  0.00000000000E+00 0. -1.
          6    1    1    2  501    0  0.11801708543E+03 -0.42341990043E+01  0.17889210323E+03  0.27545842789E+03  0.17300000000E+03 0. -1.
         -6    1    1    2    0  502 -0.11801708543E+03  0.42341990043E+01  0.97095945077E+03  0.99329613708E+03  0.17300000000E+03 0. -1.
</event>
<event>
 4    1  0.5959403E+000  0.1000000E+03  0.7546771E-02  0.1280296E+00
         21   -1    0    0  501  502  0.00000000000E+00  0.00000000000E+00  0.54177339879E+02  0.54177339879E+02  0.00000000000E+00 0.  1.
         21   -1    0    0  502  503 -0.00000000000E+00 -0.00000000000E+00 -0.67494091933E+03  0.67494091933E+03  0.00000000000E+00 0.  1.
          6    1    1    2  501    0  0.12570780306E+02  0.50365642961E+02 -0.19067257210E+03  0.26263996699E+03  0.17300000000E+03 0.  1.
         -6    1    1    2    0  503 -0.12570780306E+02 -0.50365642961E+02 -0.43009100735E+03  0.46647829222E+03  0.17300000000E+03 0.  1.
</event>
<event>
 4    1  0.5959403E+000  0.1000000E+03  0.7546771E-02  0.1280296E+00
         21   -1    0    0  501  502  0.00000000000E+00  0.00000000000E+00  0.12354681817E+04  0.12354681817E+04  0.00000000000E+00 0.  1.
         21   -1    0    0  502  503 -0.00000000000E+00 -0.00000000000E+00 -0.47947326096E+02  0.47947326096E+02  0.00000000000E+00 0.  1.
          6    1    1    2  501    0  0.14485375711E+02  0.11144490405E+03  0.25325883773E+03  0.32664787101E+03  0.17300000000E+03 0.  1.
         -6    1    1    2    0  503 -0.14485375711E+02 -0.11144490405E+03  0.93426201785E+03  0.95676763676E+03  0.17300000000E+03 0.  1.
</event>
<event>
 4    1  0.5959403E+000  0.1000000E+03  0.7546771E-02  0.1280296E+00
         21   -1    0    0  501  502  0.00000000000E+00  0.00000000000E+00  0.10991198129E+04  0.10991198129E+04  0.00000000000E+00 0.  1.
         21   -1    0    0  502  503 -0.00000000000E+00 -0.00000000000E+00 -0.10947806782E+03  0.10947806782E+03  0.00000000000E+00 0.  1.
          6    1    1    2  501    0 -0.27514107008E+02  0.27938427746E+03  0.68234984008E+03  0.75785414483E+03  0.17300000000E+03 0.  1.
         -6    1    1    2    0  503  0.27514107008E+02 -0.27938427746E+03  0.30729190500E+03  0.45074373590E+03  0.17300000000E+03 0.  1.
</event>
<event>
 4    1  0.5959403E+000  0.1000000E+03  0.7546771E-02  0.1280296E+00
         21   -1    0    0  501  502  0.00000000000E+00  0.00000000000E+00  0.15906878207E+03  0.15906878207E+03  0.00000000000E+00 0. -1.
         21   -1    0    0  502  503 -0.00000000000E+00 -0.00000000000E+00 -0.37143117491E+03  0.37143117491E+03  0.00000000000E+00 0. -1.
          6    1    1    2  501    0 -0.11014684088E+03 -0.98365744854E+02 -0.12651842855E+02  0.22780960349E+03  0.17300000000E+03 0. -1.
         -6    1    1    2    0  503  0.11014684088E+03  0.98365744854E+02 -0.19971054999E+03  0.30269035349E+03  0.17300000000E+03 0. -1.
</event>
<event>
 4    1  0.5959403E+000  0.1000000E+03  0.7546771E-02  0.1280296E+00
         21   -1    0    0  501  502  0.00000000000E+00  0.00000000000E+00  0.62047634416E+03  0.62047634416E+03  0.00000000000E+00 0. -1.
         21   -1    0    0  502  503 -0.00000000000E+00 -0.00000000000E+00 -0.65606106162E+02  0.65606106162E+02  0.00000000000E+00 0. -1.
          6    1    1    2  501    0 -0.67361170227E+02  0.76258850840E+02  0.31249058567E+03  0.37139238780E+03  0.17300000000E+03 0. -1.
         -6    1    1    2    0  503  0.67361170227E+02 -0.76258850840E+02  0.24237965233E+03  0.31469006252E+03  0.17300000000E+03 0. -1.
</event>
<event>
 4    1  0.5959403E+000  0.1000000E+03  0.7546771E-02  0.1280296E+00
         21   -1    0    0  501  502  0.00000000000E+00  0.00000000000E+00  0.25591268322E+03  0.25591268322E+03  0.00000000000E+00 0. -1.
         21   -1    0    0  502  503 -0.00000000000E+00 -0.00000000000E+00 -0.21119475230E+03  0.21119475230E+03  0.00000000000E+00 0. -1.
          6    1    1    2  501    0  0.15452943680E+03 -0.70368013490E+01  0.36190293544E+02  0.23487784220E+03  0.17300000000E+03 0. -1.
         -6    1    1    2    0  503 -0.15452943680E+03  0.70368013490E+01  0.85276373724E+01  0.23222959331E+03  0.17300000000E+03 0. -1.
</event>
<event>
 4    1  0.5959403E+000  0.1000000E+03  0.7546771E-02  0.1280296E+00
         21   -1    0    0  503  502  0.00000000000E+00  0.00000000000E+00  0.55676587209E+03  0.55676587209E+03  0.00000000000E+00 0. -1.
         21   -1    0    0  501  503 -0.00000000000E+00 -0.00000000000E+00 -0.12112519288E+03  0.12112519288E+03  0.00000000000E+00 0. -1.
          6    1    1    2  501    0 -0.18164322684E+02 -0.42141406974E+02 -0.27763435285E+02  0.18112329817E+03  0.17300000000E+03 0. -1.
         -6    1    1    2    0  502  0.18164322684E+02  0.42141406974E+02  0.46340411450E+03  0.49676776680E+03  0.17300000000E+03 0. -1.
</event>
<event>
 4    1  0.5959403E+000  0.1000000E+03  0.7546771E-02  0.1280296E+00
         21   -1    0    0  501  502  0.00000000000E+00  0.00000000000E+00  0.55475114594E+03  0.55475114594E+03  0.00000000000E+00 0.  1.
         21   -1    0    0  502  503 -0.00000000000E+00 -0.00000000000E+00 -0.17502007560E+03  0.17502007560E+03  0.00000000000E+00 0. -1.
          6    1    1    2  501    0 -0.19030843033E+03  0.59626699738E+02  0.38367153237E+03  0.46573113137E+03  0.17300000000E+03 0. -1.
         -6    1    1    2    0  503  0.19030843033E+03 -0.59626699738E+02 -0.39404620207E+01  0.26404009017E+03  0.17300000000E+03 0.  1.
</event>
<event>
 4    1  0.5959403E+000  0.1000000E+03  0.7546771E-02  0.1280296E+00
         21   -1    0    0  501  502  0.00000000000E+00  0.00000000000E+00  0.61378015247E+03  0.61378015247E+03  0.00000000000E+00 0.  1.
         21   -1    0    0  502  503 -0.00000000000E+00 -0.00000000000E+00 -0.29518225452E+04  0.29518225452E+04  0.00000000000E+00 0. -1.
          6    1    1    2  501    0 -0.59467264953E+03  0.19524976476E+03  0.39258594551E+03  0.75882195234E+03  0.17300000000E+03 0. -1.
         -6    1    1    2    0  503  0.59467264953E+03 -0.19524976476E+03 -0.27306283382E+04  0.28067807453E+04  0.17300000000E+03 0.  1.
</event>
<event>
 4    1  0.5959403E+000  0.1000000E+03  0.7546771E-02  0.1280296E+00
         21   -1    0    0  501  502  0.00000000000E+00  0.00000000000E+00  0.25699588799E+03  0.25699588799E+03  0.00000000000E+00 0.  1.
         21   -1    0    0  502  503 -0.00000000000E+00 -0.00000000000E+00 -0.25054079381E+03  0.25054079381E+03  0.00000000000E+00 0. -1.
          6    1    1    2  501    0  0.92224829271E+02 -0.12873433332E+03 -0.93635881453E+02  0.25253638551E+03  0.17300000000E+03 0. -1.
         -6    1    1    2    0  503 -0.92224829271E+02  0.12873433332E+03  0.10009097563E+03  0.25500029630E+03  0.17300000000E+03 0.  1.
</event>
<event>
 4    1  0.5959403E+000  0.1000000E+03  0.7546771E-02  0.1280296E+00
         21   -1    0    0  501  502  0.00000000000E+00  0.00000000000E+00  0.28013539001E+03  0.28013539001E+03  0.00000000000E+00 0.  1.
         21   -1    0    0  502  503 -0.00000000000E+00 -0.00000000000E+00 -0.15338930547E+03  0.15338930547E+03  0.00000000000E+00 0. -1.
          6    1    1    2  501    0  0.61241216472E+02 -0.44341502085E+02  0.15286416749E+03  0.24292613919E+03  0.17300000000E+03 0.  1.
         -6    1    1    2    0  503 -0.61241216472E+02  0.44341502085E+02 -0.26118082943E+02  0.19059855629E+03  0.17300000000E+03 0. -1.
</event>
<event>
 4    1  0.5959403E+000  0.1000000E+03  0.7546771E-02  0.1280296E+00
         21   -1    0    0  501  502  0.00000000000E+00  0.00000000000E+00  0.19297305102E+03  0.19297305102E+03  0.00000000000E+00 0. -1.
         21   -1    0    0  502  503 -0.00000000000E+00 -0.00000000000E+00 -0.66194822249E+03  0.66194822249E+03  0.00000000000E+00 0.  1.
          6    1    1    2  501    0 -0.32105868635E+01 -0.28623161666E+03 -0.83816938490E+02  0.34480882446E+03  0.17300000000E+03 0. -1.
         -6    1    1    2    0  503  0.32105868635E+01  0.28623161666E+03 -0.38515823298E+03  0.51011244905E+03  0.17300000000E+03 0.  1.
</event>
<event>
 4    1  0.5959403E+000  0.1000000E+03  0.7546771E-02  0.1280296E+00
         21   -1    0    0  503  502  0.00000000000E+00  0.00000000000E+00  0.26003831060E+03  0.26003831060E+03  0.00000000000E+00 0. -1.
         21   -1    0    0  501  503 -0.00000000000E+00 -0.00000000000E+00 -0.40496426451E+03  0.40496426451E+03  0.00000000000E+00 0.  1.
          6    1    1    2  501    0 -0.72700117178E+02  0.14307050124E+02 -0.34333565990E+03  0.39153336267E+03  0.17300000000E+03 0.  1.
         -6    1    1    2    0  502  0.72700117178E+02 -0.14307050124E+02  0.19840970600E+03  0.27346921244E+03  0.17300000000E+03 0. -1.
</event>
<event>
 4    1  0.5959403E+000  0.1000000E+03  0.7546771E-02  0.1280296E+00
         21   -1    0    0  503  502  0.00000000000E+00  0.00000000000E+00  0.73556492860E+02  0.73556492860E+02  0.00000000000E+00 0.  1.
         21   -1    0    0  501  503 -0.00000000000E+00 -0.00000000000E+00 -0.14763278626E+04  0.14763278626E+04  0.00000000000E+00 0. -1.
          6    1    1    2  501    0 -0.57727559675E+02 -0.55635230974E+02 -0.13334284761E+04  0.13469922980E+04  0.17300000000E+03 0.  1.
         -6    1    1    2    0  502  0.57727559675E+02  0.55635230974E+02 -0.69342893644E+02  0.20289205744E+03  0.17300000000E+03 0. -1.
</event>
<event>
 4    1  0.5959403E+000  0.1000000E+03  0.7546771E-02  0.1280296E+00
         21   -1    0    0  501  502  0.00000000000E+00  0.00000000000E+00  0.24180947887E+04  0.24180947887E+04  0.00000000000E+00 0.  1.
         21   -1    0    0  502  503 -0.00000000000E+00 -0.00000000000E+00 -0.17680219380E+02  0.17680219380E+02  0.00000000000E+00 0.  1.
          6    1    1    2  501    0  0.29671566593E+02 -0.12037251585E+01  0.18438692808E+04  0.18522053816E+04  0.17300000000E+03 0.  1.
         -6    1    1    2    0  503 -0.29671566593E+02  0.12037251585E+01  0.55654528853E+03  0.58356962652E+03  0.17300000000E+03 0.  1.
</event>
<event>
 4    1  0.5959403E+000  0.1000000E+03  0.7546771E-02  0.1280296E+00
         21   -1    0    0  501  502  0.00000000000E+00  0.00000000000E+00  0.22741414528E+03  0.22741414528E+03  0.00000000000E+00 0.  1.
         21   -1    0    0  502  503 -0.00000000000E+00 -0.00000000000E+00 -0.67289567232E+03  0.67289567232E+03  0.00000000000E+00 0.  1.
          6    1    1    2  501    0  0.79780730878E+02 -0.24418166481E+03  0.52254596143E+02  0.31408469124E+03  0.17300000000E+03 0.  1.
         -6    1    1    2    0  503 -0.79780730878E+02  0.24418166481E+03 -0.49773612319E+03  0.58622512636E+03  0.17300000000E+03 0.  1.
</event>
<event>
 4    1  0.5959403E+000  0.1000000E+03  0.7546771E-02  0.1280296E+00
         21   -1    0    0  501  502  0.00000000000E+00  0.00000000000E+00  0.31477537464E+03  0.31477537464E+03  0.00000000000E+00 0.  1.
         21   -1    0    0  502  503 -0.00000000000E+00 -0.00000000000E+00 -0.38351571163E+03  0.38351571163E+03  0.00000000000E+00 0.  1.
          6    1    1    2  501    0 -0.10282718088E+03  0.58873968898E+02  0.24402484951E+03  0.32174011332E+03  0.17300000000E+03 0.  1.
         -6    1    1    2    0  503  0.10282718088E+03 -0.58873968898E+02 -0.31276518650E+03  0.37655097294E+03  0.17300000000E+03 0.  1.
</event>
<event>
 4    1  0.5959403E+000  0.1000000E+03  0.7546771E-02  0.1280296E+00
         21   -1    0    0  501  502  0.00000000000E+00  0.00000000000E+00  0.26699252831E+03  0.26699252831E+03  0.00000000000E+00 0.  1.
         21   -1    0    0  502  503 -0.00000000000E+00 -0.00000000000E+00 -0.34900022438E+03  0.34900022438E+03  0.00000000000E+00 0.  1.
          6    1    1    2  501    0 -0.44845325032E+02 -0.97593545520E+02  0.18844983294E+03  0.27744899142E+03  0.17300000000E+03 0.  1.
         -6    1    1    2    0  503  0.44845325032E+02  0.97593545520E+02 -0.27045752900E+03  0.33854376128E+03  0.17300000000E+03 0.  1.
</event>
<event>
 4    1  0.5959403E+000  0.1000000E+03  0.7546771E-02  0.1280296E+00
         21   -1    0    0  501  502  0.00000000000E+00  0.00000000000E+00  0.20841743266E+03  0.20841743266E+03  0.00000000000E+00 0.  1.
         21   -1    0    0  502  503 -0.00000000000E+00 -0.00000000000E+00 -0.49460069329E+03  0.49460069329E+03  0.00000000000E+00 0.  1.
          6    1    1    2  501    0 -0.24727184827E+02  0.11222717656E+03  0.12496689101E+03  0.24238831795E+03  0.17300000000E+03 0.  1.
         -6    1    1    2    0  503  0.24727184827E+02 -0.11222717656E+03 -0.41115015164E+03  0.46062980801E+03  0.17300000000E+03 0.  1.
</event>
<event>
 4    1  0.5959403E+000  0.1000000E+03  0.7546771E-02  0.1280296E+00
         21   -1    0    0  503  502  0.00000000000E+00  0.00000000000E+00  0.18754054286E+03  0.18754054286E+03  0.00000000000E+00 0. -1.
         21   -1    0    0  501  503 -0.00000000000E+00 -0.00000000000E+00 -0.10725384393E+04  0.10725384393E+04  0.00000000000E+00 0. -1.
          6    1    1    2  501    0 -0.33080470098E+02  0.90193856382E+02 -0.10078949754E+04  0.10271370555E+04  0.17300000000E+03 0. -1.
         -6    1    1    2    0  502  0.33080470098E+02 -0.90193856382E+02  0.12289707892E+03  0.23294192675E+03  0.17300000000E+03 0. -1.
</event>
<event>
 4    1  0.5959403E+000  0.1000000E+03  0.7546771E-02  0.1280296E+00
         21   -1    0    0  503  502  0.00000000000E+00  0.00000000000E+00  0.57804775905E+03  0.57804775905E+03  0.00000000000E+00 0. -1.
         21   -1    0    0  501  503 -0.00000000000E+00 -0.00000000000E+00 -0.64893819432E+02  0.64893819432E+02  0.00000000000E+00 0. -1.
          6    1    1    2  501    0 -0.63635419397E+02 -0.45327747401E+02  0.19275186957E+03  0.27052976640E+03  0.17300000000E+03 0. -1.
         -6    1    1    2    0  502  0.63635419397E+02  0.45327747401E+02  0.32040207005E+03  0.37241181208E+03  0.17300000000E+03 0. -1.
</event>
<event>
 4    1  0.5959403E+000  0.1000000E+03  0.7546771E-02  0.1280296E+00
         21   -1    0    0  501  502  0.00000000000E+00  0.00000000000E+00  0.25334478809E+03  0.25334478809E+03  0.00000000000E+00 0.  1.
         21   -1    0    0  502  503 -0.00000000000E+00 -0.00000000000E+00 -0.16480588177E+03  0.16480588177E+03  0.00000000000E+00 0.  1.
          6    1    1    2  501    0  0.60294301333E+02 -0.86767110196E+02  0.17987414539E+02  0.20351039597E+03  0.17300000000E+03 0.  1.
         -6    1    1    2    0  503 -0.60294301333E+02  0.86767110196E+02  0.70551491780E+02  0.21464027389E+03  0.17300000000E+03 0.  1.
</event>
<event>
 4    1  0.5959403E+000  0.1000000E+03  0.7546771E-02  0.1280296E+00
         21   -1    0    0  501  502  0.00000000000E+00  0.00000000000E+00  0.43019097997E+03  0.43019097997E+03  0.00000000000E+00 0.  1.
         21   -1    0    0  502  503 -0.00000000000E+00 -0.00000000000E+00 -0.24140153361E+03  0.24140153361E+03  0.00000000000E+00 0.  1.
          6    1    1    2  501    0  0.29594294636E+02  0.22550225926E+03 -0.60836820626E+02  0.29215956248E+03  0.17300000000E+03 0.  1.
         -6    1    1    2    0  503 -0.29594294636E+02 -0.22550225926E+03  0.24962626699E+03  0.37943295110E+03  0.17300000000E+03 0.  1.
</event>
<event>
 4    1  0.5959403E+000  0.1000000E+03  0.7546771E-02  0.1280296E+00
         21   -1    0    0  503  502  0.00000000000E+00  0.00000000000E+00  0.29214808445E+03  0.29214808445E+03  0.00000000000E+00 0. -1.
         21   -1    0    0  501  503 -0.00000000000E+00 -0.00000000000E+00 -0.17114689738E+03  0.17114689738E+03  0.00000000000E+00 0. -1.
          6    1    1    2  501    0 -0.12785087846E+03  0.17220586726E+02 -0.16121192706E+00  0.21580412813E+03  0.17300000000E+03 0.  1.
         -6    1    1    2    0  502  0.12785087846E+03 -0.17220586726E+02  0.12116239900E+03  0.24749085369E+03  0.17300000000E+03 0.  1.
</event>
<event>
 4    1  0.5959403E+000  0.1000000E+03  0.7546771E-02  0.1280296E+00
         21   -1    0    0  501  502  0.00000000000E+00  0.00000000000E+00  0.36889078785E+02  0.36889078785E+02  0.00000000000E+00 0. -1.
         21   -1    0    0  502  503 -0.00000000000E+00 -0.00000000000E+00 -0.13162265122E+04  0.13162265122E+04  0.00000000000E+00 0. -1.
          6    1    1    2  501    0 -0.41810534231E+02  0.62673038497E+01 -0.24125367908E+03  0.29986619940E+03  0.17300000000E+03 0.  1.
         -6    1    1    2    0  503  0.41810534231E+02 -0.62673038497E+01 -0.10380837543E+04  0.10532493916E+04  0.17300000000E+03 0.  1.
</event>
<event>
 4    1  0.5959403E+000  0.1000000E+03  0.7546771E-02  0.1280296E+00
         21   -1    0    0  501  502  0.00000000000E+00  0.00000000000E+00  0.11899233724E+03  0.11899233724E+03  0.00000000000E+00 0.  1.
         21   -1    0    0  502  503 -0.00000000000E+00 -0.00000000000E+00 -0.26241450906E+03  0.26241450906E+03  0.00000000000E+00 0.  1.
          6    1    1    2  501    0  0.32538663844E+02  0.63627637710E+01 -0.56561132147E+02  0.18500651631E+03  0.17300000000E+03 0.  1.
         -6    1    1    2    0  503 -0.32538663844E+02 -0.63627637710E+01 -0.86861039677E+02  0.19640032999E+03  0.17300000000E+03 0.  1.
</event>
<event>
 4    1  0.5959403E+000  0.1000000E+03  0.7546771E-02  0.1280296E+00
         21   -1    0    0  503  502  0.00000000000E+00  0.00000000000E+00  0.33940423015E+03  0.33940423015E+03  0.00000000000E+00 0. -1.
         21   -1    0    0  501  503 -0.00000000000E+00 -0.00000000000E+00 -0.23404773305E+03  0.23404773305E+03  0.00000000000E+00 0. -1.
          6    1    1    2  501    0  0.65295008597E+02 -0.12271003572E+03 -0.12407332984E+03  0.25425259525E+03  0.17300000000E+03 0. -1.
         -6    1    1    2    0  502 -0.65295008597E+02  0.12271003572E+03  0.22942982693E+03  0.31919936795E+03  0.17300000000E+03 0. -1.
</event>
<event>
 4    1  0.5959403E+000  0.1000000E+03  0.7546771E-02  0.1280296E+00
         21   -1    0    0  501  502  0.00000000000E+00  0.00000000000E+00  0.44223752121E+03  0.44223752121E+03  0.00000000000E+00 0.  1.
         21   -1    0    0  502  503 -0.00000000000E+00 -0.00000000000E+00 -0.13772256883E+03  0.13772256883E+03  0.00000000000E+00 0. -1.
          6    1    1    2  501    0 -0.79769798842E+02 -0.15114690821E+01  0.33659235946E+03  0.38676727084E+03  0.17300000000E+03 0.  1.
         -6    1    1    2    0  503  0.79769798842E+02  0.15114690821E+01 -0.32077407078E+02  0.19319281920E+03  0.17300000000E+03 0. -1.
</event>
<event>
 4    1  0.5959403E+000  0.1000000E+03  0.7546771E-02  0.1280296E+00
         21   -1    0    0  503  502  0.00000000000E+00  0.00000000000E+00  0.14479563321E+03  0.14479563321E+03  0.00000000000E+00 0.  1.
         21   -1    0    0  501  503 -0.00000000000E+00 -0.00000000000E+00 -0.64117796300E+03  0.64117796300E+03  0.00000000000E+00 0.  1.
          6    1    1    2  501    0  0.17462327256E+02 -0.13823910589E+03 -0.51718016846E+03  0.56286704462E+03  0.17300000000E+03 0.  1.
         -6    1    1    2    0  502 -0.17462327256E+02  0.13823910589E+03  0.20797838667E+02  0.22310655159E+03  0.17300000000E+03 0.  1.
</event>
<event>
 4    1  0.5959403E+000  0.1000000E+03  0.7546771E-02  0.1280296E+00
         21   -1    0    0  503  502  0.00000000000E+00  0.00000000000E+00  0.15342794646E+03  0.15342794646E+03  0.00000000000E+00 0.  1.
         21   -1    0    0  501  503 -0.00000000000E+00 -0.00000000000E+00 -0.48150854906E+03  0.48150854906E+03  0.00000000000E+00 0.  1.
          6    1    1    2  501    0 -0.28189239649E+02 -0.11628220408E+03 -0.36509962713E+03  0.42135842456E+03  0.17300000000E+03 0.  1.
         -6    1    1    2    0  502  0.28189239649E+02  0.11628220408E+03  0.37019024528E+02  0.21357807096E+03  0.17300000000E+03 0.  1.
</event>
<event>
 4    1  0.5959403E+000  0.1000000E+03  0.7546771E-02  0.1280296E+00
         21   -1    0    0  503  502  0.00000000000E+00  0.00000000000E+00  0.50385868701E+03  0.50385868701E+03  0.00000000000E+00 0.  1.
         21   -1    0    0  501  503 -0.00000000000E+00 -0.00000000000E+00 -0.42290557832E+03  0.42290557832E+03  0.00000000000E+00 0.  1.
          6    1    1    2  501    0 -0.14898132445E+03 -0.10244679047E+03 -0.34890982710E+03  0.42936912716E+03  0.17300000000E+03 0.  1.
         -6    1    1    2    0  502  0.14898132445E+03  0.10244679047E+03  0.42986293578E+03  0.49739513817E+03  0.17300000000E+03 0.  1.
</event>
<event>
 4    1  0.5959403E+000  0.1000000E+03  0.7546771E-02  0.1280296E+00
         21   -1    0    0  503  502  0.00000000000E+00  0.00000000000E+00  0.55454078891E+03  0.55454078891E+03  0.00000000000E+00 0.  1.
         21   -1    0    0  501  503 -0.00000000000E+00 -0.00000000000E+00 -0.15596664235E+03  0.15596664235E+03  0.00000000000E+00 0.  1.
          6    1    1    2  501    0 -0.50811050039E+02 -0.15702332384E+03 -0.75643791603E+01  0.23921602553E+03  0.17300000000E+03 0.  1.
         -6    1    1    2    0  502  0.50811050039E+02  0.15702332384E+03  0.40613852572E+03  0.47129140573E+03  0.17300000000E+03 0.  1.
</event>
<event>
 4    1  0.5959403E+000  0.1000000E+03  0.7546771E-02  0.1280296E+00
         21   -1    0    0  503  502  0.00000000000E+00  0.00000000000E+00  0.24102229447E+03  0.24102229447E+03  0.00000000000E+00 0.  1.
         21   -1    0    0  501  503 -0.00000000000E+00 -0.00000000000E+00 -0.67383136245E+03  0.67383136245E+03  0.00000000000E+00 0.  1.
          6    1    1    2  501    0  0.45528708703E+02  0.64922380928E+02 -0.61961578446E+03  0.64818245828E+03  0.17300000000E+03 0.  1.
         -6    1    1    2    0  502 -0.45528708703E+02 -0.64922380928E+02  0.18680671648E+03  0.26667119864E+03  0.17300000000E+03 0.  1.
</event>
<event>
 4    1  0.5959403E+000  0.1000000E+03  0.7546771E-02  0.1280296E+00
         21   -1    0    0  501  502  0.00000000000E+00  0.00000000000E+00  0.63046865103E+03  0.63046865103E+03  0.00000000000E+00 0.  1.
         21   -1    0    0  502  503 -0.00000000000E+00 -0.00000000000E+00 -0.15984935526E+03  0.15984935526E+03  0.00000000000E+00 0. -1.
          6    1    1    2  501    0  0.10467824524E+03 -0.17933605684E+02  0.53912188427E+03  0.57607339406E+03  0.17300000000E+03 0.  1.
         -6    1    1    2    0  503 -0.10467824524E+03  0.17933605684E+02 -0.68502588503E+02  0.21424461223E+03  0.17300000000E+03 0.  1.
</event>
<event>
 4    1  0.5959403E+000  0.1000000E+03  0.7546771E-02  0.1280296E+00
         21   -1    0    0  501  502  0.00000000000E+00  0.00000000000E+00  0.75869879166E+03  0.75869879166E+03  0.00000000000E+00 0.  1.
         21   -1    0    0  502  503 -0.00000000000E+00 -0.00000000000E+00 -0.19292456318E+03  0.19292456318E+03  0.00000000000E+00 0. -1.
          6    1    1    2  501    0  0.24892336913E+03  0.36689603183E+02  0.56956323093E+03  0.64625091467E+03  0.17300000000E+03 0.  1.
         -6    1    1    2    0  503 -0.24892336913E+03 -0.36689603183E+02 -0.37890024453E+01  0.30537244018E+03  0.17300000000E+03 0. -1.
</event>
<event>
 4    1  0.5959403E+000  0.1000000E+03  0.7546771E-02  0.1280296E+00
         21   -1    0    0  501  502  0.00000000000E+00  0.00000000000E+00  0.21276508539E+03  0.21276508539E+03  0.00000000000E+00 0.  1.
         21   -1    0    0  502  503 -0.00000000000E+00 -0.00000000000E+00 -0.19026707134E+03  0.19026707134E+03  0.00000000000E+00 0. -1.
          6    1    1    2  501    0 -0.93978274036E+02 -0.32019304020E+02  0.37672737866E+02  0.20299110079E+03  0.17300000000E+03 0.  1.
         -6    1    1    2    0  503  0.93978274036E+02  0.32019304020E+02 -0.15174723820E+02  0.20004105595E+03  0.17300000000E+03 0. -1.
</event>
<event>
 4    1  0.5959403E+000  0.1000000E+03  0.7546771E-02  0.1280296E+00
         21   -1    0    0  503  502  0.00000000000E+00  0.00000000000E+00  0.11431876563E+03  0.11431876563E+03  0.00000000000E+00 0. -1.
         21   -1    0    0  501  503 -0.00000000000E+00 -0.00000000000E+00 -0.30509315917E+03  0.30509315917E+03  0.00000000000E+00 0. -1.
          6    1    1    2  501    0 -0.67536997030E+02  0.18898922284E+02 -0.10158428079E+03  0.21252477817E+03  0.17300000000E+03 0. -1.
         -6    1    1    2    0  502  0.67536997030E+02 -0.18898922284E+02 -0.89190112749E+02  0.20688714664E+03  0.17300000000E+03 0. -1.
</event>
<event>
 4    1  0.5959403E+000  0.1000000E+03  0.7546771E-02  0.1280296E+00
         21   -1    0    0  503  502  0.00000000000E+00  0.00000000000E+00  0.11385962957E+03  0.11385962957E+03  0.00000000000E+00 0. -1.
         21   -1    0    0  501  503 -0.00000000000E+00 -0.00000000000E+00 -0.57997429849E+03  0.57997429849E+03  0.00000000000E+00 0. -1.
          6    1    1    2  501    0  0.17761502699E+03 -0.11250416345E+02 -0.32294179405E+03  0.40730096001E+03  0.17300000000E+03 0. -1.
         -6    1    1    2    0  502 -0.17761502699E+03  0.11250416345E+02 -0.14317287487E+03  0.28653296805E+03  0.17300000000E+03 0. -1.
</event>
<event>
 4    1  0.5959403E+000  0.1000000E+03  0.7546771E-02  0.1280296E+00
         21   -1    0    0  501  502  0.00000000000E+00  0.00000000000E+00  0.10928482236E+03  0.10928482236E+03  0.00000000000E+00 0.  1.
         21   -1    0    0  502  503 -0.00000000000E+00 -0.00000000000E+00 -0.30922366927E+03  0.30922366927E+03  0.00000000000E+00 0.  1.
          6    1    1    2  501    0 -0.95172217168E+00  0.26457664269E+02 -0.35945150841E+02  0.17866719800E+03  0.17300000000E+03 0. -1.
         -6    1    1    2    0  503  0.95172217168E+00 -0.26457664269E+02 -0.16399369607E+03  0.23984129362E+03  0.17300000000E+03 0. -1.
</event>
<event>
 4    1  0.5959403E+000  0.1000000E+03  0.7546771E-02  0.1280296E+00
         21   -1    0    0  503  502  0.00000000000E+00  0.00000000000E+00  0.53450502170E+03  0.53450502170E+03  0.00000000000E+00 0.  1.
         21   -1    0    0  501  503 -0.00000000000E+00 -0.00000000000E+00 -0.14376765627E+03  0.14376765627E+03  0.00000000000E+00 0.  1.
          6    1    1    2  501    0 -0.64533621634E+02  0.45963068616E+02 -0.51255595941E+02  0.19706173681E+03  0.17300000000E+03 0.  1.
         -6    1    1    2    0  502  0.64533621634E+02 -0.45963068616E+02  0.44199296137E+03  0.48121094117E+03  0.17300000000E+03 0.  1.
</event>
<event>
 4    1  0.5959403E+000  0.1000000E+03  0.7546771E-02  0.1280296E+00
         21   -1    0    0  503  502  0.00000000000E+00  0.00000000000E+00  0.11784404307E+03  0.11784404307E+03  0.00000000000E+00 0.  1.
         21   -1    0    0  501  503 -0.00000000000E+00 -0.00000000000E+00 -0.73751929170E+03  0.73751929170E+03  0.00000000000E+00 0.  1.
          6    1    1    2  501    0 -0.92550160139E+02 -0.63013803682E+02 -0.61568254434E+03  0.64925362301E+03  0.17300000000E+03 0.  1.
         -6    1    1    2    0  502  0.92550160139E+02  0.63013803682E+02 -0.39927042946E+01  0.20610971176E+03  0.17300000000E+03 0.  1.
</event>
<event>
 4    1  0.5959403E+000  0.1000000E+03  0.7546771E-02  0.1280296E+00
         21   -1    0    0  503  502  0.00000000000E+00  0.00000000000E+00  0.79547742293E+03  0.79547742293E+03  0.00000000000E+00 0.  1.
         21   -1    0    0  501  503 -0.00000000000E+00 -0.00000000000E+00 -0.79575384274E+02  0.79575384274E+02  0.00000000000E+00 0.  1.
          6    1    1    2  501    0  0.13380215104E+03 -0.82967235332E+02  0.19682444807E+03  0.30570482678E+03  0.17300000000E+03 0.  1.
         -6    1    1    2    0  502 -0.13380215104E+03  0.82967235332E+02  0.51907759059E+03  0.56934798043E+03  0.17300000000E+03 0.  1.
</event>
<event>
 4    1  0.5959403E+000  0.1000000E+03  0.7546771E-02  0.1280296E+00
         21   -1    0    0  503  502  0.00000000000E+00  0.00000000000E+00  0.52859894333E+03  0.52859894333E+03  0.00000000000E+00 0.  1.
         21   -1    0    0  501  503 -0.00000000000E+00 -0.00000000000E+00 -0.31575694147E+03  0.31575694147E+03  0.00000000000E+00 0.  1.
          6    1    1    2  501    0 -0.11567819984E+02 -0.46832088772E+02 -0.27277479716E+03  0.32659171600E+03  0.17300000000E+03 0.  1.
         -6    1    1    2    0  502  0.11567819984E+02  0.46832088772E+02  0.48561679902E+03  0.51776416879E+03  0.17300000000E+03 0.  1.
</event>
<event>
 4    1  0.5959403E+000  0.1000000E+03  0.7546771E-02  0.1280296E+00
         21   -1    0    0  503  502  0.00000000000E+00  0.00000000000E+00  0.43400191919E+03  0.43400191919E+03  0.00000000000E+00 0.  1.
         21   -1    0    0  501  503 -0.00000000000E+00 -0.00000000000E+00 -0.15055454907E+03  0.15055454907E+03  0.00000000000E+00 0.  1.
          6    1    1    2  501    0 -0.94223143652E+02  0.48516579159E+02 -0.36076738269E+02  0.20606404416E+03  0.17300000000E+03 0.  1.
         -6    1    1    2    0  502  0.94223143652E+02 -0.48516579159E+02  0.31952410839E+03  0.37849242409E+03  0.17300000000E+03 0.  1.
</event>
<event>
 4    1  0.5959403E+000  0.1000000E+03  0.7546771E-02  0.1280296E+00
         21   -1    0    0  501  502  0.00000000000E+00  0.00000000000E+00  0.98136254460E+02  0.98136254460E+02  0.00000000000E+00 0.  1.
         21   -1    0    0  502  503 -0.00000000000E+00 -0.00000000000E+00 -0.13488741874E+04  0.13488741874E+04  0.00000000000E+00 0.  1.
          6    1    1    2  501    0 -0.73957690663E+02 -0.21185994355E+02 -0.75473777931E+01  0.18948495792E+03  0.17300000000E+03 0.  1.
         -6    1    1    2    0  503  0.73957690663E+02  0.21185994355E+02 -0.12431905552E+04  0.12575254840E+04  0.17300000000E+03 0.  1.
</event>
<event>
 4    1  0.5959403E+000  0.1000000E+03  0.7546771E-02  0.1280296E+00
         21   -1    0    0  501  502  0.00000000000E+00  0.00000000000E+00  0.52699846655E+02  0.52699846655E+02  0.00000000000E+00 0.  1.
         21   -1    0    0  502  503 -0.00000000000E+00 -0.00000000000E+00 -0.91193551706E+03  0.91193551706E+03  0.00000000000E+00 0.  1.
          6    1    1    2  501    0  0.63639034433E+02  0.11862405958E+03 -0.42329169771E+03  0.47668276198E+03  0.17300000000E+03 0.  1.
         -6    1    1    2    0  503 -0.63639034433E+02 -0.11862405958E+03 -0.43594397269E+03  0.48795260174E+03  0.17300000000E+03 0.  1.
</event>
<event>
 4    1  0.5959403E+000  0.1000000E+03  0.7546771E-02  0.1280296E+00
         21   -1    0    0  503  502  0.00000000000E+00  0.00000000000E+00  0.35840098431E+03  0.35840098431E+03  0.00000000000E+00 0.  1.
         21   -1    0    0  501  503 -0.00000000000E+00 -0.00000000000E+00 -0.34153051418E+03  0.34153051418E+03  0.00000000000E+00 0. -1.
          6    1    1    2  501    0  0.30196268263E+02  0.11241621888E+03 -0.27258528223E+03  0.34319230319E+03  0.17300000000E+03 0. -1.
         -6    1    1    2    0  502 -0.30196268263E+02 -0.11241621888E+03  0.28945575237E+03  0.35673919530E+03  0.17300000000E+03 0.  1.
</event>
<event>
 4    1  0.5959403E+000  0.1000000E+03  0.7546771E-02  0.1280296E+00
         21   -1    0    0  503  502  0.00000000000E+00  0.00000000000E+00  0.89615295955E+03  0.89615295955E+03  0.00000000000E+00 0.  1.
         21   -1    0    0  501  503 -0.00000000000E+00 -0.00000000000E+00 -0.50552523148E+02  0.50552523148E+02  0.00000000000E+00 0. -1.
          6    1    1    2  501    0 -0.87459804794E+02 -0.20350967188E+02  0.23265150527E+03  0.30351128846E+03  0.17300000000E+03 0. -1.
         -6    1    1    2    0  502  0.87459804794E+02  0.20350967188E+02  0.61294893113E+03  0.64319419424E+03  0.17300000000E+03 0.  1.
</event>
<event>
 4    1  0.5959403E+000  0.1000000E+03  0.7546771E-02  0.1280296E+00
         21   -1    0    0  501  502  0.00000000000E+00  0.00000000000E+00  0.97776380485E+03  0.97776380485E+03  0.00000000000E+00 0.  1.
         21   -1    0    0  502  503 -0.00000000000E+00 -0.00000000000E+00 -0.30391013624E+03  0.30391013624E+03  0.00000000000E+00 0. -1.
          6    1    1    2  501    0  0.32970301612E+02 -0.63379034024E+02  0.93880357550E+03  0.95728005104E+03  0.17300000000E+03 0.  1.
         -6    1    1    2    0  503 -0.32970301612E+02  0.63379034024E+02 -0.26494990689E+03  0.32439389005E+03  0.17300000000E+03 0. -1.
</event>
<event>
 4    1  0.5959403E+000  0.1000000E+03  0.7546771E-02  0.1280296E+00
         21   -1    0    0  501  502  0.00000000000E+00  0.00000000000E+00  0.16951590375E+04  0.16951590375E+04  0.00000000000E+00 0.  1.
         21   -1    0    0  502  503 -0.00000000000E+00 -0.00000000000E+00 -0.37320200025E+02  0.37320200025E+02  0.00000000000E+00 0. -1.
          6    1    1    2  501    0 -0.67768117699E+02  0.75791512358E+02  0.13512001623E+04  0.13660189420E+04  0.17300000000E+03 0.  1.
         -6    1    1    2    0  503  0.67768117699E+02 -0.75791512358E+02  0.30663867510E+03  0.36646029551E+03  0.17300000000E+03 0. -1.
</event>
<event>
 4    1  0.5959403E+000  0.1000000E+03  0.7546771E-02  0.1280296E+00
         21   -1    0    0  501  502  0.00000000000E+00  0.00000000000E+00  0.68670637738E+02  0.68670637738E+02  0.00000000000E+00 0.  1.
         21   -1    0    0  502  503 -0.00000000000E+00 -0.00000000000E+00 -0.49523112497E+03  0.49523112497E+03  0.00000000000E+00 0. -1.
          6    1    1    2  501    0  0.31129231533E+02 -0.29880460682E+02 -0.14129168378E+03  0.22749551840E+03  0.17300000000E+03 0.  1.
         -6    1    1    2    0  503 -0.31129231533E+02  0.29880460682E+02 -0.28526880346E+03  0.33640624431E+03  0.17300000000E+03 0. -1.
</event>
<event>
 4    1  0.5959403E+000  0.1000000E+03  0.7546771E-02  0.1280296E+00
         21   -1    0    0  503  502  0.00000000000E+00  0.00000000000E+00  0.16206148779E+03  0.16206148779E+03  0.00000000000E+00 0.  1.
         21   -1    0    0  501  503 -0.00000000000E+00 -0.00000000000E+00 -0.27264692791E+03  0.27264692791E+03  0.00000000000E+00 0.  1.
          6    1    1    2  501    0  0.11236868995E+02 -0.96982980181E+02  0.15781223157E+02  0.19927371295E+03  0.17300000000E+03 0.  1.
         -6    1    1    2    0  502 -0.11236868995E+02  0.96982980181E+02 -0.12636666328E+03  0.23543470275E+03  0.17300000000E+03 0.  1.
</event>
<event>
 4    1  0.5959403E+000  0.1000000E+03  0.7546771E-02  0.1280296E+00
         21   -1    0    0  503  502  0.00000000000E+00  0.00000000000E+00  0.75971306900E+03  0.75971306900E+03  0.00000000000E+00 0.  1.
         21   -1    0    0  501  503 -0.00000000000E+00 -0.00000000000E+00 -0.62667593159E+02  0.62667593159E+02  0.00000000000E+00 0.  1.
          6    1    1    2  501    0  0.62336915263E+02 -0.11616184125E+03  0.31583191622E+03  0.38348176446E+03  0.17300000000E+03 0.  1.
         -6    1    1    2    0  502 -0.62336915263E+02  0.11616184125E+03  0.38121355962E+03  0.43889889770E+03  0.17300000000E+03 0.  1.
</event>
<event>
 4    1  0.5959403E+000  0.1000000E+03  0.7546771E-02  0.1280296E+00
         21   -1    0    0  503  502  0.00000000000E+00  0.00000000000E+00  0.80412212145E+03  0.80412212145E+03  0.00000000000E+00 0.  1.
         21   -1    0    0  501  503 -0.00000000000E+00 -0.00000000000E+00 -0.51695141522E+03  0.51695141522E+03  0.00000000000E+00 0.  1.
          6    1    1    2  501    0  0.14312034158E+03 -0.44488162893E+03 -0.27553323884E+03  0.56943012007E+03  0.17300000000E+03 0.  1.
         -6    1    1    2    0  502 -0.14312034158E+03  0.44488162893E+03  0.56270394507E+03  0.75164341660E+03  0.17300000000E+03 0.  1.
</event>
<event>
 4    1  0.5959403E+000  0.1000000E+03  0.7546771E-02  0.1280296E+00
         21   -1    0    0  503  502  0.00000000000E+00  0.00000000000E+00  0.13839406093E+03  0.13839406093E+03  0.00000000000E+00 0.  1.
         21   -1    0    0  501  503 -0.00000000000E+00 -0.00000000000E+00 -0.33703623081E+03  0.33703623081E+03  0.00000000000E+00 0. -1.
          6    1    1    2  501    0  0.58300780380E+02 -0.60909654505E+02 -0.20719778039E+03  0.28278770695E+03  0.17300000000E+03 0.  1.
         -6    1    1    2    0  502 -0.58300780380E+02  0.60909654505E+02  0.85556105078E+01  0.19264258479E+03  0.17300000000E+03 0.  1.
</event>
<event>
 4    1  0.5959403E+000  0.1000000E+03  0.7546771E-02  0.1280296E+00
         21   -1    0    0  501  502  0.00000000000E+00  0.00000000000E+00  0.35727549949E+03  0.35727549949E+03  0.00000000000E+00 0. -1.
         21   -1    0    0  502  503 -0.00000000000E+00 -0.00000000000E+00 -0.36793576531E+03  0.36793576531E+03  0.00000000000E+00 0. -1.
          6    1    1    2  501    0  0.76119677552E+02 -0.30303330740E+01  0.30409309477E+03  0.35805725592E+03  0.17300000000E+03 0. -1.
         -6    1    1    2    0  503 -0.76119677552E+02  0.30303330740E+01 -0.31475336060E+03  0.36715400888E+03  0.17300000000E+03 0. -1.
</event>
<event>
 4    1  0.5959403E+000  0.1000000E+03  0.7546771E-02  0.1280296E+00
         21   -1    0    0  501  502  0.00000000000E+00  0.00000000000E+00  0.10210247525E+04  0.10210247525E+04  0.00000000000E+00 0. -1.
         21   -1    0    0  502  503 -0.00000000000E+00 -0.00000000000E+00 -0.34192670304E+02  0.34192670304E+02  0.00000000000E+00 0. -1.
          6    1    1    2  501    0  0.57654396053E+02  0.25373964220E+02  0.58336479172E+03  0.61172816484E+03  0.17300000000E+03 0. -1.
         -6    1    1    2    0  503 -0.57654396053E+02 -0.25373964220E+02  0.40346729050E+03  0.44348925799E+03  0.17300000000E+03 0. -1.
</event>
<event>
 4    1  0.5959403E+000  0.1000000E+03  0.7546771E-02  0.1280296E+00
         21   -1    0    0  503  502  0.00000000000E+00  0.00000000000E+00  0.59621152198E+03  0.59621152198E+03  0.00000000000E+00 0. -1.
         21   -1    0    0  501  503 -0.00000000000E+00 -0.00000000000E+00 -0.58301388700E+02  0.58301388700E+02  0.00000000000E+00 0. -1.
          6    1    1    2  501    0  0.39981343020E+02  0.47758318993E+02  0.21480803723E+03  0.28275582696E+03  0.17300000000E+03 0. -1.
         -6    1    1    2    0  502 -0.39981343020E+02 -0.47758318993E+02  0.32310209605E+03  0.37175708372E+03  0.17300000000E+03 0. -1.
</event>
<event>
 4    1  0.5959403E+000  0.1000000E+03  0.7546771E-02  0.1280296E+00
         21   -1    0    0  503  502  0.00000000000E+00  0.00000000000E+00  0.34715705480E+03  0.34715705480E+03  0.00000000000E+00 0.  1.
         21   -1    0    0  501  503 -0.00000000000E+00 -0.00000000000E+00 -0.37149980381E+03  0.37149980381E+03  0.00000000000E+00 0.  1.
          6    1    1    2  501    0  0.13181640191E+02  0.50469711736E+02 -0.32270232095E+03  0.36984690804E+03  0.17300000000E+03 0.  1.
         -6    1    1    2    0  502 -0.13181640191E+02 -0.50469711736E+02  0.29835957195E+03  0.34880995057E+03  0.17300000000E+03 0.  1.
</event>
<event>
 4    1  0.5959403E+000  0.1000000E+03  0.7546771E-02  0.1280296E+00
         21   -1    0    0  503  502  0.00000000000E+00  0.00000000000E+00  0.90061123885E+02  0.90061123885E+02  0.00000000000E+00 0.  1.
         21   -1    0    0  501  503 -0.00000000000E+00 -0.00000000000E+00 -0.55022906144E+03  0.55022906144E+03  0.00000000000E+00 0.  1.
          6    1    1    2  501    0 -0.62551570064E+02 -0.97846980250E+02 -0.34276171310E+03  0.40112507080E+03  0.17300000000E+03 0.  1.
         -6    1    1    2    0  502  0.62551570064E+02  0.97846980250E+02 -0.11740622445E+03  0.23916511452E+03  0.17300000000E+03 0.  1.
</event>
<event>
 4    1  0.5959403E+000  0.1000000E+03  0.7546771E-02  0.1280296E+00
         21   -1    0    0  503  502  0.00000000000E+00  0.00000000000E+00  0.45030872937E+03  0.45030872937E+03  0.00000000000E+00 0.  1.
         21   -1    0    0  501  503 -0.00000000000E+00 -0.00000000000E+00 -0.11949324924E+03  0.11949324924E+03  0.00000000000E+00 0.  1.
          6    1    1    2  501    0 -0.79272651876E+02 -0.10220817324E+03  0.61560374195E+02  0.22460931344E+03  0.17300000000E+03 0.  1.
         -6    1    1    2    0  502  0.79272651876E+02  0.10220817324E+03  0.26925510594E+03  0.34519266517E+03  0.17300000000E+03 0.  1.
</event>
<event>
 4    1  0.5959403E+000  0.1000000E+03  0.7546771E-02  0.1280296E+00
         21   -1    0    0  503  502  0.00000000000E+00  0.00000000000E+00  0.53578173291E+03  0.53578173291E+03  0.00000000000E+00 0.  1.
         21   -1    0    0  501  503 -0.00000000000E+00 -0.00000000000E+00 -0.34663999600E+03  0.34663999600E+03  0.00000000000E+00 0.  1.
          6    1    1    2  501    0 -0.81761585537E+02 -0.51970997583E+02 -0.29716736664E+03  0.35724415356E+03  0.17300000000E+03 0.  1.
         -6    1    1    2    0  502  0.81761585537E+02  0.51970997583E+02  0.48630910354E+03  0.52517757535E+03  0.17300000000E+03 0.  1.
</event>
<event>
 4    1  0.5959403E+000  0.1000000E+03  0.7546771E-02  0.1280296E+00
         21   -1    0    0  503  502  0.00000000000E+00  0.00000000000E+00  0.36069730599E+03  0.36069730599E+03  0.00000000000E+00 0.  1.
         21   -1    0    0  501  503 -0.00000000000E+00 -0.00000000000E+00 -0.24752041188E+03  0.24752041188E+03  0.00000000000E+00 0.  1.
          6    1    1    2  501    0 -0.13624595228E+03 -0.15826659372E+03 -0.71099512031E+02  0.28034873784E+03  0.17300000000E+03 0.  1.
         -6    1    1    2    0  502  0.13624595228E+03  0.15826659372E+03  0.18427640614E+03  0.32786898002E+03  0.17300000000E+03 0.  1.
</event>
<event>
 4    1  0.5959403E+000  0.1000000E+03  0.7546771E-02  0.1280296E+00
         21   -1    0    0  503  502  0.00000000000E+00  0.00000000000E+00  0.12877109447E+04  0.12877109447E+04  0.00000000000E+00 0. -1.
         21   -1    0    0  501  503 -0.00000000000E+00 -0.00000000000E+00 -0.49037672436E+02  0.49037672436E+02  0.00000000000E+00 0.  1.
          6    1    1    2  501    0 -0.12234377021E+03 -0.11386768623E+03  0.42600342586E+03  0.48922568097E+03  0.17300000000E+03 0.  1.
         -6    1    1    2    0  502  0.12234377021E+03  0.11386768623E+03  0.81266984645E+03  0.84752293621E+03  0.17300000000E+03 0.  1.
</event>
<event>
 4    1  0.5959403E+000  0.1000000E+03  0.7546771E-02  0.1280296E+00
         21   -1    0    0  503  502  0.00000000000E+00  0.00000000000E+00  0.20305571659E+03  0.20305571659E+03  0.00000000000E+00 0. -1.
         21   -1    0    0  501  503 -0.00000000000E+00 -0.00000000000E+00 -0.30153480802E+03  0.30153480802E+03  0.00000000000E+00 0.  1.
          6    1    1    2  501    0  0.14043746735E+03  0.44630377908E+02 -0.14906116152E+03  0.27177708281E+03  0.17300000000E+03 0.  1.
         -6    1    1    2    0  502 -0.14043746735E+03 -0.44630377908E+02  0.50582070091E+02  0.23281344180E+03  0.17300000000E+03 0.  1.
</event>
<event>
 4    1  0.5959403E+000  0.1000000E+03  0.7546771E-02  0.1280296E+00
         21   -1    0    0  501  502  0.00000000000E+00  0.00000000000E+00  0.22938394228E+03  0.22938394228E+03  0.00000000000E+00 0.  1.
         21   -1    0    0  502  503 -0.00000000000E+00 -0.00000000000E+00 -0.15635827214E+03  0.15635827214E+03  0.00000000000E+00 0.  1.
          6    1    1    2  501    0  0.64117301026E+02 -0.17912424384E+02 -0.29984743411E+01  0.18539113810E+03  0.17300000000E+03 0.  1.
         -6    1    1    2    0  503 -0.64117301026E+02  0.17912424384E+02  0.76024144478E+02  0.20035107632E+03  0.17300000000E+03 0.  1.
</event>
<event>
 4    1  0.5959403E+000  0.1000000E+03  0.7546771E-02  0.1280296E+00
         21   -1    0    0  501  502  0.00000000000E+00  0.00000000000E+00  0.94419830241E+03  0.94419830241E+03  0.00000000000E+00 0.  1.
         21   -1    0    0  502  503 -0.00000000000E+00 -0.00000000000E+00 -0.23272886275E+03  0.23272886275E+03  0.00000000000E+00 0.  1.
          6    1    1    2  501    0 -0.55789389703E+02 -0.27703922018E+02  0.89703888834E+03  0.91568975668E+03  0.17300000000E+03 0.  1.
         -6    1    1    2    0  503  0.55789389703E+02  0.27703922018E+02 -0.18556944869E+03  0.26123740847E+03  0.17300000000E+03 0.  1.
</event>
<event>
 4    1  0.5959403E+000  0.1000000E+03  0.7546771E-02  0.1280296E+00
         21   -1    0    0  501  502  0.00000000000E+00  0.00000000000E+00  0.24763954193E+03  0.24763954193E+03  0.00000000000E+00 0.  1.
         21   -1    0    0  502  503 -0.00000000000E+00 -0.00000000000E+00 -0.62837462369E+03  0.62837462369E+03  0.00000000000E+00 0.  1.
          6    1    1    2  501    0  0.14981205165E+03 -0.13254910913E+03  0.13462423141E+03  0.29675848907E+03  0.17300000000E+03 0.  1.
         -6    1    1    2    0  503 -0.14981205165E+03  0.13254910913E+03 -0.51535931316E+03  0.57925567655E+03  0.17300000000E+03 0.  1.
</event>
<event>
 4    1  0.5959403E+000  0.1000000E+03  0.7546771E-02  0.1280296E+00
         21   -1    0    0  501  502  0.00000000000E+00  0.00000000000E+00  0.85497760244E+03  0.85497760244E+03  0.00000000000E+00 0. -1.
         21   -1    0    0  502  503 -0.00000000000E+00 -0.00000000000E+00 -0.17983856858E+03  0.17983856858E+03  0.00000000000E+00 0.  1.
          6    1    1    2  501    0  0.69691218657E+02  0.15313142932E+03  0.74538907897E+03  0.78347940602E+03  0.17300000000E+03 0. -1.
         -6    1    1    2    0  503 -0.69691218657E+02 -0.15313142932E+03 -0.70250045105E+02  0.25133676500E+03  0.17300000000E+03 0.  1.
</event>
<event>
 4    1  0.5959403E+000  0.1000000E+03  0.7546771E-02  0.1280296E+00
         21   -1    0    0  501  502  0.00000000000E+00  0.00000000000E+00  0.14957486796E+03  0.14957486796E+03  0.00000000000E+00 0. -1.
         21   -1    0    0  502  503 -0.00000000000E+00 -0.00000000000E+00 -0.37991109648E+03  0.37991109648E+03  0.00000000000E+00 0.  1.
          6    1    1    2  501    0  0.37436364760E+02  0.13374912585E+03 -0.18311830105E+02  0.22260869973E+03  0.17300000000E+03 0. -1.
         -6    1    1    2    0  503 -0.37436364760E+02 -0.13374912585E+03 -0.21202439842E+03  0.30687726471E+03  0.17300000000E+03 0.  1.
</event>
<event>
 4    1  0.5959403E+000  0.1000000E+03  0.7546771E-02  0.1280296E+00
         21   -1    0    0  501  502  0.00000000000E+00  0.00000000000E+00  0.11781395381E+04  0.11781395381E+04  0.00000000000E+00 0. -1.
         21   -1    0    0  502  503 -0.00000000000E+00 -0.00000000000E+00 -0.21041952216E+03  0.21041952216E+03  0.00000000000E+00 0.  1.
          6    1    1    2  501    0 -0.29480038179E+02 -0.29021028807E+03  0.99216979087E+03  0.10485327739E+04  0.17300000000E+03 0. -1.
         -6    1    1    2    0  503  0.29480038179E+02  0.29021028807E+03 -0.24449774923E+02  0.34002628641E+03  0.17300000000E+03 0.  1.
</event>
<event>
 4    1  0.5959403E+000  0.1000000E+03  0.7546771E-02  0.1280296E+00
         21   -1    0    0  503  502  0.00000000000E+00  0.00000000000E+00  0.25661425127E+03  0.25661425127E+03  0.00000000000E+00 0.  1.
         21   -1    0    0  501  503 -0.00000000000E+00 -0.00000000000E+00 -0.35951319336E+03  0.35951319336E+03  0.00000000000E+00 0.  1.
          6    1    1    2  501    0 -0.11810677726E+03 -0.45233778695E+02 -0.26976409464E+03  0.34452426957E+03  0.17300000000E+03 0.  1.
         -6    1    1    2    0  502  0.11810677726E+03  0.45233778695E+02  0.16686515255E+03  0.27160317506E+03  0.17300000000E+03 0.  1.
</event>
<event>
 4    1  0.5959403E+000  0.1000000E+03  0.7546771E-02  0.1280296E+00
         21   -1    0    0  503  502  0.00000000000E+00  0.00000000000E+00  0.36239174817E+03  0.36239174817E+03  0.00000000000E+00 0.  1.
         21   -1    0    0  501  503 -0.00000000000E+00 -0.00000000000E+00 -0.12750424260E+03  0.12750424260E+03  0.00000000000E+00 0. -1.
          6    1    1    2  501    0 -0.34627018644E+02 -0.11621913842E+03  0.72269721624E+02  0.22328867239E+03  0.17300000000E+03 0. -1.
         -6    1    1    2    0  502  0.34627018644E+02  0.11621913842E+03  0.16261778394E+03  0.26660731837E+03  0.17300000000E+03 0.  1.
</event>
<event>
 4    1  0.5959403E+000  0.1000000E+03  0.7546771E-02  0.1280296E+00
         21   -1    0    0  503  502  0.00000000000E+00  0.00000000000E+00  0.99690082730E+02  0.99690082730E+02  0.00000000000E+00 0.  1.
         21   -1    0    0  501  503 -0.00000000000E+00 -0.00000000000E+00 -0.59771534729E+03  0.59771534729E+03  0.00000000000E+00 0. -1.
          6    1    1    2  501    0  0.11936977894E+03  0.10210589072E+03 -0.34984671280E+03  0.42070949538E+03  0.17300000000E+03 0. -1.
         -6    1    1    2    0  502 -0.11936977894E+03 -0.10210589072E+03 -0.14817855176E+03  0.27669593464E+03  0.17300000000E+03 0.  1.
</event>
<event>
 4    1  0.5959403E+000  0.1000000E+03  0.7546771E-02  0.1280296E+00
         21   -1    0    0  503  502  0.00000000000E+00  0.00000000000E+00  0.37733082212E+02  0.37733082212E+02  0.00000000000E+00 0. -1.
         21   -1    0    0  501  503 -0.00000000000E+00 -0.00000000000E+00 -0.13828040475E+04  0.13828040475E+04  0.00000000000E+00 0.  1.
          6    1    1    2  501    0  0.24734558179E+02  0.62326902354E+02 -0.10868260001E+04  0.11025498609E+04  0.17300000000E+03 0.  1.
         -6    1    1    2    0  502 -0.24734558179E+02 -0.62326902354E+02 -0.25824496519E+03  0.31798726888E+03  0.17300000000E+03 0. -1.
</event>
<event>
 4    1  0.5959403E+000  0.1000000E+03  0.7546771E-02  0.1280296E+00
         21   -1    0    0  503  502  0.00000000000E+00  0.00000000000E+00  0.44147797877E+02  0.44147797877E+02  0.00000000000E+00 0. -1.
         21   -1    0    0  501  503 -0.00000000000E+00 -0.00000000000E+00 -0.11578568277E+04  0.11578568277E+04  0.00000000000E+00 0. -1.
          6    1    1    2  501    0  0.14502683495E+02  0.12552412852E+03 -0.74893317932E+03  0.77897146402E+03  0.17300000000E+03 0. -1.
         -6    1    1    2    0  502 -0.14502683495E+02 -0.12552412852E+03 -0.36477585051E+03  0.42303316157E+03  0.17300000000E+03 0. -1.
</event>
<event>
 4    1  0.5959403E+000  0.1000000E+03  0.7546771E-02  0.1280296E+00
         21   -1    0    0  501  502  0.00000000000E+00  0.00000000000E+00  0.14019179569E+03  0.14019179569E+03  0.00000000000E+00 0. -1.
         21   -1    0    0  502  503 -0.00000000000E+00 -0.00000000000E+00 -0.25227596291E+03  0.25227596291E+03  0.00000000000E+00 0. -1.
          6    1    1    2  501    0  0.15612282927E+02 -0.34335844486E+02  0.10078274155E+02  0.17735068425E+03  0.17300000000E+03 0. -1.
         -6    1    1    2    0  503 -0.15612282927E+02  0.34335844486E+02 -0.12216244138E+03  0.21511707435E+03  0.17300000000E+03 0. -1.
</event>
<event>
 4    1  0.5959403E+000  0.1000000E+03  0.7546771E-02  0.1280296E+00
         21   -1    0    0  503  502  0.00000000000E+00  0.00000000000E+00  0.11982989423E+04  0.11982989423E+04  0.00000000000E+00 0. -1.
         21   -1    0    0  501  503 -0.00000000000E+00 -0.00000000000E+00 -0.90989602008E+02  0.90989602008E+02  0.00000000000E+00 0. -1.
          6    1    1    2  501    0 -0.48018608035E+02  0.33774578148E+02  0.16663814560E+02  0.18344806230E+03  0.17300000000E+03 0. -1.
         -6    1    1    2    0  502  0.48018608035E+02 -0.33774578148E+02  0.10906455258E+04  0.11058404820E+04  0.17300000000E+03 0. -1.
</event>
<event>
 4    1  0.5959403E+000  0.1000000E+03  0.7546771E-02  0.1280296E+00
         21   -1    0    0  503  502  0.00000000000E+00  0.00000000000E+00  0.47492311045E+03  0.47492311045E+03  0.00000000000E+00 0. -1.
         21   -1    0    0  501  503 -0.00000000000E+00 -0.00000000000E+00 -0.88356916400E+02  0.88356916400E+02  0.00000000000E+00 0. -1.
          6    1    1    2  501    0  0.14986328968E+02  0.13308662707E+01  0.43887016050E+02  0.17911290137E+03  0.17300000000E+03 0. -1.
         -6    1    1    2    0  502 -0.14986328968E+02 -0.13308662707E+01  0.34267917800E+03  0.38416712547E+03  0.17300000000E+03 0. -1.
</event>
<event>
 4    1  0.5959403E+000  0.1000000E+03  0.7546771E-02  0.1280296E+00
         21   -1    0    0  503  502  0.00000000000E+00  0.00000000000E+00  0.82265392419E+03  0.82265392419E+03  0.00000000000E+00 0. -1.
         21   -1    0    0  501  503 -0.00000000000E+00 -0.00000000000E+00 -0.15236112047E+03  0.15236112047E+03  0.00000000000E+00 0. -1.
          6    1    1    2  501    0  0.18305396680E+02  0.27377289593E+03  0.13980184797E+03  0.35321415995E+03  0.17300000000E+03 0. -1.
         -6    1    1    2    0  502 -0.18305396680E+02 -0.27377289593E+03  0.53049095576E+03  0.62180088471E+03  0.17300000000E+03 0. -1.
</event>
<event>
 4    1  0.5959403E+000  0.1000000E+03  0.7546771E-02  0.1280296E+00
         21   -1    0    0  503  502  0.00000000000E+00  0.00000000000E+00  0.78714036120E+03  0.78714036120E+03  0.00000000000E+00 0. -1.
         21   -1    0    0  501  503 -0.00000000000E+00 -0.00000000000E+00 -0.19446614474E+03  0.19446614474E+03  0.00000000000E+00 0. -1.
          6    1    1    2  501    0  0.32270323752E+01  0.19759454507E+03 -0.67434900215E+02  0.27116504890E+03  0.17300000000E+03 0. -1.
         -6    1    1    2    0  502 -0.32270323752E+01 -0.19759454507E+03  0.66010911667E+03  0.71044145705E+03  0.17300000000E+03 0. -1.
</event>
<event>
 4    1  0.5959403E+000  0.1000000E+03  0.7546771E-02  0.1280296E+00
         21   -1    0    0  503  502  0.00000000000E+00  0.00000000000E+00  0.81107120544E+02  0.81107120544E+02  0.00000000000E+00 0.  1.
         21   -1    0    0  501  503 -0.00000000000E+00 -0.00000000000E+00 -0.13806479082E+04  0.13806479082E+04  0.00000000000E+00 0. -1.
          6    1    1    2  501    0 -0.13683798602E+03 -0.65225727740E+02 -0.11806129726E+04  0.12028112990E+04  0.17300000000E+03 0. -1.
         -6    1    1    2    0  502  0.13683798602E+03  0.65225727740E+02 -0.11892781508E+03  0.25894372975E+03  0.17300000000E+03 0.  1.
</event>
<event>
 4    1  0.5959403E+000  0.1000000E+03  0.7546771E-02  0.1280296E+00
         21   -1    0    0  501  502  0.00000000000E+00  0.00000000000E+00  0.41706256082E+03  0.41706256082E+03  0.00000000000E+00 0.  1.
         21   -1    0    0  502  503 -0.00000000000E+00 -0.00000000000E+00 -0.24413867585E+03  0.24413867585E+03  0.00000000000E+00 0.  1.
          6    1    1    2  501    0 -0.13923114036E+03 -0.24582381004E+02  0.32249829467E+03  0.39233117894E+03  0.17300000000E+03 0.  1.
         -6    1    1    2    0  503  0.13923114036E+03  0.24582381004E+02 -0.14957440971E+03  0.26887005773E+03  0.17300000000E+03 0.  1.
</event>
<event>
 4    1  0.5959403E+000  0.1000000E+03  0.7546771E-02  0.1280296E+00
         21   -1    0    0  501  502  0.00000000000E+00  0.00000000000E+00  0.14105399387E+03  0.14105399387E+03  0.00000000000E+00 0.  1.
         21   -1    0    0  502  503 -0.00000000000E+00 -0.00000000000E+00 -0.21671699777E+03  0.21671699777E+03  0.00000000000E+00 0.  1.
          6    1    1    2  501    0  0.21097024438E+02 -0.84212027762E+01 -0.49215399281E+02  0.18129301317E+03  0.17300000000E+03 0.  1.
         -6    1    1    2    0  503 -0.21097024438E+02  0.84212027762E+01 -0.26447604615E+02  0.17647797847E+03  0.17300000000E+03 0.  1.
</event>
<event>
 4    1  0.5959403E+000  0.1000000E+03  0.7546771E-02  0.1280296E+00
         21   -1    0    0  501  502  0.00000000000E+00  0.00000000000E+00  0.28105843161E+03  0.28105843161E+03  0.00000000000E+00 0.  1.
         21   -1    0    0  502  503 -0.00000000000E+00 -0.00000000000E+00 -0.12591318184E+03  0.12591318184E+03  0.00000000000E+00 0.  1.
          6    1    1    2  501    0  0.31589249932E+02 -0.60175872217E+02  0.10894042312E+03  0.21544380264E+03  0.17300000000E+03 0.  1.
         -6    1    1    2    0  503 -0.31589249932E+02  0.60175872217E+02  0.46204826658E+02  0.19152781081E+03  0.17300000000E+03 0.  1.
</event>
<event>
 4    1  0.5959403E+000  0.1000000E+03  0.7546771E-02  0.1280296E+00
         21   -1    0    0  501  502  0.00000000000E+00  0.00000000000E+00  0.12277689963E+03  0.12277689963E+03  0.00000000000E+00 0.  1.
         21   -1    0    0  502  503 -0.00000000000E+00 -0.00000000000E+00 -0.32092661596E+03  0.32092661596E+03  0.00000000000E+00 0.  1.
          6    1    1    2  501    0  0.63898405246E+02  0.32073405684E+02 -0.25262709758E+02  0.18888862869E+03  0.17300000000E+03 0.  1.
         -6    1    1    2    0  503 -0.63898405246E+02 -0.32073405684E+02 -0.17288700657E+03  0.25481488690E+03  0.17300000000E+03 0.  1.
</event>
<event>
 4    1  0.5959403E+000  0.1000000E+03  0.7546771E-02  0.1280296E+00
         21   -1    0    0  501  502  0.00000000000E+00  0.00000000000E+00  0.12609185883E+03  0.12609185883E+03  0.00000000000E+00 0.  1.
         21   -1    0    0  502  503 -0.00000000000E+00 -0.00000000000E+00 -0.34596496972E+03  0.34596496972E+03  0.00000000000E+00 0.  1.
          6    1    1    2  501    0  0.14321486265E+02  0.90928620701E+02 -0.28279855441E+02  0.19799461926E+03  0.17300000000E+03 0.  1.
         -6    1    1    2    0  503 -0.14321486265E+02 -0.90928620701E+02 -0.19159325544E+03  0.27406220929E+03  0.17300000000E+03 0.  1.
</event>
<event>
 4    1  0.5959403E+000  0.1000000E+03  0.7546771E-02  0.1280296E+00
         21   -1    0    0  503  502  0.00000000000E+00  0.00000000000E+00  0.17553428506E+03  0.17553428506E+03  0.00000000000E+00 0.  1.
         21   -1    0    0  501  503 -0.00000000000E+00 -0.00000000000E+00 -0.39960596267E+03  0.39960596267E+03  0.00000000000E+00 0.  1.
          6    1    1    2  501    0 -0.16339156267E+03  0.95569722545E+02 -0.18393770133E+03  0.31558271910E+03  0.17300000000E+03 0.  1.
         -6    1    1    2    0  502  0.16339156267E+03 -0.95569722545E+02 -0.40133976278E+02  0.25955752864E+03  0.17300000000E+03 0.  1.
</event>
<event>
 4    1  0.5959403E+000  0.1000000E+03  0.7546771E-02  0.1280296E+00
         21   -1    0    0  503  502  0.00000000000E+00  0.00000000000E+00  0.40234631024E+02  0.40234631024E+02  0.00000000000E+00 0.  1.
         21   -1    0    0  501  503 -0.00000000000E+00 -0.00000000000E+00 -0.18045286466E+04  0.18045286466E+04  0.00000000000E+00 0.  1.
          6    1    1    2  501    0 -0.22383083500E+02 -0.56931099250E+02 -0.20670220039E+03  0.27639998577E+03  0.17300000000E+03 0.  1.
         -6    1    1    2    0  502  0.22383083500E+02  0.56931099250E+02 -0.15575918152E+04  0.15683632918E+04  0.17300000000E+03 0.  1.
</event>
<event>
 4    1  0.5959403E+000  0.1000000E+03  0.7546771E-02  0.1280296E+00
         21   -1    0    0  501  502  0.00000000000E+00  0.00000000000E+00  0.67867820370E+03  0.67867820370E+03  0.00000000000E+00 0. -1.
         21   -1    0    0  502  503 -0.00000000000E+00 -0.00000000000E+00 -0.14828707192E+03  0.14828707192E+03  0.00000000000E+00 0.  1.
          6    1    1    2  501    0 -0.19430228948E+03 -0.99434891469E+02  0.46316266566E+03  0.54045289545E+03  0.17300000000E+03 0. -1.
         -6    1    1    2    0  503  0.19430228948E+03  0.99434891469E+02  0.67228466116E+02  0.28651238017E+03  0.17300000000E+03 0.  1.
</event>
<event>
 4    1  0.5959403E+000  0.1000000E+03  0.7546771E-02  0.1280296E+00
         21   -1    0    0  501  502  0.00000000000E+00  0.00000000000E+00  0.10123169346E+03  0.10123169346E+03  0.00000000000E+00 0. -1.
         21   -1    0    0  502  503 -0.00000000000E+00 -0.00000000000E+00 -0.44478119045E+03  0.44478119045E+03  0.00000000000E+00 0. -1.
          6    1    1    2  501    0 -0.11595581356E+03  0.30831171288E+01 -0.11964472561E+03  0.24020640432E+03  0.17300000000E+03 0. -1.
         -6    1    1    2    0  503  0.11595581356E+03 -0.30831171288E+01 -0.22390477139E+03  0.30580647959E+03  0.17300000000E+03 0. -1.
</event>
<event>
 4    1  0.5959403E+000  0.1000000E+03  0.7546771E-02  0.1280296E+00
         21   -1    0    0  503  502  0.00000000000E+00  0.00000000000E+00  0.44205159107E+03  0.44205159107E+03  0.00000000000E+00 0.  1.
         21   -1    0    0  501  503 -0.00000000000E+00 -0.00000000000E+00 -0.31453891031E+03  0.31453891031E+03  0.00000000000E+00 0.  1.
          6    1    1    2  501    0  0.28352427237E+03 -0.11400886756E+03 -0.63480587052E+02  0.35685125730E+03  0.17300000000E+03 0.  1.
         -6    1    1    2    0  502 -0.28352427237E+03  0.11400886756E+03  0.19099326781E+03  0.39973924408E+03  0.17300000000E+03 0.  1.
</event>
<event>
 4    1  0.5959403E+000  0.1000000E+03  0.7546771E-02  0.1280296E+00
         21   -1    0    0  503  502  0.00000000000E+00  0.00000000000E+00  0.13325932403E+03  0.13325932403E+03  0.00000000000E+00 0.  1.
         21   -1    0    0  501  503 -0.00000000000E+00 -0.00000000000E+00 -0.35145471560E+03  0.35145471560E+03  0.00000000000E+00 0.  1.
          6    1    1    2  501    0 -0.46307456483E+02  0.19838105074E+02 -0.24333262576E+03  0.30278325201E+03  0.17300000000E+03 0.  1.
         -6    1    1    2    0  502  0.46307456483E+02 -0.19838105074E+02  0.25137234194E+02  0.18193078761E+03  0.17300000000E+03 0.  1.
</event>
<event>
 4    1  0.5959403E+000  0.1000000E+03  0.7546771E-02  0.1280296E+00
         21   -1    0    0  503  502  0.00000000000E+00  0.00000000000E+00  0.23336756057E+02  0.23336756057E+02  0.00000000000E+00 0.  1.
         21   -1    0    0  501  503 -0.00000000000E+00 -0.00000000000E+00 -0.19297304103E+04  0.19297304103E+04  0.00000000000E+00 0.  1.
          6    1    1    2  501    0 -0.72478186236E+02  0.41594625404E+02 -0.13678980731E+04  0.13813244871E+04  0.17300000000E+03 0.  1.
         -6    1    1    2    0  502  0.72478186236E+02 -0.41594625404E+02 -0.53849558114E+03  0.57174267923E+03  0.17300000000E+03 0.  1.
</event>
<event>
 4    1  0.5959403E+000  0.1000000E+03  0.7546771E-02  0.1280296E+00
         21   -1    0    0  503  502  0.00000000000E+00  0.00000000000E+00  0.71195552216E+03  0.71195552216E+03  0.00000000000E+00 0.  1.
         21   -1    0    0  501  503 -0.00000000000E+00 -0.00000000000E+00 -0.26639329301E+03  0.26639329301E+03  0.00000000000E+00 0.  1.
          6    1    1    2  501    0 -0.16468925221E+03 -0.89785433233E+01 -0.18613054563E+03  0.30294676768E+03  0.17300000000E+03 0.  1.
         -6    1    1    2    0  502  0.16468925221E+03  0.89785433233E+01  0.63169277478E+03  0.67540204748E+03  0.17300000000E+03 0.  1.
</event>
<event>
 4    1  0.5959403E+000  0.1000000E+03  0.7546771E-02  0.1280296E+00
         21   -1    0    0  503  502  0.00000000000E+00  0.00000000000E+00  0.79207970628E+03  0.79207970628E+03  0.00000000000E+00 0. -1.
         21   -1    0    0  501  503 -0.00000000000E+00 -0.00000000000E+00 -0.52986989792E+02  0.52986989792E+02  0.00000000000E+00 0. -1.
          6    1    1    2  501    0 -0.15438203407E+02  0.77986679692E+02  0.21354982272E+03  0.28609926095E+03  0.17300000000E+03 0. -1.
         -6    1    1    2    0  502  0.15438203407E+02 -0.77986679692E+02  0.52554289377E+03  0.55896743512E+03  0.17300000000E+03 0. -1.
</event>
<event>
 4    1  0.5959403E+000  0.1000000E+03  0.7546771E-02  0.1280296E+00
         21   -1    0    0  503  502  0.00000000000E+00  0.00000000000E+00  0.19233795651E+03  0.19233795651E+03  0.00000000000E+00 0. -1.
         21   -1    0    0  501  503 -0.00000000000E+00 -0.00000000000E+00 -0.42438568944E+03  0.42438568944E+03  0.00000000000E+00 0. -1.
          6    1    1    2  501    0  0.12397879860E+03 -0.10268055146E+01 -0.32173066041E+03  0.38576082575E+03  0.17300000000E+03 0. -1.
         -6    1    1    2    0  502 -0.12397879860E+03  0.10268055146E+01  0.89682927481E+02  0.23096282020E+03  0.17300000000E+03 0. -1.
</event>
<event>
 4    1  0.5959403E+000  0.1000000E+03  0.7546771E-02  0.1280296E+00
         21   -1    0    0  503  502  0.00000000000E+00  0.00000000000E+00  0.26018143865E+03  0.26018143865E+03  0.00000000000E+00 0. -1.
         21   -1    0    0  501  503 -0.00000000000E+00 -0.00000000000E+00 -0.23986339569E+03  0.23986339569E+03  0.00000000000E+00 0. -1.
          6    1    1    2  501    0  0.16503252947E+03  0.38667050024E+02 -0.51113527049E+02  0.24753276387E+03  0.17300000000E+03 0. -1.
         -6    1    1    2    0  502 -0.16503252947E+03 -0.38667050024E+02  0.71431570012E+02  0.25251207048E+03  0.17300000000E+03 0. -1.
</event>
<event>
 4    1  0.5959403E+000  0.1000000E+03  0.7546771E-02  0.1280296E+00
         21   -1    0    0  503  502  0.00000000000E+00  0.00000000000E+00  0.21022557800E+04  0.21022557800E+04  0.00000000000E+00 0. -1.
         21   -1    0    0  501  503 -0.00000000000E+00 -0.00000000000E+00 -0.92716361738E+02  0.92716361738E+02  0.00000000000E+00 0. -1.
          6    1    1    2  501    0 -0.23649866715E+03  0.50476608379E+02  0.19350413593E+03  0.35475675917E+03  0.17300000000E+03 0. -1.
         -6    1    1    2    0  502  0.23649866715E+03 -0.50476608379E+02  0.18160352824E+04  0.18402153826E+04  0.17300000000E+03 0. -1.
</event>
<event>
 4    1  0.5959403E+000  0.1000000E+03  0.7546771E-02  0.1280296E+00
         21   -1    0    0  501  502  0.00000000000E+00  0.00000000000E+00  0.50193705563E+03  0.50193705563E+03  0.00000000000E+00 0. -1.
         21   -1    0    0  502  503 -0.00000000000E+00 -0.00000000000E+00 -0.25394742885E+03  0.25394742885E+03  0.00000000000E+00 0. -1.
          6    1    1    2  501    0 -0.10445799038E+03 -0.80663234946E+02  0.42363189574E+03  0.47624679770E+03  0.17300000000E+03 0. -1.
         -6    1    1    2    0  503  0.10445799038E+03  0.80663234946E+02 -0.17564226896E+03  0.27963768679E+03  0.17300000000E+03 0. -1.
</event>
<event>
 4    1  0.5959403E+000  0.1000000E+03  0.7546771E-02  0.1280296E+00
         21   -1    0    0  503  502  0.00000000000E+00  0.00000000000E+00  0.43233154938E+03  0.43233154938E+03  0.00000000000E+00 0. -1.
         21   -1    0    0  501  503 -0.00000000000E+00 -0.00000000000E+00 -0.47592923952E+03  0.47592923952E+03  0.00000000000E+00 0. -1.
          6    1    1    2  501    0 -0.38885209917E+03 -0.14630537849E+03  0.35002922770E+02  0.45140383628E+03  0.17300000000E+03 0. -1.
         -6    1    1    2    0  502  0.38885209917E+03  0.14630537849E+03 -0.78600612902E+02  0.45685695262E+03  0.17300000000E+03 0. -1.
</event>
<event>
 4    1  0.5959403E+000  0.1000000E+03  0.7546771E-02  0.1280296E+00
         21   -1    0    0  501  502  0.00000000000E+00  0.00000000000E+00  0.12723829841E+04  0.12723829841E+04  0.00000000000E+00 0. -1.
         21   -1    0    0  502  503 -0.00000000000E+00 -0.00000000000E+00 -0.31653077488E+02  0.31653077488E+02  0.00000000000E+00 0. -1.
          6    1    1    2  501    0 -0.53049461430E+02  0.86754618189E+02  0.62779365357E+03  0.65908609498E+03  0.17300000000E+03 0. -1.
         -6    1    1    2    0  503  0.53049461430E+02 -0.86754618189E+02  0.61293625308E+03  0.64494996664E+03  0.17300000000E+03 0. -1.
</event>
<event>
 4    1  0.5959403E+000  0.1000000E+03  0.7546771E-02  0.1280296E+00
         21   -1    0    0  503  502  0.00000000000E+00  0.00000000000E+00  0.28690470981E+03  0.28690470981E+03  0.00000000000E+00 0.  1.
         21   -1    0    0  501  503 -0.00000000000E+00 -0.00000000000E+00 -0.20436845761E+03  0.20436845761E+03  0.00000000000E+00 0. -1.
          6    1    1    2  501    0  0.93289611058E+02 -0.15531797273E+02 -0.10133290530E+03  0.22167892537E+03  0.17300000000E+03 0. -1.
         -6    1    1    2    0  502 -0.93289611058E+02  0.15531797273E+02  0.18386915751E+03  0.26959424204E+03  0.17300000000E+03 0.  1.
</event>
<event>
 4    1  0.5959403E+000  0.1000000E+03  0.7546771E-02  0.1280296E+00
         21   -1    0    0  503  502  0.00000000000E+00  0.00000000000E+00  0.88744806288E+02  0.88744806288E+02  0.00000000000E+00 0.  1.
         21   -1    0    0  501  503 -0.00000000000E+00 -0.00000000000E+00 -0.37908415771E+03  0.37908415771E+03  0.00000000000E+00 0. -1.
          6    1    1    2  501    0 -0.12399561592E+02 -0.45580113505E+02 -0.19425616191E+03  0.26437804810E+03  0.17300000000E+03 0. -1.
         -6    1    1    2    0  502  0.12399561592E+02  0.45580113505E+02 -0.96083189510E+02  0.20345091590E+03  0.17300000000E+03 0.  1.
</event>
<event>
 4    1  0.5959403E+000  0.1000000E+03  0.7546771E-02  0.1280296E+00
         21   -1    0    0  503  502  0.00000000000E+00  0.00000000000E+00  0.16295426049E+03  0.16295426049E+03  0.00000000000E+00 0.  1.
         21   -1    0    0  501  503 -0.00000000000E+00 -0.00000000000E+00 -0.92072403124E+03  0.92072403124E+03  0.00000000000E+00 0. -1.
          6    1    1    2  501    0  0.41182295916E+02 -0.72929355245E+02 -0.84930855478E+03  0.87078625022E+03  0.17300000000E+03 0. -1.
         -6    1    1    2    0  502 -0.41182295916E+02  0.72929355245E+02  0.91538784027E+02  0.21289204150E+03  0.17300000000E+03 0.  1.
</event>
<event>
 4    1  0.5959403E+000  0.1000000E+03  0.7546771E-02  0.1280296E+00
         21   -1    0    0  501  502  0.00000000000E+00  0.00000000000E+00  0.14287183753E+03  0.14287183753E+03  0.00000000000E+00 0. -1.
         21   -1    0    0  502  503 -0.00000000000E+00 -0.00000000000E+00 -0.28169571181E+03  0.28169571181E+03  0.00000000000E+00 0. -1.
          6    1    1    2  501    0 -0.98190535601E+02 -0.22043044159E+02 -0.54822037597E+02  0.20751321135E+03  0.17300000000E+03 0. -1.
         -6    1    1    2    0  503  0.98190535601E+02  0.22043044159E+02 -0.84001836678E+02  0.21705433800E+03  0.17300000000E+03 0. -1.
</event>
<event>
 4    1  0.5959403E+000  0.1000000E+03  0.7546771E-02  0.1280296E+00
         21   -1    0    0  501  502  0.00000000000E+00  0.00000000000E+00  0.18968714910E+03  0.18968714910E+03  0.00000000000E+00 0. -1.
         21   -1    0    0  502  503 -0.00000000000E+00 -0.00000000000E+00 -0.46873128272E+03  0.46873128272E+03  0.00000000000E+00 0. -1.
          6    1    1    2  501    0  0.50886792564E+02 -0.10241526668E+02  0.12241841336E+03  0.21819629340E+03  0.17300000000E+03 0. -1.
         -6    1    1    2    0  503 -0.50886792564E+02  0.10241526668E+02 -0.40146254698E+03  0.44022213842E+03  0.17300000000E+03 0. -1.
</event>
<event>
 4    1  0.5959403E+000  0.1000000E+03  0.7546771E-02  0.1280296E+00
         21   -1    0    0  501  502  0.00000000000E+00  0.00000000000E+00  0.24655317832E+03  0.24655317832E+03  0.00000000000E+00 0. -1.
         21   -1    0    0  502  503 -0.00000000000E+00 -0.00000000000E+00 -0.24940435655E+03  0.24940435655E+03  0.00000000000E+00 0. -1.
          6    1    1    2  501    0 -0.37563588957E+02  0.19897737184E+02  0.17107506902E+03  0.24698708954E+03  0.17300000000E+03 0. -1.
         -6    1    1    2    0  503  0.37563588957E+02 -0.19897737184E+02 -0.17392624726E+03  0.24897044532E+03  0.17300000000E+03 0. -1.
</event>
<event>
 4    1  0.5959403E+000  0.1000000E+03  0.7546771E-02  0.1280296E+00
         21   -1    0    0  501  502  0.00000000000E+00  0.00000000000E+00  0.10692605808E+04  0.10692605808E+04  0.00000000000E+00 0. -1.
         21   -1    0    0  502  503 -0.00000000000E+00 -0.00000000000E+00 -0.58153666885E+02  0.58153666885E+02  0.00000000000E+00 0. -1.
          6    1    1    2  501    0  0.25636957721E+02  0.17413856974E+03  0.42496297334E+03  0.49143058897E+03  0.17300000000E+03 0. -1.
         -6    1    1    2    0  503 -0.25636957721E+02 -0.17413856974E+03  0.58614394061E+03  0.63598365875E+03  0.17300000000E+03 0. -1.
</event>
<event>
 4    1  0.5959403E+000  0.1000000E+03  0.7546771E-02  0.1280296E+00
         21   -1    0    0  501  502  0.00000000000E+00  0.00000000000E+00  0.66799297079E+02  0.66799297079E+02  0.00000000000E+00 0. -1.
         21   -1    0    0  502  503 -0.00000000000E+00 -0.00000000000E+00 -0.62853607043E+03  0.62853607043E+03  0.00000000000E+00 0. -1.
          6    1    1    2  501    0  0.90401496050E+02 -0.59601551997E+02 -0.24995281950E+03  0.32269209390E+03  0.17300000000E+03 0. -1.
         -6    1    1    2    0  503 -0.90401496050E+02  0.59601551997E+02 -0.31178395385E+03  0.37264327361E+03  0.17300000000E+03 0. -1.
</event>
<event>
 4    1  0.5959403E+000  0.1000000E+03  0.7546771E-02  0.1280296E+00
         21   -1    0    0  501  502  0.00000000000E+00  0.00000000000E+00  0.21038001969E+03  0.21038001969E+03  0.00000000000E+00 0. -1.
         21   -1    0    0  502  503 -0.00000000000E+00 -0.00000000000E+00 -0.36283847034E+03  0.36283847034E+03  0.00000000000E+00 0.  1.
          6    1    1    2  501    0 -0.21410127425E+03 -0.20425179977E+02 -0.88867239801E+02  0.28997056734E+03  0.17300000000E+03 0. -1.
         -6    1    1    2    0  503  0.21410127425E+03  0.20425179977E+02 -0.63591210856E+02  0.28324792269E+03  0.17300000000E+03 0.  1.
</event>
<event>
 4    1  0.5959403E+000  0.1000000E+03  0.7546771E-02  0.1280296E+00
         21   -1    0    0  501  502  0.00000000000E+00  0.00000000000E+00  0.20661272924E+04  0.20661272924E+04  0.00000000000E+00 0. -1.
         21   -1    0    0  502  503 -0.00000000000E+00 -0.00000000000E+00 -0.38363243255E+02  0.38363243255E+02  0.00000000000E+00 0.  1.
          6    1    1    2  501    0 -0.13236472429E+03 -0.78581712831E+02  0.16123348973E+04  0.16288794697E+04  0.17300000000E+03 0. -1.
         -6    1    1    2    0  503  0.13236472429E+03  0.78581712831E+02  0.41542915178E+03  0.47561106587E+03  0.17300000000E+03 0.  1.
</event>
<event>
 4    1  0.5959403E+000  0.1000000E+03  0.7546771E-02  0.1280296E+00
         21   -1    0    0  501  502  0.00000000000E+00  0.00000000000E+00  0.84676126650E+02  0.84676126650E+02  0.00000000000E+00 0. -1.
         21   -1    0    0  502  503 -0.00000000000E+00 -0.00000000000E+00 -0.66049695427E+03  0.66049695427E+03  0.00000000000E+00 0.  1.
          6    1    1    2  501    0  0.43640198940E+02  0.49351563744E+02 -0.56046443697E+02  0.19341728893E+03  0.17300000000E+03 0. -1.
         -6    1    1    2    0  503 -0.43640198940E+02 -0.49351563744E+02 -0.51977438393E+03  0.55175579199E+03  0.17300000000E+03 0.  1.
</event>
<event>
 4    1  0.5959403E+000  0.1000000E+03  0.7546771E-02  0.1280296E+00
         21   -1    0    0  501  502  0.00000000000E+00  0.00000000000E+00  0.84506047630E+03  0.84506047630E+03  0.00000000000E+00 0. -1.
         21   -1    0    0  502  503 -0.00000000000E+00 -0.00000000000E+00 -0.95041734707E+02  0.95041734707E+02  0.00000000000E+00 0.  1.
          6    1    1    2  501    0 -0.11868015871E+03 -0.24950267600E+02  0.68830439222E+03  0.71999960575E+03  0.17300000000E+03 0. -1.
         -6    1    1    2    0  503  0.11868015871E+03  0.24950267600E+02  0.61714349369E+02  0.22010260526E+03  0.17300000000E+03 0.  1.
</event>
<event>
 4    1  0.5959403E+000  0.1000000E+03  0.7546771E-02  0.1280296E+00
         21   -1    0    0  501  502  0.00000000000E+00  0.00000000000E+00  0.10421514770E+04  0.10421514770E+04  0.00000000000E+00 0. -1.
         21   -1    0    0  502  503 -0.00000000000E+00 -0.00000000000E+00 -0.51432973105E+02  0.51432973105E+02  0.00000000000E+00 0. -1.
          6    1    1    2  501    0 -0.61459008777E+02 -0.70972164946E+02  0.78323942271E+03  0.80759349381E+03  0.17300000000E+03 0. -1.
         -6    1    1    2    0  503  0.61459008777E+02  0.70972164946E+02  0.20747908121E+03  0.28599095632E+03  0.17300000000E+03 0. -1.
</event>
<event>
 4    1  0.5959403E+000  0.1000000E+03  0.7546771E-02  0.1280296E+00
         21   -1    0    0  501  502  0.00000000000E+00  0.00000000000E+00  0.20677035523E+03  0.20677035523E+03  0.00000000000E+00 0. -1.
         21   -1    0    0  502  503 -0.00000000000E+00 -0.00000000000E+00 -0.25285744855E+03  0.25285744855E+03  0.00000000000E+00 0. -1.
          6    1    1    2  501    0 -0.85799542457E+02 -0.12238650572E+03 -0.26858320933E+02  0.23019641108E+03  0.17300000000E+03 0. -1.
         -6    1    1    2    0  503  0.85799542457E+02  0.12238650572E+03 -0.19228772392E+02  0.22943139270E+03  0.17300000000E+03 0. -1.
</event>
<event>
 4    1  0.5959403E+000  0.1000000E+03  0.7546771E-02  0.1280296E+00
         21   -1    0    0  501  502  0.00000000000E+00  0.00000000000E+00  0.85977012275E+03  0.85977012275E+03  0.00000000000E+00 0. -1.
         21   -1    0    0  502  503 -0.00000000000E+00 -0.00000000000E+00 -0.52067942725E+02  0.52067942725E+02  0.00000000000E+00 0. -1.
          6    1    1    2  501    0  0.37903536982E+02 -0.11109135532E+03  0.33371191983E+03  0.39379006181E+03  0.17300000000E+03 0. -1.
         -6    1    1    2    0  503 -0.37903536982E+02  0.11109135532E+03  0.47399026019E+03  0.51804800366E+03  0.17300000000E+03 0. -1.
</event>
<event>
 4    1  0.5959403E+000  0.1000000E+03  0.7546771E-02  0.1280296E+00
         21   -1    0    0  501  502  0.00000000000E+00  0.00000000000E+00  0.60403473372E+03  0.60403473372E+03  0.00000000000E+00 0. -1.
         21   -1    0    0  502  503 -0.00000000000E+00 -0.00000000000E+00 -0.60919281091E+02  0.60919281091E+02  0.00000000000E+00 0. -1.
          6    1    1    2  501    0 -0.18618078701E+02  0.15684042481E+02  0.13425292109E+03  0.22033036301E+03  0.17300000000E+03 0. -1.
         -6    1    1    2    0  503  0.18618078701E+02 -0.15684042481E+02  0.40886253155E+03  0.44462365181E+03  0.17300000000E+03 0. -1.
</event>
<event>
 4    1  0.5959403E+000  0.1000000E+03  0.7546771E-02  0.1280296E+00
         21   -1    0    0  501  502  0.00000000000E+00  0.00000000000E+00  0.83147161145E+03  0.83147161145E+03  0.00000000000E+00 0.  1.
         21   -1    0    0  502  503 -0.00000000000E+00 -0.00000000000E+00 -0.11661356472E+03  0.11661356472E+03  0.00000000000E+00 0.  1.
          6    1    1    2  501    0  0.70607259427E+02  0.12519911969E+03  0.68525657615E+03  0.72122519355E+03  0.17300000000E+03 0.  1.
         -6    1    1    2    0  503 -0.70607259427E+02 -0.12519911969E+03  0.29601470581E+02  0.22685998262E+03  0.17300000000E+03 0.  1.
</event>
<event>
 4    1  0.5959403E+000  0.1000000E+03  0.7546771E-02  0.1280296E+00
         21   -1    0    0  503  502  0.00000000000E+00  0.00000000000E+00  0.34624528342E+03  0.34624528342E+03  0.00000000000E+00 0.  1.
         21   -1    0    0  501  503 -0.00000000000E+00 -0.00000000000E+00 -0.17769654515E+03  0.17769654515E+03  0.00000000000E+00 0. -1.
          6    1    1    2  501    0  0.16188223534E+03  0.39693349964E+02  0.19031126887E+02  0.24098258016E+03  0.17300000000E+03 0. -1.
         -6    1    1    2    0  502 -0.16188223534E+03 -0.39693349964E+02  0.14951761138E+03  0.28295924841E+03  0.17300000000E+03 0.  1.
</event>
<event>
 4    1  0.5959403E+000  0.1000000E+03  0.7546771E-02  0.1280296E+00
         21   -1    0    0  503  502  0.00000000000E+00  0.00000000000E+00  0.56589175316E+02  0.56589175316E+02  0.00000000000E+00 0. -1.
         21   -1    0    0  501  503 -0.00000000000E+00 -0.00000000000E+00 -0.11153318298E+04  0.11153318298E+04  0.00000000000E+00 0. -1.
          6    1    1    2  501    0  0.40581440804E+02 -0.16708772547E+03 -0.66973240097E+03  0.71276619606E+03  0.17300000000E+03 0. -1.
         -6    1    1    2    0  502 -0.40581440804E+02  0.16708772547E+03 -0.38901025355E+03  0.45915480909E+03  0.17300000000E+03 0. -1.
</event>
<event>
 4    1  0.5959403E+000  0.1000000E+03  0.7546771E-02  0.1280296E+00
         21   -1    0    0  503  502  0.00000000000E+00  0.00000000000E+00  0.66853004512E+02  0.66853004512E+02  0.00000000000E+00 0. -1.
         21   -1    0    0  501  503 -0.00000000000E+00 -0.00000000000E+00 -0.19679890538E+04  0.19679890538E+04  0.00000000000E+00 0. -1.
          6    1    1    2  501    0 -0.82411630973E+02 -0.20236273815E+03 -0.16017489017E+04  0.16258139188E+04  0.17300000000E+03 0. -1.
         -6    1    1    2    0  502  0.82411630973E+02  0.20236273815E+03 -0.29938714760E+03  0.40902813945E+03  0.17300000000E+03 0. -1.
</event>
<event>
 4    1  0.5959403E+000  0.1000000E+03  0.7546771E-02  0.1280296E+00
         21   -1    0    0  503  502  0.00000000000E+00  0.00000000000E+00  0.77555678751E+03  0.77555678751E+03  0.00000000000E+00 0. -1.
         21   -1    0    0  501  503 -0.00000000000E+00 -0.00000000000E+00 -0.10609893914E+03  0.10609893914E+03  0.00000000000E+00 0. -1.
          6    1    1    2  501    0 -0.13925035422E+03 -0.13402237710E+02  0.56466827386E+02  0.22953819665E+03  0.17300000000E+03 0. -1.
         -6    1    1    2    0  502  0.13925035422E+03  0.13402237710E+02  0.61299102099E+03  0.65211753000E+03  0.17300000000E+03 0. -1.
</event>
<event>
 4    1  0.5959403E+000  0.1000000E+03  0.7546771E-02  0.1280296E+00
         21   -1    0    0  503  502  0.00000000000E+00  0.00000000000E+00  0.14449871693E+04  0.14449871693E+04  0.00000000000E+00 0. -1.
         21   -1    0    0  501  503 -0.00000000000E+00 -0.00000000000E+00 -0.35743243378E+02  0.35743243378E+02  0.00000000000E+00 0.  1.
          6    1    1    2  501    0  0.14590652413E+02 -0.14658549288E+03  0.71894648884E+03  0.75399817485E+03  0.17300000000E+03 0. -1.
         -6    1    1    2    0  502 -0.14590652413E+02  0.14658549288E+03  0.69029743710E+03  0.72673223785E+03  0.17300000000E+03 0.  1.
</event>
<event>
 4    1  0.5959403E+000  0.1000000E+03  0.7546771E-02  0.1280296E+00
         21   -1    0    0  503  502  0.00000000000E+00  0.00000000000E+00  0.43976788729E+03  0.43976788729E+03  0.00000000000E+00 0. -1.
         21   -1    0    0  501  503 -0.00000000000E+00 -0.00000000000E+00 -0.19278465042E+03  0.19278465042E+03  0.00000000000E+00 0.  1.
          6    1    1    2  501    0 -0.23820962794E+02  0.22518957692E+03  0.58556661513E+02  0.29092209684E+03  0.17300000000E+03 0. -1.
         -6    1    1    2    0  502  0.23820962794E+02 -0.22518957692E+03  0.18842657536E+03  0.34163044086E+03  0.17300000000E+03 0.  1.
</event>
<event>
 4    1  0.5959403E+000  0.1000000E+03  0.7546771E-02  0.1280296E+00
         21   -1    0    0  501  502  0.00000000000E+00  0.00000000000E+00  0.10452422696E+03  0.10452422696E+03  0.00000000000E+00 0.  1.
         21   -1    0    0  502  503 -0.00000000000E+00 -0.00000000000E+00 -0.32687938188E+03  0.32687938188E+03  0.00000000000E+00 0.  1.
          6    1    1    2  501    0  0.40374933296E+02 -0.43818535102E+02 -0.80577371984E+02  0.19992976800E+03  0.17300000000E+03 0.  1.
         -6    1    1    2    0  503 -0.40374933296E+02  0.43818535102E+02 -0.14177778294E+03  0.23147384084E+03  0.17300000000E+03 0.  1.
</event>
<event>
 4    1  0.5959403E+000  0.1000000E+03  0.7546771E-02  0.1280296E+00
         21   -1    0    0  501  502  0.00000000000E+00  0.00000000000E+00  0.10563003922E+03  0.10563003922E+03  0.00000000000E+00 0.  1.
         21   -1    0    0  502  503 -0.00000000000E+00 -0.00000000000E+00 -0.10327476042E+04  0.10327476042E+04  0.00000000000E+00 0.  1.
          6    1    1    2  501    0  0.36105243489E+02 -0.56403517560E+02  0.73684576642E+01  0.18565624032E+03  0.17300000000E+03 0.  1.
         -6    1    1    2    0  503 -0.36105243489E+02  0.56403517560E+02 -0.93448602262E+03  0.95272140308E+03  0.17300000000E+03 0.  1.
</event>
<event>
 4    1  0.5959403E+000  0.1000000E+03  0.7546771E-02  0.1280296E+00
         21   -1    0    0  503  502  0.00000000000E+00  0.00000000000E+00  0.10772943746E+04  0.10772943746E+04  0.00000000000E+00 0.  1.
         21   -1    0    0  501  503 -0.00000000000E+00 -0.00000000000E+00 -0.37636431163E+02  0.37636431163E+02  0.00000000000E+00 0.  1.
          6    1    1    2  501    0  0.83205459121E+01 -0.10044143406E+03  0.46052833554E+03  0.50216835922E+03  0.17300000000E+03 0.  1.
         -6    1    1    2    0  502 -0.83205459121E+01  0.10044143406E+03  0.57912960790E+03  0.61276244655E+03  0.17300000000E+03 0.  1.
</event>
<event>
 4    1  0.5959403E+000  0.1000000E+03  0.7546771E-02  0.1280296E+00
         21   -1    0    0  501  502  0.00000000000E+00  0.00000000000E+00  0.89812256207E+02  0.89812256207E+02  0.00000000000E+00 0.  1.
         21   -1    0    0  502  503 -0.00000000000E+00 -0.00000000000E+00 -0.92593107188E+03  0.92593107188E+03  0.00000000000E+00 0.  1.
          6    1    1    2  501    0  0.95405431890E+02  0.66139041521E+02 -0.66912058831E+02  0.21882137205E+03  0.17300000000E+03 0.  1.
         -6    1    1    2    0  503 -0.95405431890E+02 -0.66139041521E+02 -0.76920675684E+03  0.79692195604E+03  0.17300000000E+03 0.  1.
</event>
<event>
 4    1  0.5959403E+000  0.1000000E+03  0.7546771E-02  0.1280296E+00
         21   -1    0    0  501  502  0.00000000000E+00  0.00000000000E+00  0.57709097781E+03  0.57709097781E+03  0.00000000000E+00 0.  1.
         21   -1    0    0  502  503 -0.00000000000E+00 -0.00000000000E+00 -0.34431570364E+03  0.34431570364E+03  0.00000000000E+00 0.  1.
          6    1    1    2  501    0 -0.12141012404E+02  0.93163016073E+02  0.52972735142E+03  0.56512548924E+03  0.17300000000E+03 0.  1.
         -6    1    1    2    0  503  0.12141012404E+02 -0.93163016073E+02 -0.29695207724E+03  0.35628119221E+03  0.17300000000E+03 0.  1.
</event>
<event>
 4    1  0.5959403E+000  0.1000000E+03  0.7546771E-02  0.1280296E+00
         21   -1    0    0  501  502  0.00000000000E+00  0.00000000000E+00  0.16944099472E+03  0.16944099472E+03  0.00000000000E+00 0.  1.
         21   -1    0    0  502  503 -0.00000000000E+00 -0.00000000000E+00 -0.33938562932E+03  0.33938562932E+03  0.00000000000E+00 0.  1.
          6    1    1    2  501    0  0.93238379419E+02 -0.98782335977E+02  0.16374948620E+02  0.22056401393E+03  0.17300000000E+03 0.  1.
         -6    1    1    2    0  503 -0.93238379419E+02  0.98782335977E+02 -0.18631958321E+03  0.28826261011E+03  0.17300000000E+03 0.  1.
</event>
<event>
 4    1  0.5959403E+000  0.1000000E+03  0.7546771E-02  0.1280296E+00
         21   -1    0    0  501  502  0.00000000000E+00  0.00000000000E+00  0.10159980898E+03  0.10159980898E+03  0.00000000000E+00 0.  1.
         21   -1    0    0  502  503 -0.00000000000E+00 -0.00000000000E+00 -0.35373336126E+03  0.35373336126E+03  0.00000000000E+00 0. -1.
          6    1    1    2  501    0  0.44496667726E+02  0.25878609381E+02 -0.19568490538E+03  0.26621652476E+03  0.17300000000E+03 0.  1.
         -6    1    1    2    0  503 -0.44496667726E+02 -0.25878609381E+02 -0.56448646904E+02  0.18911664549E+03  0.17300000000E+03 0. -1.
</event>
<event>
 4    1  0.5959403E+000  0.1000000E+03  0.7546771E-02  0.1280296E+00
         21   -1    0    0  503  502  0.00000000000E+00  0.00000000000E+00  0.41687436646E+03  0.41687436646E+03  0.00000000000E+00 0. -1.
         21   -1    0    0  501  503 -0.00000000000E+00 -0.00000000000E+00 -0.20136206203E+03  0.20136206203E+03  0.00000000000E+00 0.  1.
          6    1    1    2  501    0 -0.72092650606E+01 -0.13416832760E+03 -0.94567403614E+02  0.23858983101E+03  0.17300000000E+03 0.  1.
         -6    1    1    2    0  502  0.72092650606E+01  0.13416832760E+03  0.31007970805E+03  0.37964659748E+03  0.17300000000E+03 0. -1.
</event>
<event>
 4    1  0.5959403E+000  0.1000000E+03  0.7546771E-02  0.1280296E+00
         21   -1    0    0  503  502  0.00000000000E+00  0.00000000000E+00  0.17596491425E+04  0.17596491425E+04  0.00000000000E+00 0. -1.
         21   -1    0    0  501  503 -0.00000000000E+00 -0.00000000000E+00 -0.30393531276E+03  0.30393531276E+03  0.00000000000E+00 0.  1.
          6    1    1    2  501    0  0.51709628960E+02 -0.23110904565E+02 -0.27145970818E+03  0.32684456979E+03  0.17300000000E+03 0.  1.
         -6    1    1    2    0  502 -0.51709628960E+02  0.23110904565E+02  0.17271735379E+04  0.17367398855E+04  0.17300000000E+03 0. -1.
</event>
<event>
 4    1  0.5959403E+000  0.1000000E+03  0.7546771E-02  0.1280296E+00
         21   -1    0    0  503  502  0.00000000000E+00  0.00000000000E+00  0.49494354363E+03  0.49494354363E+03  0.00000000000E+00 0. -1.
         21   -1    0    0  501  503 -0.00000000000E+00 -0.00000000000E+00 -0.31053856157E+03  0.31053856157E+03  0.00000000000E+00 0.  1.
          6    1    1    2  501    0 -0.53018435992E+02 -0.32756164763E+03  0.21227812495E+03  0.43023085650E+03  0.17300000000E+03 0.  1.
         -6    1    1    2    0  502  0.53018435992E+02  0.32756164763E+03 -0.27873142895E+02  0.37525124870E+03  0.17300000000E+03 0. -1.
</event>
<event>
 4    1  0.5959403E+000  0.1000000E+03  0.7546771E-02  0.1280296E+00
         21   -1    0    0  503  502  0.00000000000E+00  0.00000000000E+00  0.71383079413E+02  0.71383079413E+02  0.00000000000E+00 0. -1.
         21   -1    0    0  501  503 -0.00000000000E+00 -0.00000000000E+00 -0.65397557199E+03  0.65397557199E+03  0.00000000000E+00 0.  1.
          6    1    1    2  501    0  0.73422999006E+02  0.22280428391E+02 -0.46627606346E+03  0.50321935736E+03  0.17300000000E+03 0.  1.
         -6    1    1    2    0  502 -0.73422999006E+02 -0.22280428391E+02 -0.11631642912E+03  0.22213929404E+03  0.17300000000E+03 0.  1.
</event>
<event>
 4    1  0.5959403E+000  0.1000000E+03  0.7546771E-02  0.1280296E+00
         21   -1    0    0  503  502  0.00000000000E+00  0.00000000000E+00  0.55415242819E+03  0.55415242819E+03  0.00000000000E+00 0. -1.
         21   -1    0    0  501  503 -0.00000000000E+00 -0.00000000000E+00 -0.91695974662E+02  0.91695974662E+02  0.00000000000E+00 0. -1.
          6    1    1    2  501    0 -0.43674282805E+01 -0.77412379839E+02  0.56522496679E+02  0.19782705481E+03  0.17300000000E+03 0. -1.
         -6    1    1    2    0  502  0.43674282805E+01  0.77412379839E+02  0.40593395685E+03  0.44802134805E+03  0.17300000000E+03 0. -1.
</event>
<event>
 4    1  0.5959403E+000  0.1000000E+03  0.7546771E-02  0.1280296E+00
         21   -1    0    0  503  502  0.00000000000E+00  0.00000000000E+00  0.13249371505E+04  0.13249371505E+04  0.00000000000E+00 0. -1.
         21   -1    0    0  501  503 -0.00000000000E+00 -0.00000000000E+00 -0.77467791920E+02  0.77467791920E+02  0.00000000000E+00 0. -1.
          6    1    1    2  501    0  0.18777124764E+02  0.86823890767E+02  0.66498019258E+02  0.20552847732E+03  0.17300000000E+03 0. -1.
         -6    1    1    2    0  502 -0.18777124764E+02 -0.86823890767E+02  0.11809713393E+04  0.11968764651E+04  0.17300000000E+03 0. -1.
</event>
<event>
 4    1  0.5959403E+000  0.1000000E+03  0.7546771E-02  0.1280296E+00
         21   -1    0    0  503  502  0.00000000000E+00  0.00000000000E+00  0.14805672877E+03  0.14805672877E+03  0.00000000000E+00 0. -1.
         21   -1    0    0  501  503 -0.00000000000E+00 -0.00000000000E+00 -0.21805452700E+03  0.21805452700E+03  0.00000000000E+00 0. -1.
          6    1    1    2  501    0  0.32295465369E+02  0.23682911857E+02 -0.62928776356E+02  0.18839561643E+03  0.17300000000E+03 0. -1.
         -6    1    1    2    0  502 -0.32295465369E+02 -0.23682911857E+02 -0.70690218744E+01  0.17771563934E+03  0.17300000000E+03 0. -1.
</event>
<event>
 4    1  0.5959403E+000  0.1000000E+03  0.7546771E-02  0.1280296E+00
         21   -1    0    0  501  502  0.00000000000E+00  0.00000000000E+00  0.66866187054E+03  0.66866187054E+03  0.00000000000E+00 0. -1.
         21   -1    0    0  502  503 -0.00000000000E+00 -0.00000000000E+00 -0.92280670395E+02  0.92280670395E+02  0.00000000000E+00 0. -1.
          6    1    1    2  501    0  0.17314331142E+03 -0.40863307090E+02  0.30546172364E+03  0.39355340269E+03  0.17300000000E+03 0. -1.
         -6    1    1    2    0  503 -0.17314331142E+03  0.40863307090E+02  0.27091947650E+03  0.36738913825E+03  0.17300000000E+03 0. -1.
</event>
<event>
 4    1  0.5959403E+000  0.1000000E+03  0.7546771E-02  0.1280296E+00
         21   -1    0    0  501  502  0.00000000000E+00  0.00000000000E+00  0.31775899733E+03  0.31775899733E+03  0.00000000000E+00 0. -1.
         21   -1    0    0  502  503 -0.00000000000E+00 -0.00000000000E+00 -0.76324318746E+03  0.76324318746E+03  0.00000000000E+00 0. -1.
          6    1    1    2  501    0  0.22110377553E+03 -0.16749855766E+03  0.18149417008E+03  0.37391413472E+03  0.17300000000E+03 0. -1.
         -6    1    1    2    0  503 -0.22110377553E+03  0.16749855766E+03 -0.62697836020E+03  0.70708805006E+03  0.17300000000E+03 0. -1.
</event>
<event>
 4    1  0.5959403E+000  0.1000000E+03  0.7546771E-02  0.1280296E+00
         21   -1    0    0  501  502  0.00000000000E+00  0.00000000000E+00  0.16262614584E+03  0.16262614584E+03  0.00000000000E+00 0. -1.
         21   -1    0    0  502  503 -0.00000000000E+00 -0.00000000000E+00 -0.19897380166E+03  0.19897380166E+03  0.00000000000E+00 0. -1.
          6    1    1    2  501    0 -0.80605444044E+01  0.10455915524E+02 -0.65902871708E+02  0.18559764827E+03  0.17300000000E+03 0. -1.
         -6    1    1    2    0  503  0.80605444044E+01 -0.10455915524E+02  0.29555215891E+02  0.17600229922E+03  0.17300000000E+03 0. -1.
</event>
<event>
 4    1  0.5959403E+000  0.1000000E+03  0.7546771E-02  0.1280296E+00
         21   -1    0    0  501  502  0.00000000000E+00  0.00000000000E+00  0.98760089035E+02  0.98760089035E+02  0.00000000000E+00 0. -1.
         21   -1    0    0  502  503 -0.00000000000E+00 -0.00000000000E+00 -0.46230838266E+03  0.46230838266E+03  0.00000000000E+00 0. -1.
          6    1    1    2  501    0 -0.10996284600E+03 -0.19501021698E+02 -0.10685293917E+03  0.23198850824E+03  0.17300000000E+03 0. -1.
         -6    1    1    2    0  503  0.10996284600E+03  0.19501021698E+02 -0.25669535445E+03  0.32907996345E+03  0.17300000000E+03 0. -1.
</event>
<event>
 4    1  0.5959403E+000  0.1000000E+03  0.7546771E-02  0.1280296E+00
         21   -1    0    0  501  502  0.00000000000E+00  0.00000000000E+00  0.12605114002E+04  0.12605114002E+04  0.00000000000E+00 0. -1.
         21   -1    0    0  502  503 -0.00000000000E+00 -0.00000000000E+00 -0.29935514291E+02  0.29935514291E+02  0.00000000000E+00 0. -1.
          6    1    1    2  501    0 -0.83949118632E+01  0.74322139980E+02  0.77146539068E+03  0.79415496224E+03  0.17300000000E+03 0. -1.
         -6    1    1    2    0  503  0.83949118632E+01 -0.74322139980E+02  0.45911049520E+03  0.49629195223E+03  0.17300000000E+03 0. -1.
</event>
<event>
 4    1  0.5959403E+000  0.1000000E+03  0.7546771E-02  0.1280296E+00
         21   -1    0    0  503  502  0.00000000000E+00  0.00000000000E+00  0.16484227269E+03  0.16484227269E+03  0.00000000000E+00 0.  1.
         21   -1    0    0  501  503 -0.00000000000E+00 -0.00000000000E+00 -0.24986489418E+03  0.24986489418E+03  0.00000000000E+00 0.  1.
          6    1    1    2  501    0  0.33956646633E+02  0.77319855892E+02 -0.10815429545E+03  0.22081160656E+03  0.17300000000E+03 0.  1.
         -6    1    1    2    0  502 -0.33956646633E+02 -0.77319855892E+02  0.23131673966E+02  0.19389556031E+03  0.17300000000E+03 0.  1.
</event>
<event>
 4    1  0.5959403E+000  0.1000000E+03  0.7546771E-02  0.1280296E+00
         21   -1    0    0  503  502  0.00000000000E+00  0.00000000000E+00  0.17413109914E+03  0.17413109914E+03  0.00000000000E+00 0.  1.
         21   -1    0    0  501  503 -0.00000000000E+00 -0.00000000000E+00 -0.22606379743E+03  0.22606379743E+03  0.00000000000E+00 0.  1.
          6    1    1    2  501    0  0.39864498262E+02  0.80508040171E+02 -0.63227524118E+02  0.20493277571E+03  0.17300000000E+03 0.  1.
         -6    1    1    2    0  502 -0.39864498262E+02 -0.80508040171E+02  0.11294825823E+02  0.19526212086E+03  0.17300000000E+03 0.  1.
</event>
<event>
 4    1  0.5959403E+000  0.1000000E+03  0.7546771E-02  0.1280296E+00
         21   -1    0    0  503  502  0.00000000000E+00  0.00000000000E+00  0.78811877210E+03  0.78811877210E+03  0.00000000000E+00 0.  1.
         21   -1    0    0  501  503 -0.00000000000E+00 -0.00000000000E+00 -0.66721366551E+02  0.66721366551E+02  0.00000000000E+00 0.  1.
          6    1    1    2  501    0 -0.76234914953E+02 -0.22945118205E+02  0.12260474621E+03  0.22649318864E+03  0.17300000000E+03 0.  1.
         -6    1    1    2    0  502  0.76234914953E+02  0.22945118205E+02  0.59879265935E+03  0.62834695002E+03  0.17300000000E+03 0.  1.
</event>
<event>
 4    1  0.5959403E+000  0.1000000E+03  0.7546771E-02  0.1280296E+00
         21   -1    0    0  501  502  0.00000000000E+00  0.00000000000E+00  0.28677381430E+03  0.28677381430E+03  0.00000000000E+00 0. -1.
         21   -1    0    0  502  503 -0.00000000000E+00 -0.00000000000E+00 -0.38231417230E+03  0.38231417230E+03  0.00000000000E+00 0. -1.
          6    1    1    2  501    0 -0.62029876275E+02 -0.21483835683E+01  0.23050170368E+03  0.29480901700E+03  0.17300000000E+03 0. -1.
         -6    1    1    2    0  503  0.62029876275E+02  0.21483835683E+01 -0.32604206168E+03  0.37427896960E+03  0.17300000000E+03 0. -1.
</event>
<event>
 4    1  0.5959403E+000  0.1000000E+03  0.7546771E-02  0.1280296E+00
         21   -1    0    0  501  502  0.00000000000E+00  0.00000000000E+00  0.42790919662E+03  0.42790919662E+03  0.00000000000E+00 0. -1.
         21   -1    0    0  502  503 -0.00000000000E+00 -0.00000000000E+00 -0.39306115748E+03  0.39306115748E+03  0.00000000000E+00 0. -1.
          6    1    1    2  501    0 -0.32146470802E+03  0.83457403866E+02 -0.14994162049E+03  0.40338094442E+03  0.17300000000E+03 0. -1.
         -6    1    1    2    0  503  0.32146470802E+03 -0.83457403866E+02  0.18478965963E+03  0.41758940967E+03  0.17300000000E+03 0. -1.
</event>
<event>
 4    1  0.5959403E+000  0.1000000E+03  0.7546771E-02  0.1280296E+00
         21   -1    0    0  503  502  0.00000000000E+00  0.00000000000E+00  0.16395441334E+03  0.16395441334E+03  0.00000000000E+00 0. -1.
         21   -1    0    0  501  503 -0.00000000000E+00 -0.00000000000E+00 -0.21506665707E+03  0.21506665707E+03  0.00000000000E+00 0. -1.
          6    1    1    2  501    0 -0.27552918056E+02 -0.35872929771E+02 -0.83409065738E+02  0.19731219585E+03  0.17300000000E+03 0. -1.
         -6    1    1    2    0  502  0.27552918056E+02  0.35872929771E+02  0.32296822008E+02  0.18170887456E+03  0.17300000000E+03 0. -1.
</event>
<event>
 4    1  0.5959403E+000  0.1000000E+03  0.7546771E-02  0.1280296E+00
         21   -1    0    0  503  502  0.00000000000E+00  0.00000000000E+00  0.29011751943E+03  0.29011751943E+03  0.00000000000E+00 0. -1.
         21   -1    0    0  501  503 -0.00000000000E+00 -0.00000000000E+00 -0.21827097836E+04  0.21827097836E+04  0.00000000000E+00 0. -1.
          6    1    1    2  501    0 -0.39278025697E+02  0.30090721017E+03 -0.20572219071E+04  0.20866669325E+04  0.17300000000E+03 0. -1.
         -6    1    1    2    0  502  0.39278025697E+02 -0.30090721017E+03  0.16462964288E+03  0.38616037051E+03  0.17300000000E+03 0. -1.
</event>
<event>
 4    1  0.5959403E+000  0.1000000E+03  0.7546771E-02  0.1280296E+00
         21   -1    0    0  503  502  0.00000000000E+00  0.00000000000E+00  0.55431617105E+03  0.55431617105E+03  0.00000000000E+00 0. -1.
         21   -1    0    0  501  503 -0.00000000000E+00 -0.00000000000E+00 -0.60208794055E+02  0.60208794055E+02  0.00000000000E+00 0. -1.
          6    1    1    2  501    0  0.11561708440E+02 -0.55266853615E+02  0.27404861399E+03  0.32896768996E+03  0.17300000000E+03 0. -1.
         -6    1    1    2    0  502 -0.11561708440E+02  0.55266853615E+02  0.22005876301E+03  0.28555727514E+03  0.17300000000E+03 0. -1.
</event>
<event>
 4    1  0.5959403E+000  0.1000000E+03  0.7546771E-02  0.1280296E+00
         21   -1    0    0  501  502  0.00000000000E+00  0.00000000000E+00  0.17477659888E+03  0.17477659888E+03  0.00000000000E+00 0. -1.
         21   -1    0    0  502  503 -0.00000000000E+00 -0.00000000000E+00 -0.68343330851E+03  0.68343330851E+03  0.00000000000E+00 0. -1.
          6    1    1    2  501    0  0.41465508607E+02 -0.13440972581E+03  0.73536933301E+02  0.23478084112E+03  0.17300000000E+03 0. -1.
         -6    1    1    2    0  503 -0.41465508607E+02  0.13440972581E+03 -0.58219364293E+03  0.62342906627E+03  0.17300000000E+03 0. -1.
</event>
<event>
 4    1  0.5959403E+000  0.1000000E+03  0.7546771E-02  0.1280296E+00
         21   -1    0    0  503  502  0.00000000000E+00  0.00000000000E+00  0.24512932033E+02  0.24512932033E+02  0.00000000000E+00 0.  1.
         21   -1    0    0  501  503 -0.00000000000E+00 -0.00000000000E+00 -0.15369276421E+04  0.15369276421E+04  0.00000000000E+00 0.  1.
          6    1    1    2  501    0 -0.84955738922E+02 -0.12851115665E+02 -0.83283913803E+03  0.85494599746E+03  0.17300000000E+03 0.  1.
         -6    1    1    2    0  502  0.84955738922E+02  0.12851115665E+02 -0.67957557202E+03  0.70649457665E+03  0.17300000000E+03 0.  1.
</event>
<event>
 4    1  0.5959403E+000  0.1000000E+03  0.7546771E-02  0.1280296E+00
         21   -1    0    0  503  502  0.00000000000E+00  0.00000000000E+00  0.48665206889E+03  0.48665206889E+03  0.00000000000E+00 0.  1.
         21   -1    0    0  501  503 -0.00000000000E+00 -0.00000000000E+00 -0.26222113834E+03  0.26222113834E+03  0.00000000000E+00 0.  1.
          6    1    1    2  501    0 -0.17254243172E+03 -0.16413929516E+02 -0.16039382849E+03  0.29273791699E+03  0.17300000000E+03 0.  1.
         -6    1    1    2    0  502  0.17254243172E+03  0.16413929516E+02  0.38482475905E+03  0.45613529024E+03  0.17300000000E+03 0.  1.
</event>
<event>
 4    1  0.5959403E+000  0.1000000E+03  0.7546771E-02  0.1280296E+00
         21   -1    0    0  501  502  0.00000000000E+00  0.00000000000E+00  0.18571820047E+03  0.18571820047E+03  0.00000000000E+00 0.  1.
         21   -1    0    0  502  503 -0.00000000000E+00 -0.00000000000E+00 -0.35444656655E+03  0.35444656655E+03  0.00000000000E+00 0.  1.
          6    1    1    2  501    0  0.58793138230E+02 -0.14574601371E+03  0.27038528975E+02  0.23528411690E+03  0.17300000000E+03 0.  1.
         -6    1    1    2    0  503 -0.58793138230E+02  0.14574601371E+03 -0.19576689506E+03  0.30488065012E+03  0.17300000000E+03 0.  1.
</event>
<event>
 4    1  0.5959403E+000  0.1000000E+03  0.7546771E-02  0.1280296E+00
         21   -1    0    0  503  502  0.00000000000E+00  0.00000000000E+00  0.66009944072E+02  0.66009944072E+02  0.00000000000E+00 0. -1.
         21   -1    0    0  501  503 -0.00000000000E+00 -0.00000000000E+00 -0.12511110451E+04  0.12511110451E+04  0.00000000000E+00 0. -1.
          6    1    1    2  501    0 -0.11271602137E+03  0.11020165317E+03 -0.97469165756E+03  0.10023981909E+04  0.17300000000E+03 0. -1.
         -6    1    1    2    0  502  0.11271602137E+03 -0.11020165317E+03 -0.21040944344E+03  0.31472279823E+03  0.17300000000E+03 0. -1.
</event>
<event>
 4    1  0.5959403E+000  0.1000000E+03  0.7546771E-02  0.1280296E+00
         21   -1    0    0  503  502  0.00000000000E+00  0.00000000000E+00  0.77128611525E+03  0.77128611525E+03  0.00000000000E+00 0. -1.
         21   -1    0    0  501  503 -0.00000000000E+00 -0.00000000000E+00 -0.78671804323E+02  0.78671804323E+02  0.00000000000E+00 0. -1.
          6    1    1    2  501    0  0.87269288823E+02 -0.44172490115E+02  0.95212765605E+02  0.22036698571E+03  0.17300000000E+03 0. -1.
         -6    1    1    2    0  502 -0.87269288823E+02  0.44172490115E+02  0.59740154532E+03  0.62959093387E+03  0.17300000000E+03 0. -1.
</event>
<event>
 4    1  0.5959403E+000  0.1000000E+03  0.7546771E-02  0.1280296E+00
         21   -1    0    0  501  502  0.00000000000E+00  0.00000000000E+00  0.17362938690E+03  0.17362938690E+03  0.00000000000E+00 0. -1.
         21   -1    0    0  502  503 -0.00000000000E+00 -0.00000000000E+00 -0.28635575893E+03  0.28635575893E+03  0.00000000000E+00 0. -1.
          6    1    1    2  501    0 -0.12220045850E+03  0.18975392752E+02  0.12811507250E+02  0.21304025982E+03  0.17300000000E+03 0. -1.
         -6    1    1    2    0  503  0.12220045850E+03 -0.18975392752E+02 -0.12553787929E+03  0.24694488601E+03  0.17300000000E+03 0. -1.
</event>
<event>
 4    1  0.5959403E+000  0.1000000E+03  0.7546771E-02  0.1280296E+00
         21   -1    0    0  501  502  0.00000000000E+00  0.00000000000E+00  0.40003443440E+02  0.40003443440E+02  0.00000000000E+00 0.  1.
         21   -1    0    0  502  503 -0.00000000000E+00 -0.00000000000E+00 -0.18534083955E+04  0.18534083955E+04  0.00000000000E+00 0. -1.
          6    1    1    2  501    0 -0.54244072562E+02 -0.61640962263E+02 -0.23367548207E+03  0.30211795471E+03  0.17300000000E+03 0.  1.
         -6    1    1    2    0  503  0.54244072562E+02  0.61640962263E+02 -0.15797294700E+04  0.15912938842E+04  0.17300000000E+03 0. -1.
</event>
<event>
 4    1  0.5959403E+000  0.1000000E+03  0.7546771E-02  0.1280296E+00
         21   -1    0    0  503  502  0.00000000000E+00  0.00000000000E+00  0.21585603836E+04  0.21585603836E+04  0.00000000000E+00 0.  1.
         21   -1    0    0  501  503 -0.00000000000E+00 -0.00000000000E+00 -0.44576515242E+02  0.44576515242E+02  0.00000000000E+00 0. -1.
          6    1    1    2  501    0 -0.11205566704E+03 -0.12226902069E+03  0.35761171512E+03  0.43048963371E+03  0.17300000000E+03 0.  1.
         -6    1    1    2    0  502  0.11205566704E+03  0.12226902069E+03  0.17563721532E+04  0.17726472651E+04  0.17300000000E+03 0. -1.
</event>
<event>
 4    1  0.5959403E+000  0.1000000E+03  0.7546771E-02  0.1280296E+00
         21   -1    0    0  503  502  0.00000000000E+00  0.00000000000E+00  0.23367396025E+03  0.23367396025E+03  0.00000000000E+00 0.  1.
         21   -1    0    0  501  503 -0.00000000000E+00 -0.00000000000E+00 -0.23332134509E+03  0.23332134509E+03  0.00000000000E+00 0. -1.
          6    1    1    2  501    0  0.11868490982E+03  0.97930076149E+02 -0.30084485668E+02  0.23347480359E+03  0.17300000000E+03 0. -1.
         -6    1    1    2    0  502 -0.11868490982E+03 -0.97930076149E+02  0.30437100831E+02  0.23352050175E+03  0.17300000000E+03 0.  1.
</event>
<event>
 4    1  0.5959403E+000  0.1000000E+03  0.7546771E-02  0.1280296E+00
         21   -1    0    0  501  502  0.00000000000E+00  0.00000000000E+00  0.22144049709E+03  0.22144049709E+03  0.00000000000E+00 0.  1.
         21   -1    0    0  502  503 -0.00000000000E+00 -0.00000000000E+00 -0.20397662909E+03  0.20397662909E+03  0.00000000000E+00 0.  1.
          6    1    1    2  501    0  0.10179922312E+03  0.63470822440E+02 -0.20414087564E+02  0.21151208500E+03  0.17300000000E+03 0.  1.
         -6    1    1    2    0  503 -0.10179922312E+03 -0.63470822440E+02  0.37877955563E+02  0.21390504119E+03  0.17300000000E+03 0.  1.
</event>
<event>
 4    1  0.5959403E+000  0.1000000E+03  0.7546771E-02  0.1280296E+00
         21   -1    0    0  501  502  0.00000000000E+00  0.00000000000E+00  0.34568221567E+03  0.34568221567E+03  0.00000000000E+00 0.  1.
         21   -1    0    0  502  503 -0.00000000000E+00 -0.00000000000E+00 -0.13761103521E+03  0.13761103521E+03  0.00000000000E+00 0.  1.
          6    1    1    2  501    0 -0.28034318084E+02  0.34723665345E+02  0.24263434210E+03  0.30131724128E+03  0.17300000000E+03 0.  1.
         -6    1    1    2    0  503  0.28034318084E+02 -0.34723665345E+02 -0.34563161638E+02  0.18197600959E+03  0.17300000000E+03 0.  1.
</event>
<event>
 4    1  0.5959403E+000  0.1000000E+03  0.7546771E-02  0.1280296E+00
         21   -1    0    0  501  502  0.00000000000E+00  0.00000000000E+00  0.13245107652E+04  0.13245107652E+04  0.00000000000E+00 0. -1.
         21   -1    0    0  502  503 -0.00000000000E+00 -0.00000000000E+00 -0.37803529700E+02  0.37803529700E+02  0.00000000000E+00 0.  1.
          6    1    1    2  501    0 -0.64107618750E+02 -0.12540392817E+03  0.69662469674E+03  0.73147173568E+03  0.17300000000E+03 0. -1.
         -6    1    1    2    0  503  0.64107618750E+02  0.12540392817E+03  0.59008253879E+03  0.63084255925E+03  0.17300000000E+03 0.  1.
</event>
<event>
 4    1  0.5959403E+000  0.1000000E+03  0.7546771E-02  0.1280296E+00
         21   -1    0    0  501  502  0.00000000000E+00  0.00000000000E+00  0.23168481900E+04  0.23168481900E+04  0.00000000000E+00 0. -1.
         21   -1    0    0  502  503 -0.00000000000E+00 -0.00000000000E+00 -0.21056219135E+02  0.21056219135E+02  0.00000000000E+00 0.  1.
          6    1    1    2  501    0  0.65497397020E+02 -0.16630777286E+02  0.17805294695E+04  0.17901901250E+04  0.17300000000E+03 0. -1.
         -6    1    1    2    0  503 -0.65497397020E+02  0.16630777286E+02  0.51526250137E+03  0.54771428417E+03  0.17300000000E+03 0. -1.
</event>
<event>
 4    1  0.5959403E+000  0.1000000E+03  0.7546771E-02  0.1280296E+00
         21   -1    0    0  501  502  0.00000000000E+00  0.00000000000E+00  0.20685504243E+03  0.20685504243E+03  0.00000000000E+00 0. -1.
         21   -1    0    0  502  503 -0.00000000000E+00 -0.00000000000E+00 -0.19256926206E+03  0.19256926206E+03  0.00000000000E+00 0.  1.
          6    1    1    2  501    0  0.46235811590E+02 -0.77684934990E+02 -0.34503744450E+02  0.19822262176E+03  0.17300000000E+03 0. -1.
         -6    1    1    2    0  503 -0.46235811590E+02  0.77684934990E+02  0.48789524818E+02  0.20120168272E+03  0.17300000000E+03 0. -1.
</event>
<event>
 4    1  0.5959403E+000  0.1000000E+03  0.7546771E-02  0.1280296E+00
         21   -1    0    0  501  502  0.00000000000E+00  0.00000000000E+00  0.15135308283E+03  0.15135308283E+03  0.00000000000E+00 0. -1.
         21   -1    0    0  502  503 -0.00000000000E+00 -0.00000000000E+00 -0.22822162758E+03  0.22822162758E+03  0.00000000000E+00 0.  1.
          6    1    1    2  501    0 -0.28898914207E+02  0.55820470313E+02 -0.12161013022E+02  0.18446669723E+03  0.17300000000E+03 0. -1.
         -6    1    1    2    0  503  0.28898914207E+02 -0.55820470313E+02 -0.64707531722E+02  0.19510801319E+03  0.17300000000E+03 0. -1.
</event>
<event>
 4    1  0.5959403E+000  0.1000000E+03  0.7546771E-02  0.1280296E+00
         21   -1    0    0  501  502  0.00000000000E+00  0.00000000000E+00  0.30019137730E+03  0.30019137730E+03  0.00000000000E+00 0. -1.
         21   -1    0    0  502  503 -0.00000000000E+00 -0.00000000000E+00 -0.42603728029E+03  0.42603728029E+03  0.00000000000E+00 0. -1.
          6    1    1    2  501    0  0.53797234566E+02 -0.99452382084E+02  0.23341429081E+03  0.31176297071E+03  0.17300000000E+03 0. -1.
         -6    1    1    2    0  503 -0.53797234566E+02  0.99452382084E+02 -0.35926019380E+03  0.41446568688E+03  0.17300000000E+03 0. -1.
</event>
<event>
 4    1  0.5959403E+000  0.1000000E+03  0.7546771E-02  0.1280296E+00
         21   -1    0    0  503  502  0.00000000000E+00  0.00000000000E+00  0.18379756491E+03  0.18379756491E+03  0.00000000000E+00 0. -1.
         21   -1    0    0  501  503 -0.00000000000E+00 -0.00000000000E+00 -0.31051205847E+03  0.31051205847E+03  0.00000000000E+00 0. -1.
          6    1    1    2  501    0  0.54863761534E+02 -0.46849975366E+02 -0.21659035514E+03  0.28643556773E+03  0.17300000000E+03 0.  1.
         -6    1    1    2    0  502 -0.54863761534E+02  0.46849975366E+02  0.89875861574E+02  0.20787405566E+03  0.17300000000E+03 0.  1.
</event>
<event>
 4    1  0.5959403E+000  0.1000000E+03  0.7546771E-02  0.1280296E+00
         21   -1    0    0  501  502  0.00000000000E+00  0.00000000000E+00  0.10200183986E+04  0.10200183986E+04  0.00000000000E+00 0. -1.
         21   -1    0    0  502  503 -0.00000000000E+00 -0.00000000000E+00 -0.11165276342E+03  0.11165276342E+03  0.00000000000E+00 0.  1.
          6    1    1    2  501    0 -0.13168052446E+03  0.62851006032E+02  0.87391997956E+03  0.90274865835E+03  0.17300000000E+03 0. -1.
         -6    1    1    2    0  503  0.13168052446E+03 -0.62851006032E+02  0.34445655582E+02  0.22892250364E+03  0.17300000000E+03 0.  1.
</event>
<event>
 4    1  0.5959403E+000  0.1000000E+03  0.7546771E-02  0.1280296E+00
         21   -1    0    0  501  502  0.00000000000E+00  0.00000000000E+00  0.27732882279E+02  0.27732882279E+02  0.00000000000E+00 0. -1.
         21   -1    0    0  502  503 -0.00000000000E+00 -0.00000000000E+00 -0.20654915356E+04  0.20654915356E+04  0.00000000000E+00 0.  1.
          6    1    1    2  501    0 -0.11076333744E+03 -0.11514531275E+03 -0.12057476659E+04  0.12285289552E+04  0.17300000000E+03 0. -1.
         -6    1    1    2    0  503  0.11076333744E+03  0.11514531275E+03 -0.83201098742E+03  0.86469546266E+03  0.17300000000E+03 0.  1.
</event>
<event>
 4    1  0.5959403E+000  0.1000000E+03  0.7546771E-02  0.1280296E+00
         21   -1    0    0  501  502  0.00000000000E+00  0.00000000000E+00  0.53731253963E+02  0.53731253963E+02  0.00000000000E+00 0. -1.
         21   -1    0    0  502  503 -0.00000000000E+00 -0.00000000000E+00 -0.67573911945E+03  0.67573911945E+03  0.00000000000E+00 0.  1.
          6    1    1    2  501    0  0.62714482809E+02  0.46370101641E+02 -0.34393709098E+03  0.39281677056E+03  0.17300000000E+03 0. -1.
         -6    1    1    2    0  503 -0.62714482809E+02 -0.46370101641E+02 -0.27807077451E+03  0.33665360286E+03  0.17300000000E+03 0.  1.
</event>
<event>
 4    1  0.5959403E+000  0.1000000E+03  0.7546771E-02  0.1280296E+00
         21   -1    0    0  501  502  0.00000000000E+00  0.00000000000E+00  0.70816589554E+02  0.70816589554E+02  0.00000000000E+00 0.  1.
         21   -1    0    0  502  503 -0.00000000000E+00 -0.00000000000E+00 -0.58640891622E+03  0.58640891622E+03  0.00000000000E+00 0. -1.
          6    1    1    2  501    0 -0.57300613783E+02  0.93092178053E+01 -0.11151923013E+03  0.21385873974E+03  0.17300000000E+03 0.  1.
         -6    1    1    2    0  503  0.57300613783E+02 -0.93092178053E+01 -0.40407309654E+03  0.44336676604E+03  0.17300000000E+03 0. -1.
</event>
<event>
 4    1  0.5959403E+000  0.1000000E+03  0.7546771E-02  0.1280296E+00
         21   -1    0    0  501  502  0.00000000000E+00  0.00000000000E+00  0.26992016981E+03  0.26992016981E+03  0.00000000000E+00 0. -1.
         21   -1    0    0  502  503 -0.00000000000E+00 -0.00000000000E+00 -0.53072717606E+03  0.53072717606E+03  0.00000000000E+00 0.  1.
          6    1    1    2  501    0 -0.59979169125E+01  0.26269351151E+03  0.92166794599E+02  0.32782247334E+03  0.17300000000E+03 0.  1.
         -6    1    1    2    0  503  0.59979169125E+01 -0.26269351151E+03 -0.35297380085E+03  0.47282487253E+03  0.17300000000E+03 0. -1.
</event>
<event>
 4    1  0.5959403E+000  0.1000000E+03  0.7546771E-02  0.1280296E+00
         21   -1    0    0  501  502  0.00000000000E+00  0.00000000000E+00  0.57304884878E+03  0.57304884878E+03  0.00000000000E+00 0.  1.
         21   -1    0    0  502  503 -0.00000000000E+00 -0.00000000000E+00 -0.22252791666E+03  0.22252791666E+03  0.00000000000E+00 0. -1.
          6    1    1    2  501    0  0.11977221661E+02  0.12063706762E+03  0.49597936369E+03  0.53909302085E+03  0.17300000000E+03 0.  1.
         -6    1    1    2    0  503 -0.11977221661E+02 -0.12063706762E+03 -0.14545843157E+03  0.25648374459E+03  0.17300000000E+03 0. -1.
</event>
<event>
 4    1  0.5959403E+000  0.1000000E+03  0.7546771E-02  0.1280296E+00
         21   -1    0    0  501  502  0.00000000000E+00  0.00000000000E+00  0.60479299609E+03  0.60479299609E+03  0.00000000000E+00 0.  1.
         21   -1    0    0  502  503 -0.00000000000E+00 -0.00000000000E+00 -0.19253245685E+03  0.19253245685E+03  0.00000000000E+00 0. -1.
          6    1    1    2  501    0 -0.13613613285E+03 -0.65449545563E+02  0.50098518840E+03  0.55111872467E+03  0.17300000000E+03 0.  1.
         -6    1    1    2    0  503  0.13613613285E+03  0.65449545563E+02 -0.88724649163E+02  0.24620672828E+03  0.17300000000E+03 0. -1.
</event>
<event>
 4    1  0.5959403E+000  0.1000000E+03  0.7546771E-02  0.1280296E+00
         21   -1    0    0  503  502  0.00000000000E+00  0.00000000000E+00  0.22753214415E+03  0.22753214415E+03  0.00000000000E+00 0. -1.
         21   -1    0    0  501  503 -0.00000000000E+00 -0.00000000000E+00 -0.21988014668E+03  0.21988014668E+03  0.00000000000E+00 0. -1.
          6    1    1    2  501    0 -0.17880183576E+01  0.48076157000E+02  0.13721074845E+03  0.22598739649E+03  0.17300000000E+03 0. -1.
         -6    1    1    2    0  502  0.17880183576E+01 -0.48076157000E+02 -0.12955875098E+03  0.22142489435E+03  0.17300000000E+03 0. -1.
</event>
<event>
 4    1  0.5959403E+000  0.1000000E+03  0.7546771E-02  0.1280296E+00
         21   -1    0    0  501  502  0.00000000000E+00  0.00000000000E+00  0.45689844796E+03  0.45689844796E+03  0.00000000000E+00 0.  1.
         21   -1    0    0  502  503 -0.00000000000E+00 -0.00000000000E+00 -0.16711475415E+03  0.16711475415E+03  0.00000000000E+00 0.  1.
          6    1    1    2  501    0 -0.10626889683E+03 -0.87259140755E+02  0.33220006704E+03  0.39899012597E+03  0.17300000000E+03 0.  1.
         -6    1    1    2    0  503  0.10626889683E+03  0.87259140755E+02 -0.42416373221E+02  0.22502307614E+03  0.17300000000E+03 0.  1.
</event>
<event>
 4    1  0.5959403E+000  0.1000000E+03  0.7546771E-02  0.1280296E+00
         21   -1    0    0  501  502  0.00000000000E+00  0.00000000000E+00  0.46275653726E+03  0.46275653726E+03  0.00000000000E+00 0.  1.
         21   -1    0    0  502  503 -0.00000000000E+00 -0.00000000000E+00 -0.77310299907E+02  0.77310299907E+02  0.00000000000E+00 0.  1.
          6    1    1    2  501    0  0.94538941301E+01 -0.75833112894E+02  0.18899764149E+03  0.26737454182E+03  0.17300000000E+03 0.  1.
         -6    1    1    2    0  503 -0.94538941301E+01  0.75833112894E+02  0.19644859586E+03  0.27269229535E+03  0.17300000000E+03 0.  1.
</event>
<event>
 4    1  0.5959403E+000  0.1000000E+03  0.7546771E-02  0.1280296E+00
         21   -1    0    0  501  502  0.00000000000E+00  0.00000000000E+00  0.59252639833E+03  0.59252639833E+03  0.00000000000E+00 0.  1.
         21   -1    0    0  502  503 -0.00000000000E+00 -0.00000000000E+00 -0.20658740461E+03  0.20658740461E+03  0.00000000000E+00 0.  1.
          6    1    1    2  501    0 -0.19088438262E+03  0.22470968968E+03  0.27803409705E+03  0.44063959342E+03  0.17300000000E+03 0.  1.
         -6    1    1    2    0  503  0.19088438262E+03 -0.22470968968E+03  0.10790489668E+03  0.35847420952E+03  0.17300000000E+03 0.  1.
</event>
<event>
 4    1  0.5959403E+000  0.1000000E+03  0.7546771E-02  0.1280296E+00
         21   -1    0    0  501  502  0.00000000000E+00  0.00000000000E+00  0.67325078177E+03  0.67325078177E+03  0.00000000000E+00 0. -1.
         21   -1    0    0  502  503 -0.00000000000E+00 -0.00000000000E+00 -0.17569150952E+03  0.17569150952E+03  0.00000000000E+00 0.  1.
          6    1    1    2  501    0  0.76359661515E+02  0.14360967928E+03  0.55584643658E+03  0.60444089781E+03  0.17300000000E+03 0. -1.
         -6    1    1    2    0  503 -0.76359661515E+02 -0.14360967928E+03 -0.58287164328E+02  0.24450139348E+03  0.17300000000E+03 0. -1.
</event>
<event>
 4    1  0.5959403E+000  0.1000000E+03  0.7546771E-02  0.1280296E+00
         21   -1    0    0  503  502  0.00000000000E+00  0.00000000000E+00  0.12754862490E+03  0.12754862490E+03  0.00000000000E+00 0.  1.
         21   -1    0    0  501  503 -0.00000000000E+00 -0.00000000000E+00 -0.81142866837E+03  0.81142866837E+03  0.00000000000E+00 0.  1.
          6    1    1    2  501    0 -0.30943199118E+02  0.16038712703E+03 -0.65793783646E+03  0.69963755526E+03  0.17300000000E+03 0.  1.
         -6    1    1    2    0  502  0.30943199118E+02 -0.16038712703E+03 -0.25942207012E+02  0.23933973802E+03  0.17300000000E+03 0.  1.
</event>
<event>
 4    1  0.5959403E+000  0.1000000E+03  0.7546771E-02  0.1280296E+00
         21   -1    0    0  503  502  0.00000000000E+00  0.00000000000E+00  0.30512093495E+03  0.30512093495E+03  0.00000000000E+00 0.  1.
         21   -1    0    0  501  503 -0.00000000000E+00 -0.00000000000E+00 -0.15659965086E+03  0.15659965086E+03  0.00000000000E+00 0.  1.
          6    1    1    2  501    0  0.49197789960E+02  0.12175709446E+03  0.48227078318E+02  0.22248609770E+03  0.17300000000E+03 0.  1.
         -6    1    1    2    0  502 -0.49197789960E+02 -0.12175709446E+03  0.10029420577E+03  0.23923448810E+03  0.17300000000E+03 0.  1.
</event>
<event>
 4    1  0.5959403E+000  0.1000000E+03  0.7546771E-02  0.1280296E+00
         21   -1    0    0  501  502  0.00000000000E+00  0.00000000000E+00  0.21436209496E+03  0.21436209496E+03  0.00000000000E+00 0.  1.
         21   -1    0    0  502  503 -0.00000000000E+00 -0.00000000000E+00 -0.48458910541E+03  0.48458910541E+03  0.00000000000E+00 0.  1.
          6    1    1    2  501    0 -0.16390512799E+03 -0.13316056050E+03  0.50655914022E+02  0.27765382669E+03  0.17300000000E+03 0.  1.
         -6    1    1    2    0  503  0.16390512799E+03  0.13316056050E+03 -0.32088292447E+03  0.42129737368E+03  0.17300000000E+03 0.  1.
</event>
<event>
 4    1  0.5959403E+000  0.1000000E+03  0.7546771E-02  0.1280296E+00
         21   -1    0    0  501  502  0.00000000000E+00  0.00000000000E+00  0.11155145209E+03  0.11155145209E+03  0.00000000000E+00 0.  1.
         21   -1    0    0  502  503 -0.00000000000E+00 -0.00000000000E+00 -0.43861082409E+03  0.43861082409E+03  0.00000000000E+00 0.  1.
          6    1    1    2  501    0 -0.11545714710E+03 -0.46879527604E+02 -0.90266167476E+02  0.23152758781E+03  0.17300000000E+03 0.  1.
         -6    1    1    2    0  503  0.11545714710E+03  0.46879527604E+02 -0.23679320453E+03  0.31863468838E+03  0.17300000000E+03 0.  1.
</event>
<event>
 4    1  0.5959403E+000  0.1000000E+03  0.7546771E-02  0.1280296E+00
         21   -1    0    0  503  502  0.00000000000E+00  0.00000000000E+00  0.27925160836E+03  0.27925160836E+03  0.00000000000E+00 0. -1.
         21   -1    0    0  501  503 -0.00000000000E+00 -0.00000000000E+00 -0.23844448163E+03  0.23844448163E+03  0.00000000000E+00 0. -1.
          6    1    1    2  501    0 -0.93379895620E+01  0.13108353627E+03 -0.11926792003E+03  0.24783851250E+03  0.17300000000E+03 0. -1.
         -6    1    1    2    0  502  0.93379895620E+01 -0.13108353627E+03  0.16007504676E+03  0.26985757748E+03  0.17300000000E+03 0. -1.
</event>
<event>
 4    1  0.5959403E+000  0.1000000E+03  0.7546771E-02  0.1280296E+00
         21   -1    0    0  503  502  0.00000000000E+00  0.00000000000E+00  0.11762177124E+03  0.11762177124E+03  0.00000000000E+00 0. -1.
         21   -1    0    0  501  503 -0.00000000000E+00 -0.00000000000E+00 -0.92746905884E+03  0.92746905884E+03  0.00000000000E+00 0. -1.
          6    1    1    2  501    0  0.13563877694E+03  0.17287724882E+03 -0.68292630267E+03  0.73797137875E+03  0.17300000000E+03 0. -1.
         -6    1    1    2    0  502 -0.13563877694E+03 -0.17287724882E+03 -0.12692098494E+03  0.30711945133E+03  0.17300000000E+03 0. -1.
</event>
<event>
 4    1  0.5959403E+000  0.1000000E+03  0.7546771E-02  0.1280296E+00
         21   -1    0    0  503  502  0.00000000000E+00  0.00000000000E+00  0.40723146789E+02  0.40723146789E+02  0.00000000000E+00 0.  1.
         21   -1    0    0  501  503 -0.00000000000E+00 -0.00000000000E+00 -0.87219257103E+03  0.87219257103E+03  0.00000000000E+00 0. -1.
          6    1    1    2  501    0 -0.58103680298E+02  0.43341009472E+02 -0.46006094232E+03  0.49682949934E+03  0.17300000000E+03 0. -1.
         -6    1    1    2    0  502  0.58103680298E+02 -0.43341009472E+02 -0.37140848193E+03  0.41608621849E+03  0.17300000000E+03 0.  1.
</event>
<event>
 4    1  0.5959403E+000  0.1000000E+03  0.7546771E-02  0.1280296E+00
         21   -1    0    0  503  502  0.00000000000E+00  0.00000000000E+00  0.20023888498E+03  0.20023888498E+03  0.00000000000E+00 0.  1.
         21   -1    0    0  501  503 -0.00000000000E+00 -0.00000000000E+00 -0.35328828139E+03  0.35328828139E+03  0.00000000000E+00 0. -1.
          6    1    1    2  501    0  0.94477665301E+02 -0.11492586624E+03 -0.21874045479E+03  0.31608601761E+03  0.17300000000E+03 0. -1.
         -6    1    1    2    0  502 -0.94477665301E+02  0.11492586624E+03  0.65691058382E+02  0.23744114876E+03  0.17300000000E+03 0.  1.
</event>
<event>
 4    1  0.5959403E+000  0.1000000E+03  0.7546771E-02  0.1280296E+00
         21   -1    0    0  503  502  0.00000000000E+00  0.00000000000E+00  0.71720901672E+03  0.71720901672E+03  0.00000000000E+00 0. -1.
         21   -1    0    0  501  503 -0.00000000000E+00 -0.00000000000E+00 -0.99577055646E+02  0.99577055646E+02  0.00000000000E+00 0. -1.
          6    1    1    2  501    0  0.11554759831E+03  0.73901747336E+02  0.78694282041E+02  0.23438111221E+03  0.17300000000E+03 0. -1.
         -6    1    1    2    0  502 -0.11554759831E+03 -0.73901747336E+02  0.53893767904E+03  0.58240496016E+03  0.17300000000E+03 0. -1.
</event>
<event>
 4    1  0.5959403E+000  0.1000000E+03  0.7546771E-02  0.1280296E+00
         21   -1    0    0  503  502  0.00000000000E+00  0.00000000000E+00  0.21537255369E+03  0.21537255369E+03  0.00000000000E+00 0. -1.
         21   -1    0    0  501  503 -0.00000000000E+00 -0.00000000000E+00 -0.28479800295E+03  0.28479800295E+03  0.00000000000E+00 0. -1.
          6    1    1    2  501    0 -0.12518591973E+03 -0.73042353079E+02 -0.13769971022E+03  0.26438023760E+03  0.17300000000E+03 0. -1.
         -6    1    1    2    0  502  0.12518591973E+03  0.73042353079E+02  0.68274260958E+02  0.23579031904E+03  0.17300000000E+03 0. -1.
</event>
<event>
 4    1  0.5959403E+000  0.1000000E+03  0.7546771E-02  0.1280296E+00
         21   -1    0    0  501  502  0.00000000000E+00  0.00000000000E+00  0.43401000396E+03  0.43401000396E+03  0.00000000000E+00 0.  1.
         21   -1    0    0  502  503 -0.00000000000E+00 -0.00000000000E+00 -0.90410114014E+02  0.90410114014E+02  0.00000000000E+00 0. -1.
          6    1    1    2  501    0  0.55146579712E+02  0.68529571368E+02  0.22429022790E+03  0.29660167521E+03  0.17300000000E+03 0.  1.
         -6    1    1    2    0  503 -0.55146579712E+02 -0.68529571368E+02  0.11930966204E+03  0.22781844276E+03  0.17300000000E+03 0. -1.
</event>
<event>
 4    1  0.5959403E+000  0.1000000E+03  0.7546771E-02  0.1280296E+00
         21   -1    0    0  501  502  0.00000000000E+00  0.00000000000E+00  0.13776352898E+03  0.13776352898E+03  0.00000000000E+00 0. -1.
         21   -1    0    0  502  503 -0.00000000000E+00 -0.00000000000E+00 -0.30212339705E+03  0.30212339705E+03  0.00000000000E+00 0.  1.
          6    1    1    2  501    0 -0.66194257056E+02 -0.69772437257E+02 -0.28897022911E+02  0.20003477348E+03  0.17300000000E+03 0. -1.
         -6    1    1    2    0  503  0.66194257056E+02  0.69772437257E+02 -0.13546284516E+03  0.23985215256E+03  0.17300000000E+03 0.  1.
</event>
<event>
 4    1  0.5959403E+000  0.1000000E+03  0.7546771E-02  0.1280296E+00
         21   -1    0    0  501  502  0.00000000000E+00  0.00000000000E+00  0.46918352120E+02  0.46918352120E+02  0.00000000000E+00 0. -1.
         21   -1    0    0  502  503 -0.00000000000E+00 -0.00000000000E+00 -0.10878460254E+04  0.10878460254E+04  0.00000000000E+00 0.  1.
          6    1    1    2  501    0 -0.13380926349E+03 -0.36379283190E+02 -0.41149649313E+03  0.46742564660E+03  0.17300000000E+03 0. -1.
         -6    1    1    2    0  503  0.13380926349E+03  0.36379283190E+02 -0.62943118015E+03  0.66733873092E+03  0.17300000000E+03 0.  1.
</event>
<event>
 4    1  0.5959403E+000  0.1000000E+03  0.7546771E-02  0.1280296E+00
         21   -1    0    0  501  502  0.00000000000E+00  0.00000000000E+00  0.74815681774E+03  0.74815681774E+03  0.00000000000E+00 0. -1.
         21   -1    0    0  502  503 -0.00000000000E+00 -0.00000000000E+00 -0.90212875002E+02  0.90212875002E+02  0.00000000000E+00 0.  1.
          6    1    1    2  501    0 -0.35880271191E+02  0.46811839229E+02  0.62686524038E+03  0.65296843089E+03  0.17300000000E+03 0. -1.
         -6    1    1    2    0  503  0.35880271191E+02 -0.46811839229E+02  0.31078702357E+02  0.18540126184E+03  0.17300000000E+03 0.  1.
</event>
<event>
 4    1  0.5959403E+000  0.1000000E+03  0.7546771E-02  0.1280296E+00
         21   -1    0    0  501  502  0.00000000000E+00  0.00000000000E+00  0.37918906662E+03  0.37918906662E+03  0.00000000000E+00 0. -1.
         21   -1    0    0  502  503 -0.00000000000E+00 -0.00000000000E+00 -0.16111619557E+03  0.16111619557E+03  0.00000000000E+00 0.  1.
          6    1    1    2  501    0 -0.20994210404E+02 -0.17519870430E+03  0.11493821255E+03  0.27253465020E+03  0.17300000000E+03 0. -1.
         -6    1    1    2    0  503  0.20994210404E+02  0.17519870430E+03  0.10313465851E+03  0.26777061199E+03  0.17300000000E+03 0.  1.
</event>
<event>
 4    1  0.5959403E+000  0.1000000E+03  0.7546771E-02  0.1280296E+00
         21   -1    0    0  501  502  0.00000000000E+00  0.00000000000E+00  0.86271311483E+03  0.86271311483E+03  0.00000000000E+00 0. -1.
         21   -1    0    0  502  503 -0.00000000000E+00 -0.00000000000E+00 -0.12078001619E+03  0.12078001619E+03  0.00000000000E+00 0.  1.
          6    1    1    2  501    0 -0.36459639256E+02  0.16358784596E+03  0.69833277263E+03  0.73870694458E+03  0.17300000000E+03 0.  1.
         -6    1    1    2    0  503  0.36459639256E+02 -0.16358784596E+03  0.43600326015E+02  0.24478618644E+03  0.17300000000E+03 0. -1.
</event>
<event>
 4    1  0.5959403E+000  0.1000000E+03  0.7546771E-02  0.1280296E+00
         21   -1    0    0  501  502  0.00000000000E+00  0.00000000000E+00  0.46919955881E+03  0.46919955881E+03  0.00000000000E+00 0.  1.
         21   -1    0    0  502  503 -0.00000000000E+00 -0.00000000000E+00 -0.18870278373E+03  0.18870278373E+03  0.00000000000E+00 0.  1.
          6    1    1    2  501    0 -0.16518073462E+03 -0.10931366311E+03  0.29413356553E+03  0.39456014295E+03  0.17300000000E+03 0.  1.
         -6    1    1    2    0  503  0.16518073462E+03  0.10931366311E+03 -0.13636790449E+02  0.26334219959E+03  0.17300000000E+03 0.  1.
</event>
<event>
 4    1  0.5959403E+000  0.1000000E+03  0.7546771E-02  0.1280296E+00
         21   -1    0    0  501  502  0.00000000000E+00  0.00000000000E+00  0.10405062343E+03  0.10405062343E+03  0.00000000000E+00 0.  1.
         21   -1    0    0  502  503 -0.00000000000E+00 -0.00000000000E+00 -0.33828697812E+03  0.33828697812E+03  0.00000000000E+00 0.  1.
          6    1    1    2  501    0 -0.23214773596E+02  0.10991151421E+02 -0.19716067642E+03  0.26355466881E+03  0.17300000000E+03 0.  1.
         -6    1    1    2    0  503  0.23214773596E+02 -0.10991151421E+02 -0.37075678266E+02  0.17878293275E+03  0.17300000000E+03 0.  1.
</event>
<event>
 4    1  0.5959403E+000  0.1000000E+03  0.7546771E-02  0.1280296E+00
         21   -1    0    0  501  502  0.00000000000E+00  0.00000000000E+00  0.21784269332E+03  0.21784269332E+03  0.00000000000E+00 0.  1.
         21   -1    0    0  502  503 -0.00000000000E+00 -0.00000000000E+00 -0.38339472688E+03  0.38339472688E+03  0.00000000000E+00 0.  1.
          6    1    1    2  501    0  0.22501637732E+02  0.96658039066E+02  0.13477893354E+03  0.24071448054E+03  0.17300000000E+03 0.  1.
         -6    1    1    2    0  503 -0.22501637732E+02 -0.96658039066E+02 -0.30033096710E+03  0.36052293965E+03  0.17300000000E+03 0.  1.
</event>
<event>
 4    1  0.5959403E+000  0.1000000E+03  0.7546771E-02  0.1280296E+00
         21   -1    0    0  501  502  0.00000000000E+00  0.00000000000E+00  0.96322266899E+02  0.96322266899E+02  0.00000000000E+00 0. -1.
         21   -1    0    0  502  503 -0.00000000000E+00 -0.00000000000E+00 -0.54006144125E+03  0.54006144125E+03  0.00000000000E+00 0.  1.
          6    1    1    2  501    0 -0.70158659433E+01 -0.32313656910E+02 -0.19712761162E+02  0.17723145249E+03  0.17300000000E+03 0. -1.
         -6    1    1    2    0  503  0.70158659433E+01  0.32313656910E+02 -0.42402641319E+03  0.45915225566E+03  0.17300000000E+03 0.  1.
</event>
<event>
 4    1  0.5959403E+000  0.1000000E+03  0.7546771E-02  0.1280296E+00
         21   -1    0    0  501  502  0.00000000000E+00  0.00000000000E+00  0.70794608165E+03  0.70794608165E+03  0.00000000000E+00 0. -1.
         21   -1    0    0  502  503 -0.00000000000E+00 -0.00000000000E+00 -0.20546077764E+03  0.20546077764E+03  0.00000000000E+00 0.  1.
          6    1    1    2  501    0  0.87712784470E+02  0.12099366713E+03  0.61680521993E+03  0.65780747896E+03  0.17300000000E+03 0. -1.
         -6    1    1    2    0  503 -0.87712784470E+02 -0.12099366713E+03 -0.11431991593E+03  0.25559938033E+03  0.17300000000E+03 0.  1.
</event>
<event>
 4    1  0.5959403E+000  0.1000000E+03  0.7546771E-02  0.1280296E+00
         21   -1    0    0  501  502  0.00000000000E+00  0.00000000000E+00  0.41306866694E+03  0.41306866694E+03  0.00000000000E+00 0. -1.
         21   -1    0    0  502  503 -0.00000000000E+00 -0.00000000000E+00 -0.94554738405E+02  0.94554738405E+02  0.00000000000E+00 0.  1.
          6    1    1    2  501    0  0.79679209161E+02  0.17565873001E+02  0.95413213605E+02  0.21375223413E+03  0.17300000000E+03 0. -1.
         -6    1    1    2    0  503 -0.79679209161E+02 -0.17565873001E+02  0.22310071493E+03  0.29387117121E+03  0.17300000000E+03 0.  1.
</event>
<event>
 4    1  0.5959403E+000  0.1000000E+03  0.7546771E-02  0.1280296E+00
         21   -1    0    0  501  502  0.00000000000E+00  0.00000000000E+00  0.24988238655E+03  0.24988238655E+03  0.00000000000E+00 0. -1.
         21   -1    0    0  502  503 -0.00000000000E+00 -0.00000000000E+00 -0.25043699660E+03  0.25043699660E+03  0.00000000000E+00 0. -1.
          6    1    1    2  501    0 -0.45671067349E+02 -0.14863363955E+03  0.91771592860E+02  0.25005765426E+03  0.17300000000E+03 0. -1.
         -6    1    1    2    0  503  0.45671067349E+02  0.14863363955E+03 -0.92326202909E+02  0.25026172888E+03  0.17300000000E+03 0. -1.
</event>
<event>
 4    1  0.5959403E+000  0.1000000E+03  0.7546771E-02  0.1280296E+00
         21   -1    0    0  503  502  0.00000000000E+00  0.00000000000E+00  0.22280049284E+03  0.22280049284E+03  0.00000000000E+00 0. -1.
         21   -1    0    0  501  503 -0.00000000000E+00 -0.00000000000E+00 -0.15793949016E+03  0.15793949016E+03  0.00000000000E+00 0.  1.
          6    1    1    2  501    0  0.39550116519E+02 -0.13270451230E+02  0.92637450345E+02  0.20062655308E+03  0.17300000000E+03 0.  1.
         -6    1    1    2    0  502 -0.39550116519E+02  0.13270451230E+02 -0.27776447663E+02  0.18011342992E+03  0.17300000000E+03 0. -1.
</event>
<event>
 4    1  0.5959403E+000  0.1000000E+03  0.7546771E-02  0.1280296E+00
         21   -1    0    0  503  502  0.00000000000E+00  0.00000000000E+00  0.53776280878E+03  0.53776280878E+03  0.00000000000E+00 0. -1.
         21   -1    0    0  501  503 -0.00000000000E+00 -0.00000000000E+00 -0.19204109003E+03  0.19204109003E+03  0.00000000000E+00 0.  1.
          6    1    1    2  501    0 -0.24096730702E+02 -0.57693715618E+02 -0.12634553623E+03  0.22316229918E+03  0.17300000000E+03 0.  1.
         -6    1    1    2    0  502  0.24096730702E+02  0.57693715618E+02  0.47206725497E+03  0.50664159962E+03  0.17300000000E+03 0. -1.
</event>
<event>
 4    1  0.5959403E+000  0.1000000E+03  0.7546771E-02  0.1280296E+00
         21   -1    0    0  503  502  0.00000000000E+00  0.00000000000E+00  0.15157596405E+03  0.15157596405E+03  0.00000000000E+00 0. -1.
         21   -1    0    0  501  503 -0.00000000000E+00 -0.00000000000E+00 -0.23891414298E+03  0.23891414298E+03  0.00000000000E+00 0.  1.
          6    1    1    2  501    0 -0.84168836156E+01 -0.17232954059E+02 -0.12258929840E+03  0.21289658221E+03  0.17300000000E+03 0.  1.
         -6    1    1    2    0  502  0.84168836156E+01  0.17232954059E+02  0.35251119473E+02  0.17759352482E+03  0.17300000000E+03 0. -1.
</event>
<event>
 4    1  0.5959403E+000  0.1000000E+03  0.7546771E-02  0.1280296E+00
         21   -1    0    0  501  502  0.00000000000E+00  0.00000000000E+00  0.15981785911E+03  0.15981785911E+03  0.00000000000E+00 0. -1.
         21   -1    0    0  502  503 -0.00000000000E+00 -0.00000000000E+00 -0.23094179849E+03  0.23094179849E+03  0.00000000000E+00 0. -1.
          6    1    1    2  501    0  0.36958691285E+02 -0.43872471686E+02  0.26206005855E+02  0.18413715914E+03  0.17300000000E+03 0. -1.
         -6    1    1    2    0  503 -0.36958691285E+02  0.43872471686E+02 -0.97329945233E+02  0.20662249847E+03  0.17300000000E+03 0. -1.
</event>
<event>
 4    1  0.5959403E+000  0.1000000E+03  0.7546771E-02  0.1280296E+00
         21   -1    0    0  503  502  0.00000000000E+00  0.00000000000E+00  0.17940165621E+04  0.17940165621E+04  0.00000000000E+00 0.  1.
         21   -1    0    0  501  503 -0.00000000000E+00 -0.00000000000E+00 -0.79899755939E+02  0.79899755939E+02  0.00000000000E+00 0. -1.
          6    1    1    2  501    0  0.12250362358E+02 -0.67197269904E+01  0.24354566063E+02  0.17526371843E+03  0.17300000000E+03 0. -1.
         -6    1    1    2    0  502 -0.12250362358E+02  0.67197269904E+01  0.16897622401E+04  0.16986525996E+04  0.17300000000E+03 0. -1.
</event>
<event>
 4    1  0.5959403E+000  0.1000000E+03  0.7546771E-02  0.1280296E+00
         21   -1    0    0  503  502  0.00000000000E+00  0.00000000000E+00  0.21824986969E+04  0.21824986969E+04  0.00000000000E+00 0.  1.
         21   -1    0    0  501  503 -0.00000000000E+00 -0.00000000000E+00 -0.22675255082E+02  0.22675255082E+02  0.00000000000E+00 0. -1.
          6    1    1    2  501    0 -0.13920856071E+03  0.12098174041E+02  0.10508736293E+04  0.10741460673E+04  0.17300000000E+03 0. -1.
         -6    1    1    2    0  502  0.13920856071E+03 -0.12098174041E+02  0.11089498126E+04  0.11310278847E+04  0.17300000000E+03 0. -1.
</event>
<event>
 4    1  0.5959403E+000  0.1000000E+03  0.7546771E-02  0.1280296E+00
         21   -1    0    0  503  502  0.00000000000E+00  0.00000000000E+00  0.22407404983E+04  0.22407404983E+04  0.00000000000E+00 0.  1.
         21   -1    0    0  501  503 -0.00000000000E+00 -0.00000000000E+00 -0.37313132422E+02  0.37313132422E+02  0.00000000000E+00 0. -1.
          6    1    1    2  501    0  0.15450798395E+03  0.17253920989E+03  0.11258525775E+04  0.11623749492E+04  0.17300000000E+03 0. -1.
         -6    1    1    2    0  502 -0.15450798395E+03 -0.17253920989E+03  0.10775747883E+04  0.11156786816E+04  0.17300000000E+03 0.  1.
</event>
<event>
 4    1  0.5959403E+000  0.1000000E+03  0.7546771E-02  0.1280296E+00
         21   -1    0    0  503  502  0.00000000000E+00  0.00000000000E+00  0.24891983208E+04  0.24891983208E+04  0.00000000000E+00 0.  1.
         21   -1    0    0  501  503 -0.00000000000E+00 -0.00000000000E+00 -0.23277759728E+02  0.23277759728E+02  0.00000000000E+00 0. -1.
          6    1    1    2  501    0  0.78282858585E+02  0.88120797212E+02  0.61281088679E+03  0.64757985131E+03  0.17300000000E+03 0. -1.
         -6    1    1    2    0  502 -0.78282858585E+02 -0.88120797212E+02  0.18531096742E+04  0.18648962292E+04  0.17300000000E+03 0.  1.
</event>
<event>
 4    1  0.5959403E+000  0.1000000E+03  0.7546771E-02  0.1280296E+00
         21   -1    0    0  503  502  0.00000000000E+00  0.00000000000E+00  0.15292482320E+03  0.15292482320E+03  0.00000000000E+00 0. -1.
         21   -1    0    0  501  503 -0.00000000000E+00 -0.00000000000E+00 -0.21360694290E+04  0.21360694290E+04  0.00000000000E+00 0.  1.
          6    1    1    2  501    0  0.95957437749E+02 -0.47051548624E+02 -0.20611800001E+04  0.20711865369E+04  0.17300000000E+03 0.  1.
         -6    1    1    2    0  502 -0.95957437749E+02  0.47051548624E+02  0.78035394236E+02  0.21780771529E+03  0.17300000000E+03 0. -1.
</event>
<event>
 4    1  0.5959403E+000  0.1000000E+03  0.7546771E-02  0.1280296E+00
         21   -1    0    0  503  502  0.00000000000E+00  0.00000000000E+00  0.28366930215E+02  0.28366930215E+02  0.00000000000E+00 0.  1.
         21   -1    0    0  501  503 -0.00000000000E+00 -0.00000000000E+00 -0.14427370627E+04  0.14427370627E+04  0.00000000000E+00 0. -1.
          6    1    1    2  501    0  0.40762472497E+02 -0.28049784356E+02 -0.10433577594E+04  0.10587600218E+04  0.17300000000E+03 0.  1.
         -6    1    1    2    0  502 -0.40762472497E+02  0.28049784356E+02 -0.37101237305E+03  0.41234397112E+03  0.17300000000E+03 0. -1.
</event>
<event>
 4    1  0.5959403E+000  0.1000000E+03  0.7546771E-02  0.1280296E+00
         21   -1    0    0  503  502  0.00000000000E+00  0.00000000000E+00  0.18647089166E+03  0.18647089166E+03  0.00000000000E+00 0.  1.
         21   -1    0    0  501  503 -0.00000000000E+00 -0.00000000000E+00 -0.34417033568E+03  0.34417033568E+03  0.00000000000E+00 0. -1.
          6    1    1    2  501    0  0.13943685704E+03 -0.11700653446E+03 -0.43868922749E+02  0.25492479007E+03  0.17300000000E+03 0.  1.
         -6    1    1    2    0  502 -0.13943685704E+03  0.11700653446E+03 -0.11383052128E+03  0.27571643727E+03  0.17300000000E+03 0. -1.
</event>
<event>
 4    1  0.5959403E+000  0.1000000E+03  0.7546771E-02  0.1280296E+00
         21   -1    0    0  503  502  0.00000000000E+00  0.00000000000E+00  0.10909653858E+03  0.10909653858E+03  0.00000000000E+00 0. -1.
         21   -1    0    0  501  503 -0.00000000000E+00 -0.00000000000E+00 -0.45535506889E+03  0.45535506889E+03  0.00000000000E+00 0.  1.
          6    1    1    2  501    0  0.17012658091E+02  0.63359376752E+02 -0.33049406015E+03  0.37876003611E+03  0.17300000000E+03 0.  1.
         -6    1    1    2    0  502 -0.17012658091E+02 -0.63359376752E+02 -0.15764470156E+02  0.18569157137E+03  0.17300000000E+03 0. -1.
</event>
<event>
 4    1  0.5959403E+000  0.1000000E+03  0.7546771E-02  0.1280296E+00
         21   -1    0    0  501  502  0.00000000000E+00  0.00000000000E+00  0.32375149119E+03  0.32375149119E+03  0.00000000000E+00 0.  1.
         21   -1    0    0  502  503 -0.00000000000E+00 -0.00000000000E+00 -0.28786830103E+03  0.28786830103E+03  0.00000000000E+00 0. -1.
          6    1    1    2  501    0  0.69701234833E+02  0.22237979784E+03 -0.76867132183E+02  0.30024755226E+03  0.17300000000E+03 0.  1.
         -6    1    1    2    0  503 -0.69701234833E+02 -0.22237979784E+03  0.11275032234E+03  0.31137223996E+03  0.17300000000E+03 0. -1.
</event>
<event>
 4    1  0.5959403E+000  0.1000000E+03  0.7546771E-02  0.1280296E+00
         21   -1    0    0  501  502  0.00000000000E+00  0.00000000000E+00  0.52347203539E+03  0.52347203539E+03  0.00000000000E+00 0.  1.
         21   -1    0    0  502  503 -0.00000000000E+00 -0.00000000000E+00 -0.66223832180E+02  0.66223832180E+02  0.00000000000E+00 0. -1.
          6    1    1    2  501    0 -0.92919295663E+01  0.55060517858E+02  0.29234927409E+03  0.34426021937E+03  0.17300000000E+03 0.  1.
         -6    1    1    2    0  503  0.92919295663E+01 -0.55060517858E+02  0.16489892913E+03  0.24543564820E+03  0.17300000000E+03 0. -1.
</event>
<event>
 4    1  0.5959403E+000  0.1000000E+03  0.7546771E-02  0.1280296E+00
         21   -1    0    0  501  502  0.00000000000E+00  0.00000000000E+00  0.35191092308E+03  0.35191092308E+03  0.00000000000E+00 0.  1.
         21   -1    0    0  502  503 -0.00000000000E+00 -0.00000000000E+00 -0.23155920438E+03  0.23155920438E+03  0.00000000000E+00 0. -1.
          6    1    1    2  501    0 -0.32991632017E+02  0.85746202457E+02 -0.15203730481E+03  0.24796209604E+03  0.17300000000E+03 0.  1.
         -6    1    1    2    0  503  0.32991632017E+02 -0.85746202457E+02  0.27238902351E+03  0.33550803142E+03  0.17300000000E+03 0. -1.
</event>
<event>
 4    1  0.5959403E+000  0.1000000E+03  0.7546771E-02  0.1280296E+00
         21   -1    0    0  501  502  0.00000000000E+00  0.00000000000E+00  0.17857609238E+03  0.17857609238E+03  0.00000000000E+00 0.  1.
         21   -1    0    0  502  503 -0.00000000000E+00 -0.00000000000E+00 -0.24006161813E+03  0.24006161813E+03  0.00000000000E+00 0. -1.
          6    1    1    2  501    0 -0.10959319029E+03  0.22563521909E+02 -0.10012204321E+02  0.20627414795E+03  0.17300000000E+03 0.  1.
         -6    1    1    2    0  503  0.10959319029E+03 -0.22563521909E+02 -0.51473321428E+02  0.21236356255E+03  0.17300000000E+03 0. -1.
</event>
<event>
 4    1  0.5959403E+000  0.1000000E+03  0.7546771E-02  0.1280296E+00
         21   -1    0    0  501  502  0.00000000000E+00  0.00000000000E+00  0.31718744281E+03  0.31718744281E+03  0.00000000000E+00 0.  1.
         21   -1    0    0  502  503 -0.00000000000E+00 -0.00000000000E+00 -0.98556478964E+03  0.98556478964E+03  0.00000000000E+00 0. -1.
          6    1    1    2  501    0  0.24911486154E+03  0.10209184591E+03  0.19994060021E+03  0.37734096366E+03  0.17300000000E+03 0.  1.
         -6    1    1    2    0  503 -0.24911486154E+03 -0.10209184591E+03 -0.86831794704E+03  0.92541126878E+03  0.17300000000E+03 0. -1.
</event>
<event>
 4    1  0.5959403E+000  0.1000000E+03  0.7546771E-02  0.1280296E+00
         21   -1    0    0  501  502  0.00000000000E+00  0.00000000000E+00  0.55474810897E+02  0.55474810897E+02  0.00000000000E+00 0.  1.
         21   -1    0    0  502  503 -0.00000000000E+00 -0.00000000000E+00 -0.22205081783E+04  0.22205081783E+04  0.00000000000E+00 0. -1.
          6    1    1    2  501    0  0.10434865511E+03  0.22191619066E+03 -0.16725762741E+04  0.16992868593E+04  0.17300000000E+03 0.  1.
         -6    1    1    2    0  503 -0.10434865511E+03 -0.22191619066E+03 -0.49245709331E+03  0.57669612991E+03  0.17300000000E+03 0. -1.
</event>
<event>
 4    1  0.5959403E+000  0.1000000E+03  0.7546771E-02  0.1280296E+00
         21   -1    0    0  501  502  0.00000000000E+00  0.00000000000E+00  0.12520528029E+04  0.12520528029E+04  0.00000000000E+00 0. -1.
         21   -1    0    0  502  503 -0.00000000000E+00 -0.00000000000E+00 -0.10698266858E+03  0.10698266858E+03  0.00000000000E+00 0. -1.
          6    1    1    2  501    0 -0.31967131481E+03  0.36847581096E+02  0.53222129010E+03  0.64555092393E+03  0.17300000000E+03 0. -1.
         -6    1    1    2    0  503  0.31967131481E+03 -0.36847581096E+02  0.61284884422E+03  0.71348454756E+03  0.17300000000E+03 0. -1.
</event>
<event>
 4    1  0.5959403E+000  0.1000000E+03  0.7546771E-02  0.1280296E+00
         21   -1    0    0  501  502  0.00000000000E+00  0.00000000000E+00  0.36649822884E+03  0.36649822884E+03  0.00000000000E+00 0. -1.
         21   -1    0    0  502  503 -0.00000000000E+00 -0.00000000000E+00 -0.33026154732E+03  0.33026154732E+03  0.00000000000E+00 0. -1.
          6    1    1    2  501    0  0.15293752839E+03  0.11650738529E+02  0.27844303111E+03  0.36191870478E+03  0.17300000000E+03 0. -1.
         -6    1    1    2    0  503 -0.15293752839E+03 -0.11650738529E+02 -0.24220634958E+03  0.33484107137E+03  0.17300000000E+03 0. -1.
</event>
<event>
 4    1  0.5959403E+000  0.1000000E+03  0.7546771E-02  0.1280296E+00
         21   -1    0    0  501  502  0.00000000000E+00  0.00000000000E+00  0.10921508564E+04  0.10921508564E+04  0.00000000000E+00 0. -1.
         21   -1    0    0  502  503 -0.00000000000E+00 -0.00000000000E+00 -0.26556283587E+03  0.26556283587E+03  0.00000000000E+00 0. -1.
          6    1    1    2  501    0  0.65845701504E+01 -0.80025505864E+02  0.10481536608E+04  0.10653649773E+04  0.17300000000E+03 0. -1.
         -6    1    1    2    0  503 -0.65845701504E+01  0.80025505864E+02 -0.22156564032E+03  0.29234871494E+03  0.17300000000E+03 0. -1.
</event>
<event>
 4    1  0.5959403E+000  0.1000000E+03  0.7546771E-02  0.1280296E+00
         21   -1    0    0  503  502  0.00000000000E+00  0.00000000000E+00  0.15804872379E+03  0.15804872379E+03  0.00000000000E+00 0.  1.
         21   -1    0    0  501  503 -0.00000000000E+00 -0.00000000000E+00 -0.50042348545E+03  0.50042348545E+03  0.00000000000E+00 0.  1.
          6    1    1    2  501    0 -0.60627894068E+02 -0.60876243702E+02 -0.41048073242E+03  0.45365745919E+03  0.17300000000E+03 0.  1.
         -6    1    1    2    0  502  0.60627894068E+02  0.60876243702E+02  0.68105970758E+02  0.20481475005E+03  0.17300000000E+03 0.  1.
</event>
<event>
 4    1  0.5959403E+000  0.1000000E+03  0.7546771E-02  0.1280296E+00
         21   -1    0    0  503  502  0.00000000000E+00  0.00000000000E+00  0.39393121388E+03  0.39393121388E+03  0.00000000000E+00 0.  1.
         21   -1    0    0  501  503 -0.00000000000E+00 -0.00000000000E+00 -0.17509612066E+03  0.17509612066E+03  0.00000000000E+00 0.  1.
          6    1    1    2  501    0 -0.64421070274E+01  0.90919190055E+02 -0.80515150756E+02  0.21146983086E+03  0.17300000000E+03 0.  1.
         -6    1    1    2    0  502  0.64421070274E+01 -0.90919190055E+02  0.29935024398E+03  0.35755750368E+03  0.17300000000E+03 0.  1.
</event>
<event>
 4    1  0.5959403E+000  0.1000000E+03  0.7546771E-02  0.1280296E+00
         21   -1    0    0  503  502  0.00000000000E+00  0.00000000000E+00  0.30841194682E+03  0.30841194682E+03  0.00000000000E+00 0. -1.
         21   -1    0    0  501  503 -0.00000000000E+00 -0.00000000000E+00 -0.12839494728E+03  0.12839494728E+03  0.00000000000E+00 0. -1.
          6    1    1    2  501    0 -0.28551838268E+02  0.74807013065E+02  0.27359896502E+02  0.19258468425E+03  0.17300000000E+03 0. -1.
         -6    1    1    2    0  502  0.28551838268E+02 -0.74807013065E+02  0.15265710305E+03  0.24422220985E+03  0.17300000000E+03 0. -1.
</event>
<event>
 4    1  0.5959403E+000  0.1000000E+03  0.7546771E-02  0.1280296E+00
         21   -1    0    0  503  502  0.00000000000E+00  0.00000000000E+00  0.37148743984E+03  0.37148743984E+03  0.00000000000E+00 0. -1.
         21   -1    0    0  501  503 -0.00000000000E+00 -0.00000000000E+00 -0.97490199458E+02  0.97490199458E+02  0.00000000000E+00 0. -1.
          6    1    1    2  501    0 -0.14851809627E+02 -0.73368948953E+02  0.10477784775E+03  0.21566403571E+03  0.17300000000E+03 0. -1.
         -6    1    1    2    0  502  0.14851809627E+02  0.73368948953E+02  0.16921939263E+03  0.25331360359E+03  0.17300000000E+03 0. -1.
</event>
<event>
 4    1  0.5959403E+000  0.1000000E+03  0.7546771E-02  0.1280296E+00
         21   -1    0    0  501  502  0.00000000000E+00  0.00000000000E+00  0.11891665434E+03  0.11891665434E+03  0.00000000000E+00 0. -1.
         21   -1    0    0  502  503 -0.00000000000E+00 -0.00000000000E+00 -0.10137822920E+04  0.10137822920E+04  0.00000000000E+00 0.  1.
          6    1    1    2  501    0  0.20578284218E+03 -0.20909938008E+03 -0.33731624376E+03  0.47935412504E+03  0.17300000000E+03 0.  1.
         -6    1    1    2    0  503 -0.20578284218E+03  0.20909938008E+03 -0.55754939387E+03  0.65334482127E+03  0.17300000000E+03 0. -1.
</event>
<event>
 4    1  0.5959403E+000  0.1000000E+03  0.7546771E-02  0.1280296E+00
         21   -1    0    0  501  502  0.00000000000E+00  0.00000000000E+00  0.38774036310E+03  0.38774036310E+03  0.00000000000E+00 0. -1.
         21   -1    0    0  502  503 -0.00000000000E+00 -0.00000000000E+00 -0.26362573379E+03  0.26362573379E+03  0.00000000000E+00 0.  1.
          6    1    1    2  501    0 -0.15306466873E+03  0.21967761327E+03  0.87056968142E+02  0.33044661035E+03  0.17300000000E+03 0.  1.
         -6    1    1    2    0  503  0.15306466873E+03 -0.21967761327E+03  0.37057661171E+02  0.32091948654E+03  0.17300000000E+03 0. -1.
</event>
<event>
 4    1  0.5959403E+000  0.1000000E+03  0.7546771E-02  0.1280296E+00
         21   -1    0    0  501  502  0.00000000000E+00  0.00000000000E+00  0.61060331389E+03  0.61060331389E+03  0.00000000000E+00 0. -1.
         21   -1    0    0  502  503 -0.00000000000E+00 -0.00000000000E+00 -0.61920646809E+02  0.61920646809E+02  0.00000000000E+00 0.  1.
          6    1    1    2  501    0 -0.18422622467E+02  0.78558742827E+01  0.42389521651E+03  0.45827640389E+03  0.17300000000E+03 0. -1.
         -6    1    1    2    0  503  0.18422622467E+02 -0.78558742827E+01  0.12478745057E+03  0.21424755681E+03  0.17300000000E+03 0.  1.
</event>
<event>
 4    1  0.5959403E+000  0.1000000E+03  0.7546771E-02  0.1280296E+00
         21   -1    0    0  501  502  0.00000000000E+00  0.00000000000E+00  0.83227930605E+03  0.83227930605E+03  0.00000000000E+00 0. -1.
         21   -1    0    0  502  503 -0.00000000000E+00 -0.00000000000E+00 -0.29573380443E+03  0.29573380443E+03  0.00000000000E+00 0.  1.
          6    1    1    2  501    0  0.16007491871E+02  0.17242814872E+03  0.75885079112E+03  0.79735263808E+03  0.17300000000E+03 0. -1.
         -6    1    1    2    0  503 -0.16007491871E+02 -0.17242814872E+03 -0.22230528950E+03  0.33066047240E+03  0.17300000000E+03 0.  1.
</event>
<event>
 4    1  0.5959403E+000  0.1000000E+03  0.7546771E-02  0.1280296E+00
         21   -1    0    0  501  502  0.00000000000E+00  0.00000000000E+00  0.16341282665E+03  0.16341282665E+03  0.00000000000E+00 0. -1.
         21   -1    0    0  502  503 -0.00000000000E+00 -0.00000000000E+00 -0.33265839812E+03  0.33265839812E+03  0.00000000000E+00 0.  1.
          6    1    1    2  501    0 -0.12470439291E+03 -0.19648208378E+00  0.15628187364E+02  0.21383279556E+03  0.17300000000E+03 0. -1.
         -6    1    1    2    0  503  0.12470439291E+03  0.19648208378E+00 -0.18487375883E+03  0.28223842921E+03  0.17300000000E+03 0.  1.
</event>
<event>
 4    1  0.5959403E+000  0.1000000E+03  0.7546771E-02  0.1280296E+00
         21   -1    0    0  503  502  0.00000000000E+00  0.00000000000E+00  0.10238002231E+03  0.10238002231E+03  0.00000000000E+00 0.  1.
         21   -1    0    0  501  503 -0.00000000000E+00 -0.00000000000E+00 -0.48075613125E+03  0.48075613125E+03  0.00000000000E+00 0.  1.
          6    1    1    2  501    0 -0.94338491575E+02 -0.14829831211E+02 -0.32173048955E+03  0.37757010315E+03  0.17300000000E+03 0.  1.
         -6    1    1    2    0  502  0.94338491575E+02  0.14829831211E+02 -0.56645619388E+02  0.20556605041E+03  0.17300000000E+03 0.  1.
</event>
<event>
 4    1  0.5959403E+000  0.1000000E+03  0.7546771E-02  0.1280296E+00
         21   -1    0    0  503  502  0.00000000000E+00  0.00000000000E+00  0.36592866672E+03  0.36592866672E+03  0.00000000000E+00 0.  1.
         21   -1    0    0  501  503 -0.00000000000E+00 -0.00000000000E+00 -0.36232265683E+03  0.36232265683E+03  0.00000000000E+00 0.  1.
          6    1    1    2  501    0 -0.28562941222E+03  0.56278274335E+02 -0.13200387241E+03  0.36346310352E+03  0.17300000000E+03 0.  1.
         -6    1    1    2    0  502  0.28562941222E+03 -0.56278274335E+02  0.13560988230E+03  0.36478822002E+03  0.17300000000E+03 0.  1.
</event>
<event>
 4    1  0.5959403E+000  0.1000000E+03  0.7546771E-02  0.1280296E+00
         21   -1    0    0  503  502  0.00000000000E+00  0.00000000000E+00  0.44187810475E+03  0.44187810475E+03  0.00000000000E+00 0.  1.
         21   -1    0    0  501  503 -0.00000000000E+00 -0.00000000000E+00 -0.27720275668E+03  0.27720275668E+03  0.00000000000E+00 0.  1.
          6    1    1    2  501    0  0.75176940512E+01 -0.15691673775E+03 -0.18531604196E+03  0.29824555943E+03  0.17300000000E+03 0.  1.
         -6    1    1    2    0  502 -0.75176940512E+01  0.15691673775E+03  0.34999139003E+03  0.42083530200E+03  0.17300000000E+03 0.  1.
</event>
<event>
 4    1  0.5959403E+000  0.1000000E+03  0.7546771E-02  0.1280296E+00
         21   -1    0    0  503  502  0.00000000000E+00  0.00000000000E+00  0.97132074754E+02  0.97132074754E+02  0.00000000000E+00 0.  1.
         21   -1    0    0  501  503 -0.00000000000E+00 -0.00000000000E+00 -0.68298393745E+03  0.68298393745E+03  0.00000000000E+00 0.  1.
          6    1    1    2  501    0 -0.13686243657E+02 -0.16631245630E+03 -0.43306792194E+03  0.49530189925E+03  0.17300000000E+03 0.  1.
         -6    1    1    2    0  502  0.13686243657E+02  0.16631245630E+03 -0.15278394075E+03  0.28481411295E+03  0.17300000000E+03 0.  1.
</event>
<event>
 4    1  0.5959403E+000  0.1000000E+03  0.7546771E-02  0.1280296E+00
         21   -1    0    0  503  502  0.00000000000E+00  0.00000000000E+00  0.68732249090E+02  0.68732249090E+02  0.00000000000E+00 0.  1.
         21   -1    0    0  501  503 -0.00000000000E+00 -0.00000000000E+00 -0.17406326038E+04  0.17406326038E+04  0.00000000000E+00 0.  1.
          6    1    1    2  501    0 -0.25210556963E+02  0.62715703723E+02 -0.15991329096E+04  0.16098831927E+04  0.17300000000E+03 0.  1.
         -6    1    1    2    0  502  0.25210556963E+02 -0.62715703723E+02 -0.72767445126E+02  0.19948166017E+03  0.17300000000E+03 0.  1.
</event>
<event>
 4    1  0.5959403E+000  0.1000000E+03  0.7546771E-02  0.1280296E+00
         21   -1    0    0  501  502  0.00000000000E+00  0.00000000000E+00  0.25895748920E+03  0.25895748920E+03  0.00000000000E+00 0.  1.
         21   -1    0    0  502  503 -0.00000000000E+00 -0.00000000000E+00 -0.24552377206E+03  0.24552377206E+03  0.00000000000E+00 0.  1.
          6    1    1    2  501    0 -0.24510838860E+02 -0.32344627340E+02  0.18567767403E+03  0.25700613762E+03  0.17300000000E+03 0.  1.
         -6    1    1    2    0  503  0.24510838860E+02  0.32344627340E+02 -0.17224395689E+03  0.24747512365E+03  0.17300000000E+03 0.  1.
</event>
<event>
 4    1  0.5959403E+000  0.1000000E+03  0.7546771E-02  0.1280296E+00
         21   -1    0    0  501  502  0.00000000000E+00  0.00000000000E+00  0.69521007840E+02  0.69521007840E+02  0.00000000000E+00 0.  1.
         21   -1    0    0  502  503 -0.00000000000E+00 -0.00000000000E+00 -0.79940730623E+03  0.79940730623E+03  0.00000000000E+00 0. -1.
          6    1    1    2  501    0 -0.14735924190E+03 -0.55674499063E+02 -0.31177798249E+03  0.38980624211E+03  0.17300000000E+03 0.  1.
         -6    1    1    2    0  503  0.14735924190E+03  0.55674499063E+02 -0.41810831590E+03  0.47912207196E+03  0.17300000000E+03 0. -1.
</event>
<event>
 4    1  0.5959403E+000  0.1000000E+03  0.7546771E-02  0.1280296E+00
         21   -1    0    0  503  502  0.00000000000E+00  0.00000000000E+00  0.14995353381E+03  0.14995353381E+03  0.00000000000E+00 0.  1.
         21   -1    0    0  501  503 -0.00000000000E+00 -0.00000000000E+00 -0.77265413391E+03  0.77265413391E+03  0.00000000000E+00 0. -1.
          6    1    1    2  501    0  0.96178257348E+02  0.72669872653E+02 -0.67348612174E+03  0.70572212928E+03  0.17300000000E+03 0. -1.
         -6    1    1    2    0  502 -0.96178257348E+02 -0.72669872653E+02  0.50785521642E+02  0.21688553844E+03  0.17300000000E+03 0.  1.
</event>
<event>
 4    1  0.5959403E+000  0.1000000E+03  0.7546771E-02  0.1280296E+00
         21   -1    0    0  503  502  0.00000000000E+00  0.00000000000E+00  0.14658382099E+03  0.14658382099E+03  0.00000000000E+00 0. -1.
         21   -1    0    0  501  503 -0.00000000000E+00 -0.00000000000E+00 -0.22917164208E+03  0.22917164208E+03  0.00000000000E+00 0.  1.
          6    1    1    2  501    0  0.55525411870E+02  0.17285576868E+02 -0.24080355476E+02  0.18409434008E+03  0.17300000000E+03 0.  1.
         -6    1    1    2    0  502 -0.55525411870E+02 -0.17285576868E+02 -0.58507465618E+02  0.19166112299E+03  0.17300000000E+03 0. -1.
</event>
<event>
 4    1  0.5959403E+000  0.1000000E+03  0.7546771E-02  0.1280296E+00
         21   -1    0    0  503  502  0.00000000000E+00  0.00000000000E+00  0.13790146051E+03  0.13790146051E+03  0.00000000000E+00 0.  1.
         21   -1    0    0  501  503 -0.00000000000E+00 -0.00000000000E+00 -0.52791396902E+03  0.52791396902E+03  0.00000000000E+00 0. -1.
          6    1    1    2  501    0 -0.12806614665E+00 -0.18089885121E+03 -0.31929167492E+03  0.40570997577E+03  0.17300000000E+03 0. -1.
         -6    1    1    2    0  502  0.12806614665E+00  0.18089885121E+03 -0.70720833590E+02  0.26010545376E+03  0.17300000000E+03 0.  1.
</event>
<event>
 4    1  0.5959403E+000  0.1000000E+03  0.7546771E-02  0.1280296E+00
         21   -1    0    0  503  502  0.00000000000E+00  0.00000000000E+00  0.13034170194E+04  0.13034170194E+04  0.00000000000E+00 0.  1.
         21   -1    0    0  501  503 -0.00000000000E+00 -0.00000000000E+00 -0.11611745087E+03  0.11611745087E+03  0.00000000000E+00 0. -1.
          6    1    1    2  501    0 -0.30069276113E+03  0.56345085863E+01  0.27256909949E+03  0.44121513831E+03  0.17300000000E+03 0. -1.
         -6    1    1    2    0  502  0.30069276113E+03 -0.56345085863E+01  0.91473046905E+03  0.97831933196E+03  0.17300000000E+03 0.  1.
</event>
<event>
 4    1  0.5959403E+000  0.1000000E+03  0.7546771E-02  0.1280296E+00
         21   -1    0    0  501  502  0.00000000000E+00  0.00000000000E+00  0.29628242000E+03  0.29628242000E+03  0.00000000000E+00 0.  1.
         21   -1    0    0  502  503 -0.00000000000E+00 -0.00000000000E+00 -0.15058224691E+03  0.15058224691E+03  0.00000000000E+00 0.  1.
          6    1    1    2  501    0 -0.69395485739E+02  0.13135967811E+02  0.17701896783E+03  0.25739658518E+03  0.17300000000E+03 0.  1.
         -6    1    1    2    0  503  0.69395485739E+02 -0.13135967811E+02 -0.31318794739E+02  0.18946808173E+03  0.17300000000E+03 0.  1.
</event>
<event>
 4    1  0.5959403E+000  0.1000000E+03  0.7546771E-02  0.1280296E+00
         21   -1    0    0  501  502  0.00000000000E+00  0.00000000000E+00  0.14121732017E+02  0.14121732017E+02  0.00000000000E+00 0.  1.
         21   -1    0    0  502  503 -0.00000000000E+00 -0.00000000000E+00 -0.30237580041E+04  0.30237580041E+04  0.00000000000E+00 0.  1.
          6    1    1    2  501    0 -0.10149123605E+03 -0.37421092628E+01 -0.11404456129E+04  0.11579549518E+04  0.17300000000E+03 0.  1.
         -6    1    1    2    0  503  0.10149123605E+03  0.37421092628E+01 -0.18691906592E+04  0.18799247844E+04  0.17300000000E+03 0.  1.
</event>
<event>
 4    1  0.5959403E+000  0.1000000E+03  0.7546771E-02  0.1280296E+00
         21   -1    0    0  503  502  0.00000000000E+00  0.00000000000E+00  0.51013637324E+03  0.51013637324E+03  0.00000000000E+00 0.  1.
         21   -1    0    0  501  503 -0.00000000000E+00 -0.00000000000E+00 -0.10683704424E+03  0.10683704424E+03  0.00000000000E+00 0.  1.
          6    1    1    2  501    0  0.68717328977E+02 -0.93272197028E+02  0.62114645287E+02  0.21727632913E+03  0.17300000000E+03 0.  1.
         -6    1    1    2    0  502 -0.68717328977E+02  0.93272197028E+02  0.34118468371E+03  0.39969708835E+03  0.17300000000E+03 0.  1.
</event>
<event>
 4    1  0.5959403E+000  0.1000000E+03  0.7546771E-02  0.1280296E+00
         21   -1    0    0  503  502  0.00000000000E+00  0.00000000000E+00  0.61461144307E+03  0.61461144307E+03  0.00000000000E+00 0.  1.
         21   -1    0    0  501  503 -0.00000000000E+00 -0.00000000000E+00 -0.11607638634E+03  0.11607638634E+03  0.00000000000E+00 0.  1.
          6    1    1    2  501    0  0.66632068665E+02  0.47994216572E+02 -0.54178542600E+01  0.19157669624E+03  0.17300000000E+03 0.  1.
         -6    1    1    2    0  502 -0.66632068665E+02 -0.47994216572E+02  0.50395291099E+03  0.53911113316E+03  0.17300000000E+03 0.  1.
</event>
<event>
 4    1  0.5959403E+000  0.1000000E+03  0.7546771E-02  0.1280296E+00
         21   -1    0    0  503  502  0.00000000000E+00  0.00000000000E+00  0.77344299844E+02  0.77344299844E+02  0.00000000000E+00 0.  1.
         21   -1    0    0  501  503 -0.00000000000E+00 -0.00000000000E+00 -0.71814867593E+03  0.71814867593E+03  0.00000000000E+00 0.  1.
          6    1    1    2  501    0 -0.44792973266E+02  0.66830475402E+02 -0.55390377107E+03  0.58584222322E+03  0.17300000000E+03 0.  1.
         -6    1    1    2    0  502  0.44792973266E+02 -0.66830475402E+02 -0.86900605018E+02  0.20965075256E+03  0.17300000000E+03 0.  1.
</event>
<event>
 4    1  0.5959403E+000  0.1000000E+03  0.7546771E-02  0.1280296E+00
         21   -1    0    0  501  502  0.00000000000E+00  0.00000000000E+00  0.76170800578E+03  0.76170800578E+03  0.00000000000E+00 0. -1.
         21   -1    0    0  502  503 -0.00000000000E+00 -0.00000000000E+00 -0.22446562646E+03  0.22446562646E+03  0.00000000000E+00 0. -1.
          6    1    1    2  501    0  0.26645644609E+02 -0.58920640352E+02  0.70978816947E+03  0.73342339597E+03  0.17300000000E+03 0. -1.
         -6    1    1    2    0  503 -0.26645644609E+02  0.58920640352E+02 -0.17254579015E+03  0.25275023627E+03  0.17300000000E+03 0. -1.
</event>
<event>
 4    1  0.5959403E+000  0.1000000E+03  0.7546771E-02  0.1280296E+00
         21   -1    0    0  501  502  0.00000000000E+00  0.00000000000E+00  0.14376976049E+04  0.14376976049E+04  0.00000000000E+00 0. -1.
         21   -1    0    0  502  503 -0.00000000000E+00 -0.00000000000E+00 -0.39783376139E+02  0.39783376139E+02  0.00000000000E+00 0. -1.
          6    1    1    2  501    0  0.74281641685E+01  0.72865742687E+02  0.11561061718E+04  0.11712707093E+04  0.17300000000E+03 0. -1.
         -6    1    1    2    0  503 -0.74281641685E+01 -0.72865742687E+02  0.24180805693E+03  0.30621027167E+03  0.17300000000E+03 0. -1.
</event>
<event>
 4    1  0.5959403E+000  0.1000000E+03  0.7546771E-02  0.1280296E+00
         21   -1    0    0  501  502  0.00000000000E+00  0.00000000000E+00  0.23869408789E+03  0.23869408789E+03  0.00000000000E+00 0. -1.
         21   -1    0    0  502  503 -0.00000000000E+00 -0.00000000000E+00 -0.66437347224E+03  0.66437347224E+03  0.00000000000E+00 0. -1.
          6    1    1    2  501    0 -0.24376194209E+03  0.24432336040E+03 -0.10209575509E+03  0.39933235789E+03  0.17300000000E+03 0. -1.
         -6    1    1    2    0  503  0.24376194209E+03 -0.24432336040E+03 -0.32358362927E+03  0.50373520224E+03  0.17300000000E+03 0. -1.
</event>
<event>
 4    1  0.5959403E+000  0.1000000E+03  0.7546771E-02  0.1280296E+00
         21   -1    0    0  501  502  0.00000000000E+00  0.00000000000E+00  0.33096093589E+03  0.33096093589E+03  0.00000000000E+00 0. -1.
         21   -1    0    0  502  503 -0.00000000000E+00 -0.00000000000E+00 -0.44327836051E+03  0.44327836051E+03  0.00000000000E+00 0. -1.
          6    1    1    2  501    0 -0.36886046326E+02  0.14513039549E+02  0.28689266632E+03  0.33735383608E+03  0.17300000000E+03 0. -1.
         -6    1    1    2    0  503  0.36886046326E+02 -0.14513039549E+02 -0.39921009094E+03  0.43688546032E+03  0.17300000000E+03 0. -1.
</event>
<event>
 4    1  0.5959403E+000  0.1000000E+03  0.7546771E-02  0.1280296E+00
         21   -1    0    0  503  502  0.00000000000E+00  0.00000000000E+00  0.36515752536E+03  0.36515752536E+03  0.00000000000E+00 0. -1.
         21   -1    0    0  501  503 -0.00000000000E+00 -0.00000000000E+00 -0.12979673569E+03  0.12979673569E+03  0.00000000000E+00 0. -1.
          6    1    1    2  501    0  0.13651793839E+02  0.15875742613E+02 -0.30658706643E+02  0.17693887920E+03  0.17300000000E+03 0. -1.
         -6    1    1    2    0  502 -0.13651793839E+02 -0.15875742613E+02  0.26601949631E+03  0.31801538185E+03  0.17300000000E+03 0. -1.
</event>
<event>
 4    1  0.5959403E+000  0.1000000E+03  0.7546771E-02  0.1280296E+00
         21   -1    0    0  503  502  0.00000000000E+00  0.00000000000E+00  0.84984781684E+02  0.84984781684E+02  0.00000000000E+00 0. -1.
         21   -1    0    0  501  503 -0.00000000000E+00 -0.00000000000E+00 -0.59951678707E+03  0.59951678707E+03  0.00000000000E+00 0. -1.
          6    1    1    2  501    0 -0.10226542310E+03  0.85774480966E+02 -0.34310986046E+03  0.40677863106E+03  0.17300000000E+03 0. -1.
         -6    1    1    2    0  502  0.10226542310E+03 -0.85774480966E+02 -0.17142214493E+03  0.27772293769E+03  0.17300000000E+03 0. -1.
</event>
<event>
 4    1  0.5959403E+000  0.1000000E+03  0.7546771E-02  0.1280296E+00
         21   -1    0    0  503  502  0.00000000000E+00  0.00000000000E+00  0.53663504758E+03  0.53663504758E+03  0.00000000000E+00 0. -1.
         21   -1    0    0  501  503 -0.00000000000E+00 -0.00000000000E+00 -0.14526068591E+03  0.14526068591E+03  0.00000000000E+00 0. -1.
          6    1    1    2  501    0 -0.71162371406E+02 -0.18338381827E+03  0.77737116686E+02  0.27325037460E+03  0.17300000000E+03 0. -1.
         -6    1    1    2    0  502  0.71162371406E+02  0.18338381827E+03  0.31363724498E+03  0.40864535890E+03  0.17300000000E+03 0. -1.
</event>
<event>
 4    1  0.5959403E+000  0.1000000E+03  0.7546771E-02  0.1280296E+00
         21   -1    0    0  503  502  0.00000000000E+00  0.00000000000E+00  0.59732877679E+03  0.59732877679E+03  0.00000000000E+00 0. -1.
         21   -1    0    0  501  503 -0.00000000000E+00 -0.00000000000E+00 -0.80217153978E+02  0.80217153978E+02  0.00000000000E+00 0. -1.
          6    1    1    2  501    0 -0.28490273759E+02 -0.11549374055E+02  0.56520258842E+02  0.18457687667E+03  0.17300000000E+03 0. -1.
         -6    1    1    2    0  502  0.28490273759E+02  0.11549374055E+02  0.46059136397E+03  0.49296905410E+03  0.17300000000E+03 0. -1.
</event>
<event>
 4    1  0.5959403E+000  0.1000000E+03  0.7546771E-02  0.1280296E+00
         21   -1    0    0  503  502  0.00000000000E+00  0.00000000000E+00  0.31289342895E+03  0.31289342895E+03  0.00000000000E+00 0. -1.
         21   -1    0    0  501  503 -0.00000000000E+00 -0.00000000000E+00 -0.10590043156E+03  0.10590043156E+03  0.00000000000E+00 0. -1.
          6    1    1    2  501    0 -0.27285047200E+02  0.41147338655E+02  0.71597396939E+02  0.19363048450E+03  0.17300000000E+03 0.  1.
         -6    1    1    2    0  502  0.27285047200E+02 -0.41147338655E+02  0.13539560045E+03  0.22516337602E+03  0.17300000000E+03 0.  1.
</event>
<event>
 4    1  0.5959403E+000  0.1000000E+03  0.7546771E-02  0.1280296E+00
         21   -1    0    0  503  502  0.00000000000E+00  0.00000000000E+00  0.84061112210E+03  0.84061112210E+03  0.00000000000E+00 0. -1.
         21   -1    0    0  501  503 -0.00000000000E+00 -0.00000000000E+00 -0.45691478006E+02  0.45691478006E+02  0.00000000000E+00 0. -1.
          6    1    1    2  501    0  0.84663608890E+02 -0.29562333623E+02  0.44477794231E+03  0.48559064674E+03  0.17300000000E+03 0.  1.
         -6    1    1    2    0  502 -0.84663608890E+02  0.29562333623E+02  0.35014170179E+03  0.40071195336E+03  0.17300000000E+03 0.  1.
</event>
<event>
 4    1  0.5959403E+000  0.1000000E+03  0.7546771E-02  0.1280296E+00
         21   -1    0    0  501  502  0.00000000000E+00  0.00000000000E+00  0.48906930873E+02  0.48906930873E+02  0.00000000000E+00 0. -1.
         21   -1    0    0  502  503 -0.00000000000E+00 -0.00000000000E+00 -0.93371346654E+03  0.93371346654E+03  0.00000000000E+00 0. -1.
          6    1    1    2  501    0 -0.15747949379E+02 -0.11662889263E+03 -0.34256262443E+03  0.40140808184E+03  0.17300000000E+03 0. -1.
         -6    1    1    2    0  503  0.15747949379E+02  0.11662889263E+03 -0.54224391123E+03  0.58121231557E+03  0.17300000000E+03 0. -1.
</event>
<event>
 4    1  0.5959403E+000  0.1000000E+03  0.7546771E-02  0.1280296E+00
         21   -1    0    0  501  502  0.00000000000E+00  0.00000000000E+00  0.49113482815E+03  0.49113482815E+03  0.00000000000E+00 0. -1.
         21   -1    0    0  502  503 -0.00000000000E+00 -0.00000000000E+00 -0.86734839959E+02  0.86734839959E+02  0.00000000000E+00 0. -1.
          6    1    1    2  501    0  0.76614807043E+02  0.29607867187E+02  0.30993958171E+03  0.36433226425E+03  0.17300000000E+03 0. -1.
         -6    1    1    2    0  503 -0.76614807043E+02 -0.29607867187E+02  0.94460406481E+02  0.21353740387E+03  0.17300000000E+03 0. -1.
</event>
<event>
 4    1  0.5959403E+000  0.1000000E+03  0.7546771E-02  0.1280296E+00
         21   -1    0    0  501  502  0.00000000000E+00  0.00000000000E+00  0.14239030056E+04  0.14239030056E+04  0.00000000000E+00 0. -1.
         21   -1    0    0  502  503 -0.00000000000E+00 -0.00000000000E+00 -0.35484840568E+02  0.35484840568E+02  0.00000000000E+00 0.  1.
          6    1    1    2  501    0 -0.39545015541E+02  0.66209106439E+02  0.30128778104E+03  0.35588029032E+03  0.17300000000E+03 0. -1.
         -6    1    1    2    0  503  0.39545015541E+02 -0.66209106439E+02  0.10871303840E+04  0.11035075558E+04  0.17300000000E+03 0.  1.
</event>
<event>
 4    1  0.5959403E+000  0.1000000E+03  0.7546771E-02  0.1280296E+00
         21   -1    0    0  501  502  0.00000000000E+00  0.00000000000E+00  0.15389739053E+04  0.15389739053E+04  0.00000000000E+00 0. -1.
         21   -1    0    0  502  503 -0.00000000000E+00 -0.00000000000E+00 -0.13515387139E+03  0.13515387139E+03  0.00000000000E+00 0.  1.
          6    1    1    2  501    0 -0.50794227182E+02 -0.14954206476E+03  0.14201238534E+04  0.14393136009E+04  0.17300000000E+03 0. -1.
         -6    1    1    2    0  503  0.50794227182E+02  0.14954206476E+03 -0.16303819474E+02  0.23481417584E+03  0.17300000000E+03 0.  1.
</event>
<event>
 4    1  0.5959403E+000  0.1000000E+03  0.7546771E-02  0.1280296E+00
         21   -1    0    0  501  502  0.00000000000E+00  0.00000000000E+00  0.31465257411E+03  0.31465257411E+03  0.00000000000E+00 0. -1.
         21   -1    0    0  502  503 -0.00000000000E+00 -0.00000000000E+00 -0.14415711598E+03  0.14415711598E+03  0.00000000000E+00 0.  1.
          6    1    1    2  501    0  0.57923843755E+02 -0.10516917053E+03  0.50936697693E+02  0.21665473287E+03  0.17300000000E+03 0. -1.
         -6    1    1    2    0  503 -0.57923843755E+02  0.10516917053E+03  0.11955876044E+03  0.24215495721E+03  0.17300000000E+03 0.  1.
</event>
<event>
 4    1  0.5959403E+000  0.1000000E+03  0.7546771E-02  0.1280296E+00
         21   -1    0    0  501  502  0.00000000000E+00  0.00000000000E+00  0.47068572488E+02  0.47068572488E+02  0.00000000000E+00 0.  1.
         21   -1    0    0  502  503 -0.00000000000E+00 -0.00000000000E+00 -0.10307095161E+04  0.10307095161E+04  0.00000000000E+00 0. -1.
          6    1    1    2  501    0  0.53176109042E+02 -0.11124669814E+03 -0.34954817607E+03  0.40904333977E+03  0.17300000000E+03 0.  1.
         -6    1    1    2    0  503 -0.53176109042E+02  0.11124669814E+03 -0.63409276753E+03  0.66873474880E+03  0.17300000000E+03 0.  1.
</event>
<event>
 4    1  0.5959403E+000  0.1000000E+03  0.7546771E-02  0.1280296E+00
         21   -1    0    0  501  502  0.00000000000E+00  0.00000000000E+00  0.32317280595E+03  0.32317280595E+03  0.00000000000E+00 0.  1.
         21   -1    0    0  502  503 -0.00000000000E+00 -0.00000000000E+00 -0.13658450153E+03  0.13658450153E+03  0.00000000000E+00 0.  1.
          6    1    1    2  501    0  0.93791495411E+02 -0.65431055838E+02  0.13012896925E+03  0.24482772783E+03  0.17300000000E+03 0.  1.
         -6    1    1    2    0  503 -0.93791495411E+02  0.65431055838E+02  0.56459335172E+02  0.21492957965E+03  0.17300000000E+03 0.  1.
</event>
<event>
 4    1  0.5959403E+000  0.1000000E+03  0.7546771E-02  0.1280296E+00
         21   -1    0    0  501  502  0.00000000000E+00  0.00000000000E+00  0.28944893341E+02  0.28944893341E+02  0.00000000000E+00 0. -1.
         21   -1    0    0  502  503 -0.00000000000E+00 -0.00000000000E+00 -0.17111415744E+04  0.17111415744E+04  0.00000000000E+00 0. -1.
          6    1    1    2  501    0  0.11949894032E+03 -0.49822419100E+02 -0.63284935443E+03  0.66872234566E+03  0.17300000000E+03 0. -1.
         -6    1    1    2    0  503 -0.11949894032E+03  0.49822419100E+02 -0.10493473267E+04  0.10713641221E+04  0.17300000000E+03 0. -1.
</event>
<event>
 4    1  0.5959403E+000  0.1000000E+03  0.7546771E-02  0.1280296E+00
         21   -1    0    0  501  502  0.00000000000E+00  0.00000000000E+00  0.87094612603E+02  0.87094612603E+02  0.00000000000E+00 0. -1.
         21   -1    0    0  502  503 -0.00000000000E+00 -0.00000000000E+00 -0.69355657382E+03  0.69355657382E+03  0.00000000000E+00 0. -1.
          6    1    1    2  501    0  0.38160374607E+01  0.14597099201E+03 -0.15128309265E+03  0.27228232916E+03  0.17300000000E+03 0. -1.
         -6    1    1    2    0  503 -0.38160374607E+01 -0.14597099201E+03 -0.45517886857E+03  0.50836885727E+03  0.17300000000E+03 0. -1.
</event>
<event>
 4    1  0.5959403E+000  0.1000000E+03  0.7546771E-02  0.1280296E+00
         21   -1    0    0  501  502  0.00000000000E+00  0.00000000000E+00  0.10056570339E+04  0.10056570339E+04  0.00000000000E+00 0. -1.
         21   -1    0    0  502  503 -0.00000000000E+00 -0.00000000000E+00 -0.18943763784E+03  0.18943763784E+03  0.00000000000E+00 0. -1.
          6    1    1    2  501    0 -0.97429871502E+02 -0.15315627857E+02  0.93984000660E+03  0.96070567101E+03  0.17300000000E+03 0. -1.
         -6    1    1    2    0  503  0.97429871502E+02  0.15315627857E+02 -0.12362061053E+03  0.23438900073E+03  0.17300000000E+03 0. -1.
</event>
<event>
 4    1  0.5959403E+000  0.1000000E+03  0.7546771E-02  0.1280296E+00
         21   -1    0    0  501  502  0.00000000000E+00  0.00000000000E+00  0.87536129126E+02  0.87536129126E+02  0.00000000000E+00 0. -1.
         21   -1    0    0  502  503 -0.00000000000E+00 -0.00000000000E+00 -0.89947093804E+03  0.89947093804E+03  0.00000000000E+00 0. -1.
          6    1    1    2  501    0 -0.17451441678E+03  0.13525878876E+03 -0.41924361309E+03  0.50442484943E+03  0.17300000000E+03 0. -1.
         -6    1    1    2    0  503  0.17451441678E+03 -0.13525878876E+03 -0.39269119582E+03  0.48258221774E+03  0.17300000000E+03 0. -1.
</event>
<event>
 4    1  0.5959403E+000  0.1000000E+03  0.7546771E-02  0.1280296E+00
         21   -1    0    0  501  502  0.00000000000E+00  0.00000000000E+00  0.50253104800E+02  0.50253104800E+02  0.00000000000E+00 0. -1.
         21   -1    0    0  502  503 -0.00000000000E+00 -0.00000000000E+00 -0.11570120349E+04  0.11570120349E+04  0.00000000000E+00 0. -1.
          6    1    1    2  501    0 -0.32591842170E+02 -0.16199669750E+03 -0.47789228277E+03  0.53442978220E+03  0.17300000000E+03 0. -1.
         -6    1    1    2    0  503  0.32591842170E+02  0.16199669750E+03 -0.62886664737E+03  0.67283535754E+03  0.17300000000E+03 0. -1.
</event>
<event>
 4    1  0.5959403E+000  0.1000000E+03  0.7546771E-02  0.1280296E+00
         21   -1    0    0  503  502  0.00000000000E+00  0.00000000000E+00  0.23273133109E+03  0.23273133109E+03  0.00000000000E+00 0. -1.
         21   -1    0    0  501  503 -0.00000000000E+00 -0.00000000000E+00 -0.54995991541E+03  0.54995991541E+03  0.00000000000E+00 0. -1.
          6    1    1    2  501    0 -0.56018326082E+02  0.44371398879E+02 -0.49212413379E+03  0.52651879069E+03  0.17300000000E+03 0. -1.
         -6    1    1    2    0  502  0.56018326082E+02 -0.44371398879E+02  0.17489554946E+03  0.25617245581E+03  0.17300000000E+03 0. -1.
</event>
<event>
 4    1  0.5959403E+000  0.1000000E+03  0.7546771E-02  0.1280296E+00
         21   -1    0    0  501  502  0.00000000000E+00  0.00000000000E+00  0.16059490295E+04  0.16059490295E+04  0.00000000000E+00 0.  1.
         21   -1    0    0  502  503 -0.00000000000E+00 -0.00000000000E+00 -0.28765314170E+02  0.28765314170E+02  0.00000000000E+00 0.  1.
          6    1    1    2  501    0 -0.15721784607E+02  0.12278632844E+03  0.90536976850E+03  0.93002530862E+03  0.17300000000E+03 0.  1.
         -6    1    1    2    0  503  0.15721784607E+02 -0.12278632844E+03  0.67181394686E+03  0.70468903508E+03  0.17300000000E+03 0.  1.
</event>
<event>
 4    1  0.5959403E+000  0.1000000E+03  0.7546771E-02  0.1280296E+00
         21   -1    0    0  501  502  0.00000000000E+00  0.00000000000E+00  0.78005001532E+02  0.78005001532E+02  0.00000000000E+00 0.  1.
         21   -1    0    0  502  503 -0.00000000000E+00 -0.00000000000E+00 -0.83974504550E+03  0.83974504550E+03  0.00000000000E+00 0.  1.
          6    1    1    2  501    0  0.14603793648E+03 -0.24543905925E+02 -0.17143009897E+03  0.28503817471E+03  0.17300000000E+03 0.  1.
         -6    1    1    2    0  503 -0.14603793648E+03  0.24543905925E+02 -0.59030994500E+03  0.63271187232E+03  0.17300000000E+03 0.  1.
</event>
<event>
 4    1  0.5959403E+000  0.1000000E+03  0.7546771E-02  0.1280296E+00
         21   -1    0    0  501  502  0.00000000000E+00  0.00000000000E+00  0.86905435665E+02  0.86905435665E+02  0.00000000000E+00 0.  1.
         21   -1    0    0  502  503 -0.00000000000E+00 -0.00000000000E+00 -0.59251366566E+03  0.59251366566E+03  0.00000000000E+00 0.  1.
          6    1    1    2  501    0  0.95842077496E+02  0.10166049948E+02 -0.86945177635E+02  0.21628110482E+03  0.17300000000E+03 0.  1.
         -6    1    1    2    0  503 -0.95842077496E+02 -0.10166049948E+02 -0.41866305236E+03  0.46313799650E+03  0.17300000000E+03 0.  1.
</event>
<event>
 4    1  0.5959403E+000  0.1000000E+03  0.7546771E-02  0.1280296E+00
         21   -1    0    0  501  502  0.00000000000E+00  0.00000000000E+00  0.98902892010E+03  0.98902892010E+03  0.00000000000E+00 0.  1.
         21   -1    0    0  502  503 -0.00000000000E+00 -0.00000000000E+00 -0.89823871843E+02  0.89823871843E+02  0.00000000000E+00 0.  1.
          6    1    1    2  501    0 -0.12141346284E+03  0.19918567074E+02  0.82824311929E+03  0.85501675008E+03  0.17300000000E+03 0.  1.
         -6    1    1    2    0  503  0.12141346284E+03 -0.19918567074E+02  0.70961928966E+02  0.22383604186E+03  0.17300000000E+03 0.  1.
</event>
<event>
 4    1  0.5959403E+000  0.1000000E+03  0.7546771E-02  0.1280296E+00
         21   -1    0    0  501  502  0.00000000000E+00  0.00000000000E+00  0.14745378916E+04  0.14745378916E+04  0.00000000000E+00 0.  1.
         21   -1    0    0  502  503 -0.00000000000E+00 -0.00000000000E+00 -0.26534470180E+02  0.26534470180E+02  0.00000000000E+00 0. -1.
          6    1    1    2  501    0 -0.63655484856E+02  0.32421958198E+02  0.96677778266E+03  0.98472914305E+03  0.17300000000E+03 0.  1.
         -6    1    1    2    0  503  0.63655484856E+02 -0.32421958198E+02  0.48122563872E+03  0.51634321869E+03  0.17300000000E+03 0. -1.
</event>
<event>
 4    1  0.5959403E+000  0.1000000E+03  0.7546771E-02  0.1280296E+00
         21   -1    0    0  501  502  0.00000000000E+00  0.00000000000E+00  0.31282205283E+03  0.31282205283E+03  0.00000000000E+00 0.  1.
         21   -1    0    0  502  503 -0.00000000000E+00 -0.00000000000E+00 -0.11398262106E+03  0.11398262106E+03  0.00000000000E+00 0. -1.
          6    1    1    2  501    0  0.23137034147E+02  0.32131464715E+02  0.26532225916E+02  0.17944556942E+03  0.17300000000E+03 0.  1.
         -6    1    1    2    0  503 -0.23137034147E+02 -0.32131464715E+02  0.17230720586E+03  0.24735910447E+03  0.17300000000E+03 0. -1.
</event>
<event>
 4    1  0.5959403E+000  0.1000000E+03  0.7546771E-02  0.1280296E+00
         21   -1    0    0  503  502  0.00000000000E+00  0.00000000000E+00  0.90745175118E+03  0.90745175118E+03  0.00000000000E+00 0.  1.
         21   -1    0    0  501  503 -0.00000000000E+00 -0.00000000000E+00 -0.38434137840E+02  0.38434137840E+02  0.00000000000E+00 0.  1.
          6    1    1    2  501    0  0.78871659646E+01 -0.65542255162E+01  0.25827311475E+03  0.31102920612E+03  0.17300000000E+03 0.  1.
         -6    1    1    2    0  502 -0.78871659646E+01  0.65542255162E+01  0.61074449859E+03  0.63485668290E+03  0.17300000000E+03 0.  1.
</event>
<event>
 4    1  0.5959403E+000  0.1000000E+03  0.7546771E-02  0.1280296E+00
         21   -1    0    0  503  502  0.00000000000E+00  0.00000000000E+00  0.76671653178E+02  0.76671653178E+02  0.00000000000E+00 0.  1.
         21   -1    0    0  501  503 -0.00000000000E+00 -0.00000000000E+00 -0.63319735850E+03  0.63319735850E+03  0.00000000000E+00 0.  1.
          6    1    1    2  501    0 -0.18218278313E+02 -0.16415476380E+02 -0.49449164619E+03  0.52445434661E+03  0.17300000000E+03 0.  1.
         -6    1    1    2    0  502  0.18218278313E+02  0.16415476380E+02 -0.62034059135E+02  0.18541466507E+03  0.17300000000E+03 0.  1.
</event>
<event>
 4    1  0.5959403E+000  0.1000000E+03  0.7546771E-02  0.1280296E+00
         21   -1    0    0  503  502  0.00000000000E+00  0.00000000000E+00  0.88725777773E+03  0.88725777773E+03  0.00000000000E+00 0.  1.
         21   -1    0    0  501  503 -0.00000000000E+00 -0.00000000000E+00 -0.88574131959E+02  0.88574131959E+02  0.00000000000E+00 0.  1.
          6    1    1    2  501    0  0.18237353533E+03 -0.10389255984E+03  0.51745447725E+03  0.58458695368E+03  0.17300000000E+03 0.  1.
         -6    1    1    2    0  502 -0.18237353533E+03  0.10389255984E+03  0.28122916852E+03  0.39124495601E+03  0.17300000000E+03 0.  1.
</event>
<event>
 4    1  0.5959403E+000  0.1000000E+03  0.7546771E-02  0.1280296E+00
         21   -1    0    0  501  502  0.00000000000E+00  0.00000000000E+00  0.26575211186E+04  0.26575211186E+04  0.00000000000E+00 0.  1.
         21   -1    0    0  502  503 -0.00000000000E+00 -0.00000000000E+00 -0.14331675494E+02  0.14331675494E+02  0.00000000000E+00 0.  1.
          6    1    1    2  501    0  0.65263217228E+02  0.46594479059E+02  0.10370884772E+04  0.10544723053E+04  0.17300000000E+03 0.  1.
         -6    1    1    2    0  503 -0.65263217228E+02 -0.46594479059E+02  0.16061009659E+04  0.16173804888E+04  0.17300000000E+03 0.  1.
</event>
<event>
 4    1  0.5959403E+000  0.1000000E+03  0.7546771E-02  0.1280296E+00
         21   -1    0    0  503  502  0.00000000000E+00  0.00000000000E+00  0.35367262970E+02  0.35367262970E+02  0.00000000000E+00 0.  1.
         21   -1    0    0  501  503 -0.00000000000E+00 -0.00000000000E+00 -0.20385255256E+04  0.20385255256E+04  0.00000000000E+00 0.  1.
          6    1    1    2  501    0 -0.34325806034E+02 -0.99725561807E+02 -0.16820204461E+04  0.16941798103E+04  0.17300000000E+03 0.  1.
         -6    1    1    2    0  502  0.34325806034E+02  0.99725561807E+02 -0.32113781653E+03  0.37971297824E+03  0.17300000000E+03 0.  1.
</event>
<event>
 4    1  0.5959403E+000  0.1000000E+03  0.7546771E-02  0.1280296E+00
         21   -1    0    0  503  502  0.00000000000E+00  0.00000000000E+00  0.27981799051E+02  0.27981799051E+02  0.00000000000E+00 0.  1.
         21   -1    0    0  501  503 -0.00000000000E+00 -0.00000000000E+00 -0.12367700560E+04  0.12367700560E+04  0.00000000000E+00 0.  1.
          6    1    1    2  501    0  0.54298745489E+02 -0.23891244399E+02 -0.72011644291E+03  0.74297768248E+03  0.17300000000E+03 0.  1.
         -6    1    1    2    0  502 -0.54298745489E+02  0.23891244399E+02 -0.48867181402E+03  0.52177417255E+03  0.17300000000E+03 0.  1.
</event>
<event>
 4    1  0.5959403E+000  0.1000000E+03  0.7546771E-02  0.1280296E+00
         21   -1    0    0  503  502  0.00000000000E+00  0.00000000000E+00  0.19070390243E+04  0.19070390243E+04  0.00000000000E+00 0.  1.
         21   -1    0    0  501  503 -0.00000000000E+00 -0.00000000000E+00 -0.12878274849E+03  0.12878274849E+03  0.00000000000E+00 0.  1.
          6    1    1    2  501    0  0.32309916131E+03  0.22110017565E+03  0.37609432775E+03  0.56978443211E+03  0.17300000000E+03 0.  1.
         -6    1    1    2    0  502 -0.32309916131E+03 -0.22110017565E+03  0.14021619481E+04  0.14660373407E+04  0.17300000000E+03 0.  1.
</event>
<event>
 4    1  0.5959403E+000  0.1000000E+03  0.7546771E-02  0.1280296E+00
         21   -1    0    0  501  502  0.00000000000E+00  0.00000000000E+00  0.40033673163E+03  0.40033673163E+03  0.00000000000E+00 0. -1.
         21   -1    0    0  502  503 -0.00000000000E+00 -0.00000000000E+00 -0.10401158354E+03  0.10401158354E+03  0.00000000000E+00 0. -1.
          6    1    1    2  501    0  0.95874054348E+02  0.50035826025E+02  0.15298680853E+03  0.25500859156E+03  0.17300000000E+03 0. -1.
         -6    1    1    2    0  503 -0.95874054348E+02 -0.50035826025E+02  0.14333833955E+03  0.24933972361E+03  0.17300000000E+03 0. -1.
</event>
<event>
 4    1  0.5959403E+000  0.1000000E+03  0.7546771E-02  0.1280296E+00
         21   -1    0    0  503  502  0.00000000000E+00  0.00000000000E+00  0.10651563085E+03  0.10651563085E+03  0.00000000000E+00 0. -1.
         21   -1    0    0  501  503 -0.00000000000E+00 -0.00000000000E+00 -0.43668027797E+03  0.43668027797E+03  0.00000000000E+00 0.  1.
          6    1    1    2  501    0  0.60664107274E+02 -0.16005325485E+02 -0.23454538531E+02  0.18551393407E+03  0.17300000000E+03 0.  1.
         -6    1    1    2    0  502 -0.60664107274E+02  0.16005325485E+02 -0.30671010859E+03  0.35768197475E+03  0.17300000000E+03 0. -1.
</event>
<event>
 4    1  0.5959403E+000  0.1000000E+03  0.7546771E-02  0.1280296E+00
         21   -1    0    0  503  502  0.00000000000E+00  0.00000000000E+00  0.37354185422E+03  0.37354185422E+03  0.00000000000E+00 0. -1.
         21   -1    0    0  501  503 -0.00000000000E+00 -0.00000000000E+00 -0.11275393991E+03  0.11275393991E+03  0.00000000000E+00 0.  1.
          6    1    1    2  501    0 -0.82656038004E+02  0.71954426149E+02  0.14628297864E+03  0.25166877021E+03  0.17300000000E+03 0.  1.
         -6    1    1    2    0  502  0.82656038004E+02 -0.71954426149E+02  0.11450493567E+03  0.23462702392E+03  0.17300000000E+03 0. -1.
</event>
<event>
 4    1  0.5959403E+000  0.1000000E+03  0.7546771E-02  0.1280296E+00
         21   -1    0    0  503  502  0.00000000000E+00  0.00000000000E+00  0.94198124133E+02  0.94198124133E+02  0.00000000000E+00 0. -1.
         21   -1    0    0  501  503 -0.00000000000E+00 -0.00000000000E+00 -0.42476137379E+03  0.42476137379E+03  0.00000000000E+00 0.  1.
          6    1    1    2  501    0 -0.73479792541E+02  0.18197468113E+01 -0.25402561288E+03  0.31600728376E+03  0.17300000000E+03 0.  1.
         -6    1    1    2    0  502  0.73479792541E+02 -0.18197468113E+01 -0.76537636775E+02  0.20295221416E+03  0.17300000000E+03 0. -1.
</event>
<event>
 4    1  0.5959403E+000  0.1000000E+03  0.7546771E-02  0.1280296E+00
         21   -1    0    0  501  502  0.00000000000E+00  0.00000000000E+00  0.95518667770E+03  0.95518667770E+03  0.00000000000E+00 0. -1.
         21   -1    0    0  502  503 -0.00000000000E+00 -0.00000000000E+00 -0.37765003334E+02  0.37765003334E+02  0.00000000000E+00 0. -1.
          6    1    1    2  501    0  0.46355660839E+02  0.70593103717E+01  0.62289445054E+03  0.64817063931E+03  0.17300000000E+03 0. -1.
         -6    1    1    2    0  503 -0.46355660839E+02 -0.70593103717E+01  0.29452722383E+03  0.34478104172E+03  0.17300000000E+03 0. -1.
</event>
<event>
 4    1  0.5959403E+000  0.1000000E+03  0.7546771E-02  0.1280296E+00
         21   -1    0    0  501  502  0.00000000000E+00  0.00000000000E+00  0.65802126721E+02  0.65802126721E+02  0.00000000000E+00 0. -1.
         21   -1    0    0  502  503 -0.00000000000E+00 -0.00000000000E+00 -0.59326848835E+03  0.59326848835E+03  0.00000000000E+00 0. -1.
          6    1    1    2  501    0  0.53797837284E+02  0.40735841538E+02 -0.15116011699E+03  0.23944100954E+03  0.17300000000E+03 0. -1.
         -6    1    1    2    0  503 -0.53797837284E+02 -0.40735841538E+02 -0.37630624464E+03  0.41962960553E+03  0.17300000000E+03 0. -1.
</event>
<event>
 4    1  0.5959403E+000  0.1000000E+03  0.7546771E-02  0.1280296E+00
         21   -1    0    0  501  502  0.00000000000E+00  0.00000000000E+00  0.85357464290E+02  0.85357464290E+02  0.00000000000E+00 0.  1.
         21   -1    0    0  502  503 -0.00000000000E+00 -0.00000000000E+00 -0.12379293919E+04  0.12379293919E+04  0.00000000000E+00 0. -1.
          6    1    1    2  501    0  0.14230248752E+03 -0.16882655767E+02 -0.98058344489E+02  0.24511111958E+03  0.17300000000E+03 0. -1.
         -6    1    1    2    0  503 -0.14230248752E+03  0.16882655767E+02 -0.10545135831E+04  0.10781757366E+04  0.17300000000E+03 0. -1.
</event>
<event>
 4    1  0.5959403E+000  0.1000000E+03  0.7546771E-02  0.1280296E+00
         21   -1    0    0  501  502  0.00000000000E+00  0.00000000000E+00  0.35217193630E+03  0.35217193630E+03  0.00000000000E+00 0.  1.
         21   -1    0    0  502  503 -0.00000000000E+00 -0.00000000000E+00 -0.96955688695E+03  0.96955688695E+03  0.00000000000E+00 0. -1.
          6    1    1    2  501    0 -0.15725750075E+03 -0.31463713610E+03  0.18141426801E+03  0.43193354303E+03  0.17300000000E+03 0. -1.
         -6    1    1    2    0  503  0.15725750075E+03  0.31463713610E+03 -0.79879921867E+03  0.88979528022E+03  0.17300000000E+03 0. -1.
</event>
<event>
 4    1  0.5959403E+000  0.1000000E+03  0.7546771E-02  0.1280296E+00
         21   -1    0    0  501  502  0.00000000000E+00  0.00000000000E+00  0.55752164078E+02  0.55752164078E+02  0.00000000000E+00 0.  1.
         21   -1    0    0  502  503 -0.00000000000E+00 -0.00000000000E+00 -0.11483781895E+04  0.11483781895E+04  0.00000000000E+00 0. -1.
          6    1    1    2  501    0  0.35049519598E+01  0.14735512978E+03 -0.28167596551E+03  0.36193392837E+03  0.17300000000E+03 0. -1.
         -6    1    1    2    0  503 -0.35049519598E+01 -0.14735512978E+03 -0.81095005992E+03  0.84219642522E+03  0.17300000000E+03 0. -1.
</event>
<event>
 4    1  0.5959403E+000  0.1000000E+03  0.7546771E-02  0.1280296E+00
         21   -1    0    0  501  502  0.00000000000E+00  0.00000000000E+00  0.19683501122E+03  0.19683501122E+03  0.00000000000E+00 0.  1.
         21   -1    0    0  502  503 -0.00000000000E+00 -0.00000000000E+00 -0.29545305339E+03  0.29545305339E+03  0.00000000000E+00 0.  1.
          6    1    1    2  501    0  0.30366211383E+02 -0.12871834305E+03  0.56449379018E+02  0.22495788722E+03  0.17300000000E+03 0.  1.
         -6    1    1    2    0  503 -0.30366211383E+02  0.12871834305E+03 -0.15506742118E+03  0.26733017739E+03  0.17300000000E+03 0.  1.
</event>
<event>
 4    1  0.5959403E+000  0.1000000E+03  0.7546771E-02  0.1280296E+00
         21   -1    0    0  501  502  0.00000000000E+00  0.00000000000E+00  0.55281838337E+03  0.55281838337E+03  0.00000000000E+00 0.  1.
         21   -1    0    0  502  503 -0.00000000000E+00 -0.00000000000E+00 -0.15943305502E+03  0.15943305502E+03  0.00000000000E+00 0.  1.
          6    1    1    2  501    0  0.38107635787E+02 -0.36940753929E+02  0.47901504848E+03  0.51205588355E+03  0.17300000000E+03 0.  1.
         -6    1    1    2    0  503 -0.38107635787E+02  0.36940753929E+02 -0.85629720132E+02  0.20019555484E+03  0.17300000000E+03 0.  1.
</event>
<event>
 4    1  0.5959403E+000  0.1000000E+03  0.7546771E-02  0.1280296E+00
         21   -1    0    0  501  502  0.00000000000E+00  0.00000000000E+00  0.39422596987E+03  0.39422596987E+03  0.00000000000E+00 0. -1.
         21   -1    0    0  502  503 -0.00000000000E+00 -0.00000000000E+00 -0.10035949350E+03  0.10035949350E+03  0.00000000000E+00 0. -1.
          6    1    1    2  501    0 -0.76662159300E+01 -0.88736813216E+02  0.19822892438E+03  0.27777094763E+03  0.17300000000E+03 0. -1.
         -6    1    1    2    0  503  0.76662159300E+01  0.88736813216E+02  0.95637551983E+02  0.21681451574E+03  0.17300000000E+03 0. -1.
</event>
<event>
 4    1  0.5959403E+000  0.1000000E+03  0.7546771E-02  0.1280296E+00
         21   -1    0    0  501  502  0.00000000000E+00  0.00000000000E+00  0.54266993336E+03  0.54266993336E+03  0.00000000000E+00 0. -1.
         21   -1    0    0  502  503 -0.00000000000E+00 -0.00000000000E+00 -0.16741013998E+03  0.16741013998E+03  0.00000000000E+00 0. -1.
          6    1    1    2  501    0 -0.64352235600E+02 -0.75205128195E+02  0.45396248256E+03  0.49579023499E+03  0.17300000000E+03 0. -1.
         -6    1    1    2    0  503  0.64352235600E+02  0.75205128195E+02 -0.78702689185E+02  0.21428983835E+03  0.17300000000E+03 0. -1.
</event>
<event>
 4    1  0.5959403E+000  0.1000000E+03  0.7546771E-02  0.1280296E+00
         21   -1    0    0  501  502  0.00000000000E+00  0.00000000000E+00  0.21396129122E+03  0.21396129122E+03  0.00000000000E+00 0. -1.
         21   -1    0    0  502  503 -0.00000000000E+00 -0.00000000000E+00 -0.20613776477E+03  0.20613776477E+03  0.00000000000E+00 0. -1.
          6    1    1    2  501    0  0.59189795152E+02 -0.92409366856E+02  0.50110460260E+02  0.21090988872E+03  0.17300000000E+03 0. -1.
         -6    1    1    2    0  503 -0.59189795152E+02  0.92409366856E+02 -0.42286933810E+02  0.20918916727E+03  0.17300000000E+03 0. -1.
</event>
<event>
 4    1  0.5959403E+000  0.1000000E+03  0.7546771E-02  0.1280296E+00
         21   -1    0    0  501  502  0.00000000000E+00  0.00000000000E+00  0.21801212220E+03  0.21801212220E+03  0.00000000000E+00 0. -1.
         21   -1    0    0  502  503 -0.00000000000E+00 -0.00000000000E+00 -0.72327064055E+03  0.72327064055E+03  0.00000000000E+00 0. -1.
          6    1    1    2  501    0  0.29550486198E+03  0.28826982722E+02 -0.16777263915E+02  0.34404155995E+03  0.17300000000E+03 0. -1.
         -6    1    1    2    0  503 -0.29550486198E+03 -0.28826982722E+02 -0.48848125444E+03  0.59724120280E+03  0.17300000000E+03 0. -1.
</event>
<event>
 4    1  0.5959403E+000  0.1000000E+03  0.7546771E-02  0.1280296E+00
         21   -1    0    0  503  502  0.00000000000E+00  0.00000000000E+00  0.86729110963E+02  0.86729110963E+02  0.00000000000E+00 0.  1.
         21   -1    0    0  501  503 -0.00000000000E+00 -0.00000000000E+00 -0.55971501933E+03  0.55971501933E+03  0.00000000000E+00 0.  1.
          6    1    1    2  501    0  0.31781311535E+02  0.12885086649E+03 -0.28293019778E+03  0.35719895629E+03  0.17300000000E+03 0.  1.
         -6    1    1    2    0  502 -0.31781311535E+02 -0.12885086649E+03 -0.19005571058E+03  0.28924517400E+03  0.17300000000E+03 0.  1.
</event>
<event>
 4    1  0.5959403E+000  0.1000000E+03  0.7546771E-02  0.1280296E+00
         21   -1    0    0  503  502  0.00000000000E+00  0.00000000000E+00  0.96183138725E+02  0.96183138725E+02  0.00000000000E+00 0.  1.
         21   -1    0    0  501  503 -0.00000000000E+00 -0.00000000000E+00 -0.37218090754E+03  0.37218090754E+03  0.00000000000E+00 0.  1.
          6    1    1    2  501    0 -0.14425806254E+02 -0.74841708723E+02 -0.14751757654E+03  0.23979120217E+03  0.17300000000E+03 0.  1.
         -6    1    1    2    0  502  0.14425806254E+02  0.74841708723E+02 -0.12848019228E+03  0.22857284410E+03  0.17300000000E+03 0.  1.
</event>
<event>
 4    1  0.5959403E+000  0.1000000E+03  0.7546771E-02  0.1280296E+00
         21   -1    0    0  501  502  0.00000000000E+00  0.00000000000E+00  0.43539754715E+02  0.43539754715E+02  0.00000000000E+00 0. -1.
         21   -1    0    0  502  503 -0.00000000000E+00 -0.00000000000E+00 -0.87251272146E+03  0.87251272146E+03  0.00000000000E+00 0. -1.
          6    1    1    2  501    0  0.73849737033E+01  0.89344687505E+02 -0.40322162639E+03  0.44783221301E+03  0.17300000000E+03 0. -1.
         -6    1    1    2    0  503 -0.73849737033E+01 -0.89344687505E+02 -0.42575134035E+03  0.46822026316E+03  0.17300000000E+03 0. -1.
</event>
<event>
 4    1  0.5959403E+000  0.1000000E+03  0.7546771E-02  0.1280296E+00
         21   -1    0    0  501  502  0.00000000000E+00  0.00000000000E+00  0.61430704389E+02  0.61430704389E+02  0.00000000000E+00 0. -1.
         21   -1    0    0  502  503 -0.00000000000E+00 -0.00000000000E+00 -0.24443079112E+04  0.24443079112E+04  0.00000000000E+00 0. -1.
          6    1    1    2  501    0 -0.56176822425E+02  0.33934332148E+03 -0.10498830093E+04  0.11182544695E+04  0.17300000000E+03 0. -1.
         -6    1    1    2    0  503  0.56176822425E+02 -0.33934332148E+03 -0.13329941975E+04  0.13874841461E+04  0.17300000000E+03 0. -1.
</event>
<event>
 4    1  0.5959403E+000  0.1000000E+03  0.7546771E-02  0.1280296E+00
         21   -1    0    0  501  502  0.00000000000E+00  0.00000000000E+00  0.71355963765E+02  0.71355963765E+02  0.00000000000E+00 0. -1.
         21   -1    0    0  502  503 -0.00000000000E+00 -0.00000000000E+00 -0.76148160085E+03  0.76148160085E+03  0.00000000000E+00 0. -1.
          6    1    1    2  501    0  0.13345565117E+02  0.47716913948E+02 -0.80380493846E+02  0.19709142999E+03  0.17300000000E+03 0. -1.
         -6    1    1    2    0  503 -0.13345565117E+02 -0.47716913948E+02 -0.60974514324E+03  0.63574613463E+03  0.17300000000E+03 0. -1.
</event>
<event>
 4    1  0.5959403E+000  0.1000000E+03  0.7546771E-02  0.1280296E+00
         21   -1    0    0  501  502  0.00000000000E+00  0.00000000000E+00  0.39711361453E+03  0.39711361453E+03  0.00000000000E+00 0.  1.
         21   -1    0    0  502  503 -0.00000000000E+00 -0.00000000000E+00 -0.14045036688E+03  0.14045036688E+03  0.00000000000E+00 0. -1.
          6    1    1    2  501    0  0.75205278964E+01  0.12930308848E+03  0.23672000444E+03  0.32053269339E+03  0.17300000000E+03 0.  1.
         -6    1    1    2    0  503 -0.75205278964E+01 -0.12930308848E+03  0.19943243211E+02  0.21703128802E+03  0.17300000000E+03 0. -1.
</event>
<event>
 4    1  0.5959403E+000  0.1000000E+03  0.7546771E-02  0.1280296E+00
         21   -1    0    0  501  502  0.00000000000E+00  0.00000000000E+00  0.17199393987E+03  0.17199393987E+03  0.00000000000E+00 0.  1.
         21   -1    0    0  502  503 -0.00000000000E+00 -0.00000000000E+00 -0.45364086803E+03  0.45364086803E+03  0.00000000000E+00 0. -1.
          6    1    1    2  501    0  0.14505429658E+03  0.16123263286E+03 -0.17724629794E+03  0.32921415673E+03  0.17300000000E+03 0.  1.
         -6    1    1    2    0  503 -0.14505429658E+03 -0.16123263286E+03 -0.10440063022E+03  0.29642065118E+03  0.17300000000E+03 0. -1.
</event>
<event>
 4    1  0.5959403E+000  0.1000000E+03  0.7546771E-02  0.1280296E+00
         21   -1    0    0  501  502  0.00000000000E+00  0.00000000000E+00  0.38002530728E+02  0.38002530728E+02  0.00000000000E+00 0. -1.
         21   -1    0    0  502  503 -0.00000000000E+00 -0.00000000000E+00 -0.10935475625E+04  0.10935475625E+04  0.00000000000E+00 0. -1.
          6    1    1    2  501    0  0.10775233985E+03  0.42196246696E+01 -0.52652246468E+03  0.56460896007E+03  0.17300000000E+03 0. -1.
         -6    1    1    2    0  503 -0.10775233985E+03 -0.42196246696E+01 -0.52902256707E+03  0.56694113314E+03  0.17300000000E+03 0. -1.
</event>
<event>
 4    1  0.5959403E+000  0.1000000E+03  0.7546771E-02  0.1280296E+00
         21   -1    0    0  501  502  0.00000000000E+00  0.00000000000E+00  0.32379124371E+02  0.32379124371E+02  0.00000000000E+00 0. -1.
         21   -1    0    0  502  503 -0.00000000000E+00 -0.00000000000E+00 -0.17458585041E+04  0.17458585041E+04  0.00000000000E+00 0. -1.
          6    1    1    2  501    0  0.96296333318E+02  0.12950399783E+03 -0.76855375528E+03  0.80414435521E+03  0.17300000000E+03 0. -1.
         -6    1    1    2    0  503 -0.96296333318E+02 -0.12950399783E+03 -0.94492562443E+03  0.97409327324E+03  0.17300000000E+03 0. -1.
</event>
<event>
 4    1  0.5959403E+000  0.1000000E+03  0.7546771E-02  0.1280296E+00
         21   -1    0    0  501  502  0.00000000000E+00  0.00000000000E+00  0.11061269767E+03  0.11061269767E+03  0.00000000000E+00 0. -1.
         21   -1    0    0  502  503 -0.00000000000E+00 -0.00000000000E+00 -0.10528582075E+04  0.10528582075E+04  0.00000000000E+00 0.  1.
          6    1    1    2  501    0 -0.10661628366E+03 -0.11897150119E+02 -0.42138448902E+01  0.20360582165E+03  0.17300000000E+03 0. -1.
         -6    1    1    2    0  503  0.10661628366E+03  0.11897150119E+02 -0.93803166491E+03  0.95986508349E+03  0.17300000000E+03 0. -1.
</event>
<event>
 4    1  0.5959403E+000  0.1000000E+03  0.7546771E-02  0.1280296E+00
         21   -1    0    0  501  502  0.00000000000E+00  0.00000000000E+00  0.82838787566E+03  0.82838787566E+03  0.00000000000E+00 0. -1.
         21   -1    0    0  502  503 -0.00000000000E+00 -0.00000000000E+00 -0.12067874830E+03  0.12067874830E+03  0.00000000000E+00 0.  1.
          6    1    1    2  501    0  0.10181467148E+02  0.17947714369E+03  0.64535815499E+03  0.69190451335E+03  0.17300000000E+03 0. -1.
         -6    1    1    2    0  503 -0.10181467148E+02 -0.17947714369E+03  0.62350972360E+02  0.25716211061E+03  0.17300000000E+03 0. -1.
</event>
<event>
 4    1  0.5959403E+000  0.1000000E+03  0.7546771E-02  0.1280296E+00
         21   -1    0    0  501  502  0.00000000000E+00  0.00000000000E+00  0.18433338272E+03  0.18433338272E+03  0.00000000000E+00 0. -1.
         21   -1    0    0  502  503 -0.00000000000E+00 -0.00000000000E+00 -0.41389338480E+03  0.41389338480E+03  0.00000000000E+00 0.  1.
          6    1    1    2  501    0  0.77664179300E+02  0.51913227103E+02  0.95310628489E+02  0.21849444798E+03  0.17300000000E+03 0. -1.
         -6    1    1    2    0  503 -0.77664179300E+02 -0.51913227103E+02 -0.32487063058E+03  0.37973231954E+03  0.17300000000E+03 0. -1.
</event>
<event>
 4    1  0.5959403E+000  0.1000000E+03  0.7546771E-02  0.1280296E+00
         21   -1    0    0  503  502  0.00000000000E+00  0.00000000000E+00  0.14196069517E+03  0.14196069517E+03  0.00000000000E+00 0. -1.
         21   -1    0    0  501  503 -0.00000000000E+00 -0.00000000000E+00 -0.27838399414E+03  0.27838399414E+03  0.00000000000E+00 0. -1.
          6    1    1    2  501    0 -0.27909301259E+02 -0.16231080159E+02 -0.16595943500E+03  0.24189648845E+03  0.17300000000E+03 0. -1.
         -6    1    1    2    0  502  0.27909301259E+02  0.16231080159E+02  0.29536136024E+02  0.17844820086E+03  0.17300000000E+03 0. -1.
</event>
<event>
 4    1  0.5959403E+000  0.1000000E+03  0.7546771E-02  0.1280296E+00
         21   -1    0    0  501  502  0.00000000000E+00  0.00000000000E+00  0.13192124250E+03  0.13192124250E+03  0.00000000000E+00 0.  1.
         21   -1    0    0  502  503 -0.00000000000E+00 -0.00000000000E+00 -0.29202935673E+03  0.29202935673E+03  0.00000000000E+00 0.  1.
          6    1    1    2  501    0  0.68788705552E+02  0.60928228748E+02 -0.66750572380E+02  0.20695113912E+03  0.17300000000E+03 0.  1.
         -6    1    1    2    0  503 -0.68788705552E+02 -0.60928228748E+02 -0.93357541852E+02  0.21699946012E+03  0.17300000000E+03 0.  1.
</event>
<event>
 4    1  0.5959403E+000  0.1000000E+03  0.7546771E-02  0.1280296E+00
         21   -1    0    0  501  502  0.00000000000E+00  0.00000000000E+00  0.10463933165E+04  0.10463933165E+04  0.00000000000E+00 0.  1.
         21   -1    0    0  502  503 -0.00000000000E+00 -0.00000000000E+00 -0.12067934384E+03  0.12067934384E+03  0.00000000000E+00 0.  1.
          6    1    1    2  501    0 -0.28209994376E+03  0.12851233949E+03  0.48898982174E+03  0.60426471471E+03  0.17300000000E+03 0.  1.
         -6    1    1    2    0  503  0.28209994376E+03 -0.12851233949E+03  0.43672415091E+03  0.56280794563E+03  0.17300000000E+03 0.  1.
</event>
<event>
 4    1  0.5959403E+000  0.1000000E+03  0.7546771E-02  0.1280296E+00
         21   -1    0    0  501  502  0.00000000000E+00  0.00000000000E+00  0.36179502212E+03  0.36179502212E+03  0.00000000000E+00 0.  1.
         21   -1    0    0  502  503 -0.00000000000E+00 -0.00000000000E+00 -0.46515055237E+03  0.46515055237E+03  0.00000000000E+00 0.  1.
          6    1    1    2  501    0  0.14893516232E+02  0.55707260185E+02  0.31869760991E+03  0.36718153851E+03  0.17300000000E+03 0.  1.
         -6    1    1    2    0  503 -0.14893516232E+02 -0.55707260185E+02 -0.42205314015E+03  0.45976403598E+03  0.17300000000E+03 0.  1.
</event>
<event>
 4    1  0.5959403E+000  0.1000000E+03  0.7546771E-02  0.1280296E+00
         21   -1    0    0  503  502  0.00000000000E+00  0.00000000000E+00  0.15683889434E+04  0.15683889434E+04  0.00000000000E+00 0.  1.
         21   -1    0    0  501  503 -0.00000000000E+00 -0.00000000000E+00 -0.36956618773E+02  0.36956618773E+02  0.00000000000E+00 0.  1.
          6    1    1    2  501    0  0.13065817118E+03  0.59579205873E+01  0.11142155752E+04  0.11351266020E+04  0.17300000000E+03 0.  1.
         -6    1    1    2    0  502 -0.13065817118E+03 -0.59579205873E+01  0.41721674938E+03  0.47021896015E+03  0.17300000000E+03 0.  1.
</event>
<event>
 4    1  0.5959403E+000  0.1000000E+03  0.7546771E-02  0.1280296E+00
         21   -1    0    0  503  502  0.00000000000E+00  0.00000000000E+00  0.60835431533E+03  0.60835431533E+03  0.00000000000E+00 0.  1.
         21   -1    0    0  501  503 -0.00000000000E+00 -0.00000000000E+00 -0.10743884517E+03  0.10743884517E+03  0.00000000000E+00 0.  1.
          6    1    1    2  501    0  0.77470997673E+02 -0.63481856771E+02  0.27348774363E+02  0.20176386465E+03  0.17300000000E+03 0.  1.
         -6    1    1    2    0  502 -0.77470997673E+02  0.63481856771E+02  0.47356669580E+03  0.51402929585E+03  0.17300000000E+03 0.  1.
</event>
<event>
 4    1  0.5959403E+000  0.1000000E+03  0.7546771E-02  0.1280296E+00
         21   -1    0    0  503  502  0.00000000000E+00  0.00000000000E+00  0.15879658753E+03  0.15879658753E+03  0.00000000000E+00 0. -1.
         21   -1    0    0  501  503 -0.00000000000E+00 -0.00000000000E+00 -0.12015178464E+04  0.12015178464E+04  0.00000000000E+00 0. -1.
          6    1    1    2  501    0 -0.78439728219E+02 -0.11463412878E+03 -0.11072499891E+04  0.11292587449E+04  0.17300000000E+03 0. -1.
         -6    1    1    2    0  502  0.78439728219E+02  0.11463412878E+03  0.64528730212E+02  0.23105568911E+03  0.17300000000E+03 0. -1.
</event>
<event>
 4    1  0.5959403E+000  0.1000000E+03  0.7546771E-02  0.1280296E+00
         21   -1    0    0  503  502  0.00000000000E+00  0.00000000000E+00  0.28716776103E+02  0.28716776103E+02  0.00000000000E+00 0. -1.
         21   -1    0    0  501  503 -0.00000000000E+00 -0.00000000000E+00 -0.19750625934E+04  0.19750625934E+04  0.00000000000E+00 0. -1.
          6    1    1    2  501    0 -0.53845913316E+02 -0.11157791988E+03 -0.14231221805E+04  0.14389422348E+04  0.17300000000E+03 0. -1.
         -6    1    1    2    0  502  0.53845913316E+02  0.11157791988E+03 -0.52322363680E+03  0.56483713466E+03  0.17300000000E+03 0. -1.
</event>
<event>
 4    1  0.5959403E+000  0.1000000E+03  0.7546771E-02  0.1280296E+00
         21   -1    0    0  503  502  0.00000000000E+00  0.00000000000E+00  0.43458153578E+02  0.43458153578E+02  0.00000000000E+00 0. -1.
         21   -1    0    0  501  503 -0.00000000000E+00 -0.00000000000E+00 -0.21041066655E+04  0.21041066655E+04  0.00000000000E+00 0. -1.
          6    1    1    2  501    0  0.24524660671E+03  0.31881743951E+02 -0.96396323437E+03  0.10101071532E+04  0.17300000000E+03 0. -1.
         -6    1    1    2    0  502 -0.24524660671E+03 -0.31881743951E+02 -0.10966852776E+04  0.11374576659E+04  0.17300000000E+03 0. -1.
</event>
<event>
 4    1  0.5959403E+000  0.1000000E+03  0.7546771E-02  0.1280296E+00
         21   -1    0    0  501  502  0.00000000000E+00  0.00000000000E+00  0.36038083445E+03  0.36038083445E+03  0.00000000000E+00 0.  1.
         21   -1    0    0  502  503 -0.00000000000E+00 -0.00000000000E+00 -0.23958714429E+03  0.23958714429E+03  0.00000000000E+00 0.  1.
          6    1    1    2  501    0  0.77815671252E+02  0.33007793788E+02  0.28700292926E+03  0.34560739944E+03  0.17300000000E+03 0.  1.
         -6    1    1    2    0  503 -0.77815671252E+02 -0.33007793788E+02 -0.16620923910E+03  0.25436057931E+03  0.17300000000E+03 0.  1.
</event>
<event>
 4    1  0.5959403E+000  0.1000000E+03  0.7546771E-02  0.1280296E+00
         21   -1    0    0  501  502  0.00000000000E+00  0.00000000000E+00  0.24553281117E+03  0.24553281117E+03  0.00000000000E+00 0.  1.
         21   -1    0    0  502  503 -0.00000000000E+00 -0.00000000000E+00 -0.46194679891E+03  0.46194679891E+03  0.00000000000E+00 0. -1.
          6    1    1    2  501    0 -0.32234349483E+02 -0.16236560601E+02  0.19291773145E+03  0.26162746471E+03  0.17300000000E+03 0. -1.
         -6    1    1    2    0  503  0.32234349483E+02  0.16236560601E+02 -0.40933171920E+03  0.44585214537E+03  0.17300000000E+03 0. -1.
</event>
<event>
 4    1  0.5959403E+000  0.1000000E+03  0.7546771E-02  0.1280296E+00
         21   -1    0    0  501  502  0.00000000000E+00  0.00000000000E+00  0.64217659070E+03  0.64217659070E+03  0.00000000000E+00 0.  1.
         21   -1    0    0  502  503 -0.00000000000E+00 -0.00000000000E+00 -0.59486448510E+02  0.59486448510E+02  0.00000000000E+00 0. -1.
          6    1    1    2  501    0 -0.83027305842E+02  0.19926987583E+02  0.34757118877E+03  0.39752402394E+03  0.17300000000E+03 0. -1.
         -6    1    1    2    0  503  0.83027305842E+02 -0.19926987583E+02  0.23511895342E+03  0.30413901527E+03  0.17300000000E+03 0. -1.
</event>
<event>
 4    1  0.5959403E+000  0.1000000E+03  0.7546771E-02  0.1280296E+00
         21   -1    0    0  501  502  0.00000000000E+00  0.00000000000E+00  0.75456620500E+02  0.75456620500E+02  0.00000000000E+00 0.  1.
         21   -1    0    0  502  503 -0.00000000000E+00 -0.00000000000E+00 -0.11880699550E+04  0.11880699550E+04  0.00000000000E+00 0. -1.
          6    1    1    2  501    0 -0.83108590504E+02  0.16860040808E+03 -0.22680964045E+03  0.34162076697E+03  0.17300000000E+03 0. -1.
         -6    1    1    2    0  503  0.83108590504E+02 -0.16860040808E+03 -0.88580369402E+03  0.92190580851E+03  0.17300000000E+03 0. -1.
</event>
<event>
 4    1  0.5959403E+000  0.1000000E+03  0.7546771E-02  0.1280296E+00
         21   -1    0    0  501  502  0.00000000000E+00  0.00000000000E+00  0.10482594044E+03  0.10482594044E+03  0.00000000000E+00 0.  1.
         21   -1    0    0  502  503 -0.00000000000E+00 -0.00000000000E+00 -0.37228317669E+03  0.37228317669E+03  0.00000000000E+00 0. -1.
          6    1    1    2  501    0 -0.86423153855E+02  0.37643091278E+02 -0.11623033138E+03  0.22874539072E+03  0.17300000000E+03 0.  1.
         -6    1    1    2    0  503  0.86423153855E+02 -0.37643091278E+02 -0.15122690487E+03  0.24836372642E+03  0.17300000000E+03 0. -1.
</event>
<event>
 4    1  0.5959403E+000  0.1000000E+03  0.7546771E-02  0.1280296E+00
         21   -1    0    0  501  502  0.00000000000E+00  0.00000000000E+00  0.27129735721E+03  0.27129735721E+03  0.00000000000E+00 0.  1.
         21   -1    0    0  502  503 -0.00000000000E+00 -0.00000000000E+00 -0.10296433925E+04  0.10296433925E+04  0.00000000000E+00 0. -1.
          6    1    1    2  501    0  0.50595046058E+02  0.12211101589E+03  0.21354584415E+03  0.30496194261E+03  0.17300000000E+03 0.  1.
         -6    1    1    2    0  503 -0.50595046058E+02 -0.12211101589E+03 -0.97189187948E+03  0.99597880715E+03  0.17300000000E+03 0. -1.
</event>
<event>
 4    1  0.5959403E+000  0.1000000E+03  0.7546771E-02  0.1280296E+00
         21   -1    0    0  503  502  0.00000000000E+00  0.00000000000E+00  0.46098462085E+03  0.46098462085E+03  0.00000000000E+00 0.  1.
         21   -1    0    0  501  503 -0.00000000000E+00 -0.00000000000E+00 -0.23579119636E+03  0.23579119636E+03  0.00000000000E+00 0.  1.
          6    1    1    2  501    0 -0.15090962388E+02 -0.52030470366E+02 -0.17839653688E+03  0.25434077802E+03  0.17300000000E+03 0.  1.
         -6    1    1    2    0  502  0.15090962388E+02  0.52030470366E+02  0.40358996137E+03  0.44243503919E+03  0.17300000000E+03 0.  1.
</event>
<event>
 4    1  0.5959403E+000  0.1000000E+03  0.7546771E-02  0.1280296E+00
         21   -1    0    0  503  502  0.00000000000E+00  0.00000000000E+00  0.89642779687E+02  0.89642779687E+02  0.00000000000E+00 0.  1.
         21   -1    0    0  501  503 -0.00000000000E+00 -0.00000000000E+00 -0.13579915831E+04  0.13579915831E+04  0.00000000000E+00 0.  1.
          6    1    1    2  501    0  0.19285763566E+02  0.60647181636E+02 -0.12487268045E+04  0.12622589487E+04  0.17300000000E+03 0.  1.
         -6    1    1    2    0  502 -0.19285763566E+02 -0.60647181636E+02 -0.19621998953E+02  0.18537541412E+03  0.17300000000E+03 0.  1.
</event>
<event>
 4    1  0.5959403E+000  0.1000000E+03  0.7546771E-02  0.1280296E+00
         21   -1    0    0  503  502  0.00000000000E+00  0.00000000000E+00  0.10427991871E+03  0.10427991871E+03  0.00000000000E+00 0.  1.
         21   -1    0    0  501  503 -0.00000000000E+00 -0.00000000000E+00 -0.94482261715E+03  0.94482261715E+03  0.00000000000E+00 0.  1.
          6    1    1    2  501    0 -0.11877543230E+03  0.23196583908E+03 -0.46389004696E+03  0.55949864119E+03  0.17300000000E+03 0.  1.
         -6    1    1    2    0  502  0.11877543230E+03 -0.23196583908E+03 -0.37665265147E+03  0.48960389467E+03  0.17300000000E+03 0.  1.
</event>
<event>
 4    1  0.5959403E+000  0.1000000E+03  0.7546771E-02  0.1280296E+00
         21   -1    0    0  503  502  0.00000000000E+00  0.00000000000E+00  0.23505655074E+03  0.23505655074E+03  0.00000000000E+00 0.  1.
         21   -1    0    0  501  503 -0.00000000000E+00 -0.00000000000E+00 -0.19231141663E+03  0.19231141663E+03  0.00000000000E+00 0.  1.
          6    1    1    2  501    0 -0.96471258747E+02  0.57996186653E+02 -0.29921860343E+02  0.20855354026E+03  0.17300000000E+03 0.  1.
         -6    1    1    2    0  502  0.96471258747E+02 -0.57996186653E+02  0.72666994453E+02  0.21881442711E+03  0.17300000000E+03 0.  1.
</event>
<event>
 4    1  0.5959403E+000  0.1000000E+03  0.7546771E-02  0.1280296E+00
         21   -1    0    0  503  502  0.00000000000E+00  0.00000000000E+00  0.38256862333E+03  0.38256862333E+03  0.00000000000E+00 0.  1.
         21   -1    0    0  501  503 -0.00000000000E+00 -0.00000000000E+00 -0.97008501103E+02  0.97008501103E+02  0.00000000000E+00 0.  1.
          6    1    1    2  501    0 -0.31002702421E+02 -0.48055297406E+02  0.64919073718E+02  0.19342689911E+03  0.17300000000E+03 0.  1.
         -6    1    1    2    0  502  0.31002702421E+02  0.48055297406E+02  0.22064104851E+03  0.28615022533E+03  0.17300000000E+03 0.  1.
</event>
<event>
 4    1  0.5959403E+000  0.1000000E+03  0.7546771E-02  0.1280296E+00
         21   -1    0    0  503  502  0.00000000000E+00  0.00000000000E+00  0.72863903955E+03  0.72863903955E+03  0.00000000000E+00 0.  1.
         21   -1    0    0  501  503 -0.00000000000E+00 -0.00000000000E+00 -0.76342369459E+02  0.76342369459E+02  0.00000000000E+00 0.  1.
          6    1    1    2  501    0 -0.18955418883E+02 -0.12946074634E+03  0.16809608741E+03  0.27441699537E+03  0.17300000000E+03 0.  1.
         -6    1    1    2    0  502  0.18955418883E+02  0.12946074634E+03  0.48420058268E+03  0.53056441363E+03  0.17300000000E+03 0.  1.
</event>
<event>
 4    1  0.5959403E+000  0.1000000E+03  0.7546771E-02  0.1280296E+00
         21   -1    0    0  503  502  0.00000000000E+00  0.00000000000E+00  0.92661446673E+02  0.92661446673E+02  0.00000000000E+00 0.  1.
         21   -1    0    0  501  503 -0.00000000000E+00 -0.00000000000E+00 -0.43042719171E+03  0.43042719171E+03  0.00000000000E+00 0. -1.
          6    1    1    2  501    0 -0.59466698754E+02  0.57892097504E+02 -0.24141302386E+03  0.30837806554E+03  0.17300000000E+03 0. -1.
         -6    1    1    2    0  502  0.59466698754E+02 -0.57892097504E+02 -0.96352721177E+02  0.21471057285E+03  0.17300000000E+03 0.  1.
</event>
<event>
 4    1  0.5959403E+000  0.1000000E+03  0.7546771E-02  0.1280296E+00
         21   -1    0    0  503  502  0.00000000000E+00  0.00000000000E+00  0.10874325328E+04  0.10874325328E+04  0.00000000000E+00 0.  1.
         21   -1    0    0  501  503 -0.00000000000E+00 -0.00000000000E+00 -0.61636440890E+02  0.61636440890E+02  0.00000000000E+00 0. -1.
          6    1    1    2  501    0 -0.82563309552E+02 -0.12992098765E+03  0.25600428664E+03  0.34520046045E+03  0.17300000000E+03 0. -1.
         -6    1    1    2    0  502  0.82563309552E+02  0.12992098765E+03  0.76979180525E+03  0.80386851322E+03  0.17300000000E+03 0.  1.
</event>
<event>
 4    1  0.5959403E+000  0.1000000E+03  0.7546771E-02  0.1280296E+00
         21   -1    0    0  501  502  0.00000000000E+00  0.00000000000E+00  0.10883050403E+04  0.10883050403E+04  0.00000000000E+00 0. -1.
         21   -1    0    0  502  503 -0.00000000000E+00 -0.00000000000E+00 -0.79657930345E+02  0.79657930345E+02  0.00000000000E+00 0.  1.
          6    1    1    2  501    0 -0.76801127349E+02  0.47408998015E+01  0.95154392605E+03  0.97019881081E+03  0.17300000000E+03 0. -1.
         -6    1    1    2    0  503  0.76801127349E+02 -0.47408998015E+01  0.57103183869E+02  0.19776415980E+03  0.17300000000E+03 0.  1.
</event>
<event>
 4    1  0.5959403E+000  0.1000000E+03  0.7546771E-02  0.1280296E+00
         21   -1    0    0  501  502  0.00000000000E+00  0.00000000000E+00  0.53245933058E+02  0.53245933058E+02  0.00000000000E+00 0. -1.
         21   -1    0    0  502  503 -0.00000000000E+00 -0.00000000000E+00 -0.10617742269E+04  0.10617742269E+04  0.00000000000E+00 0.  1.
          6    1    1    2  501    0 -0.61828491871E+02  0.90416070809E+02 -0.22086814705E+03  0.30118028928E+03  0.17300000000E+03 0. -1.
         -6    1    1    2    0  503  0.61828491871E+02 -0.90416070809E+02 -0.78766014684E+03  0.81383987073E+03  0.17300000000E+03 0.  1.
</event>
<event>
 4    1  0.5959403E+000  0.1000000E+03  0.7546771E-02  0.1280296E+00
         21   -1    0    0  501  502  0.00000000000E+00  0.00000000000E+00  0.49383940027E+03  0.49383940027E+03  0.00000000000E+00 0. -1.
         21   -1    0    0  502  503 -0.00000000000E+00 -0.00000000000E+00 -0.15443384028E+03  0.15443384028E+03  0.00000000000E+00 0.  1.
          6    1    1    2  501    0  0.61767378558E+02 -0.45719119125E+02 -0.66302436954E+02  0.20057532264E+03  0.17300000000E+03 0. -1.
         -6    1    1    2    0  503 -0.61767378558E+02  0.45719119125E+02  0.40570799694E+03  0.44769791790E+03  0.17300000000E+03 0.  1.
</event>
<event>
 4    1  0.5959403E+000  0.1000000E+03  0.7546771E-02  0.1280296E+00
         21   -1    0    0  503  502  0.00000000000E+00  0.00000000000E+00  0.44935603695E+03  0.44935603695E+03  0.00000000000E+00 0.  1.
         21   -1    0    0  501  503 -0.00000000000E+00 -0.00000000000E+00 -0.13721304658E+03  0.13721304658E+03  0.00000000000E+00 0.  1.
          6    1    1    2  501    0  0.14575072628E+03 -0.95919265918E+02  0.11373622961E+03  0.27075581196E+03  0.17300000000E+03 0.  1.
         -6    1    1    2    0  502 -0.14575072628E+03  0.95919265918E+02  0.19840676076E+03  0.31581327157E+03  0.17300000000E+03 0.  1.
</event>
<event>
 4    1  0.5959403E+000  0.1000000E+03  0.7546771E-02  0.1280296E+00
         21   -1    0    0  503  502  0.00000000000E+00  0.00000000000E+00  0.18295842798E+03  0.18295842798E+03  0.00000000000E+00 0.  1.
         21   -1    0    0  501  503 -0.00000000000E+00 -0.00000000000E+00 -0.26286422301E+03  0.26286422301E+03  0.00000000000E+00 0.  1.
          6    1    1    2  501    0 -0.13135176972E+03 -0.21982868121E+02 -0.18931804302E+02  0.21914366775E+03  0.17300000000E+03 0.  1.
         -6    1    1    2    0  502  0.13135176972E+03  0.21982868121E+02 -0.60973990733E+02  0.22667898325E+03  0.17300000000E+03 0.  1.
</event>
<event>
 4    1  0.5959403E+000  0.1000000E+03  0.7546771E-02  0.1280296E+00
         21   -1    0    0  503  502  0.00000000000E+00  0.00000000000E+00  0.45793579701E+03  0.45793579701E+03  0.00000000000E+00 0.  1.
         21   -1    0    0  501  503 -0.00000000000E+00 -0.00000000000E+00 -0.11072678127E+03  0.11072678127E+03  0.00000000000E+00 0. -1.
          6    1    1    2  501    0  0.63812636136E+02  0.12601487082E+03  0.13733751230E+03  0.26218770468E+03  0.17300000000E+03 0. -1.
         -6    1    1    2    0  502 -0.63812636136E+02 -0.12601487082E+03  0.20987150344E+03  0.30647487361E+03  0.17300000000E+03 0.  1.
</event>
<event>
 4    1  0.5959403E+000  0.1000000E+03  0.7546771E-02  0.1280296E+00
         21   -1    0    0  503  502  0.00000000000E+00  0.00000000000E+00  0.11865767426E+03  0.11865767426E+03  0.00000000000E+00 0.  1.
         21   -1    0    0  501  503 -0.00000000000E+00 -0.00000000000E+00 -0.97272588876E+03  0.97272588876E+03  0.00000000000E+00 0. -1.
          6    1    1    2  501    0 -0.55058210235E+02  0.21031382460E+03 -0.74108583359E+03  0.79145468858E+03  0.17300000000E+03 0. -1.
         -6    1    1    2    0  502  0.55058210235E+02 -0.21031382460E+03 -0.11298238091E+03  0.29992887445E+03  0.17300000000E+03 0. -1.
</event>
<event>
 4    1  0.5959403E+000  0.1000000E+03  0.7546771E-02  0.1280296E+00
         21   -1    0    0  503  502  0.00000000000E+00  0.00000000000E+00  0.12329862389E+03  0.12329862389E+03  0.00000000000E+00 0.  1.
         21   -1    0    0  501  503 -0.00000000000E+00 -0.00000000000E+00 -0.26859221621E+03  0.26859221621E+03  0.00000000000E+00 0. -1.
          6    1    1    2  501    0 -0.27473492727E+02 -0.47001322061E+02 -0.88766710997E+02  0.20192188108E+03  0.17300000000E+03 0. -1.
         -6    1    1    2    0  502  0.27473492727E+02  0.47001322061E+02 -0.56526881328E+02  0.18996895902E+03  0.17300000000E+03 0. -1.
</event>
<event>
 4    1  0.5959403E+000  0.1000000E+03  0.7546771E-02  0.1280296E+00
         21   -1    0    0  503  502  0.00000000000E+00  0.00000000000E+00  0.30879450841E+03  0.30879450841E+03  0.00000000000E+00 0.  1.
         21   -1    0    0  501  503 -0.00000000000E+00 -0.00000000000E+00 -0.13041420692E+03  0.13041420692E+03  0.00000000000E+00 0. -1.
          6    1    1    2  501    0 -0.78466812301E+02 -0.15585026320E+02  0.20480744315E+02  0.19169870778E+03  0.17300000000E+03 0. -1.
         -6    1    1    2    0  502  0.78466812301E+02  0.15585026320E+02  0.15789955718E+03  0.24751000755E+03  0.17300000000E+03 0. -1.
</event>
<event>
 4    1  0.5959403E+000  0.1000000E+03  0.7546771E-02  0.1280296E+00
         21   -1    0    0  503  502  0.00000000000E+00  0.00000000000E+00  0.64682229887E+02  0.64682229887E+02  0.00000000000E+00 0.  1.
         21   -1    0    0  501  503 -0.00000000000E+00 -0.00000000000E+00 -0.14649568002E+04  0.14649568002E+04  0.00000000000E+00 0.  1.
          6    1    1    2  501    0 -0.17769002193E+03  0.28292346899E+02 -0.25254288821E+03  0.35507902103E+03  0.17300000000E+03 0.  1.
         -6    1    1    2    0  502  0.17769002193E+03 -0.28292346899E+02 -0.11477316821E+04  0.11745600091E+04  0.17300000000E+03 0.  1.
</event>
<event>
 4    1  0.5959403E+000  0.1000000E+03  0.7546771E-02  0.1280296E+00
         21   -1    0    0  503  502  0.00000000000E+00  0.00000000000E+00  0.44590328110E+03  0.44590328110E+03  0.00000000000E+00 0.  1.
         21   -1    0    0  501  503 -0.00000000000E+00 -0.00000000000E+00 -0.10282886705E+03  0.10282886705E+03  0.00000000000E+00 0.  1.
          6    1    1    2  501    0 -0.51977319138E+02 -0.76427937433E+02  0.61465285306E+02  0.20554768941E+03  0.17300000000E+03 0.  1.
         -6    1    1    2    0  502  0.51977319138E+02  0.76427937433E+02  0.28160912875E+03  0.34318445874E+03  0.17300000000E+03 0.  1.
</event>
<event>
 4    1  0.5959403E+000  0.1000000E+03  0.7546771E-02  0.1280296E+00
         21   -1    0    0  501  502  0.00000000000E+00  0.00000000000E+00  0.49497939693E+03  0.49497939693E+03  0.00000000000E+00 0. -1.
         21   -1    0    0  502  503 -0.00000000000E+00 -0.00000000000E+00 -0.12277962994E+03  0.12277962994E+03  0.00000000000E+00 0. -1.
          6    1    1    2  501    0  0.11046852792E+03 -0.37961351022E+02  0.35042235263E+03  0.40788378867E+03  0.17300000000E+03 0. -1.
         -6    1    1    2    0  503 -0.11046852792E+03  0.37961351022E+02  0.21777414359E+02  0.20987523820E+03  0.17300000000E+03 0. -1.
</event>
<event>
 4    1  0.5959403E+000  0.1000000E+03  0.7546771E-02  0.1280296E+00
         21   -1    0    0  503  502  0.00000000000E+00  0.00000000000E+00  0.37812021972E+02  0.37812021972E+02  0.00000000000E+00 0. -1.
         21   -1    0    0  501  503 -0.00000000000E+00 -0.00000000000E+00 -0.94007446523E+03  0.94007446523E+03  0.00000000000E+00 0. -1.
          6    1    1    2  501    0  0.58945404947E+02 -0.33421381747E+02 -0.36808032041E+03  0.41231501524E+03  0.17300000000E+03 0. -1.
         -6    1    1    2    0  502 -0.58945404947E+02  0.33421381747E+02 -0.53418212286E+03  0.56557147196E+03  0.17300000000E+03 0. -1.
</event>
<event>
 4    1  0.5959403E+000  0.1000000E+03  0.7546771E-02  0.1280296E+00
         21   -1    0    0  503  502  0.00000000000E+00  0.00000000000E+00  0.56731016136E+03  0.56731016136E+03  0.00000000000E+00 0. -1.
         21   -1    0    0  501  503 -0.00000000000E+00 -0.00000000000E+00 -0.80878439479E+02  0.80878439479E+02  0.00000000000E+00 0. -1.
          6    1    1    2  501    0 -0.12208604550E+02 -0.56387609872E+02  0.73207668830E+02  0.19651202342E+03  0.17300000000E+03 0. -1.
         -6    1    1    2    0  502  0.12208604550E+02  0.56387609872E+02  0.41322405305E+03  0.45167657742E+03  0.17300000000E+03 0. -1.
</event>
<event>
 4    1  0.5959403E+000  0.1000000E+03  0.7546771E-02  0.1280296E+00
         21   -1    0    0  503  502  0.00000000000E+00  0.00000000000E+00  0.11641449399E+03  0.11641449399E+03  0.00000000000E+00 0. -1.
         21   -1    0    0  501  503 -0.00000000000E+00 -0.00000000000E+00 -0.44724942622E+03  0.44724942622E+03  0.00000000000E+00 0. -1.
          6    1    1    2  501    0  0.13255192460E+03 -0.43235031040E+02 -0.10126171283E+03  0.24417660639E+03  0.17300000000E+03 0. -1.
         -6    1    1    2    0  502 -0.13255192460E+03  0.43235031040E+02 -0.22957321940E+03  0.31948731381E+03  0.17300000000E+03 0. -1.
</event>
<event>
 4    1  0.5959403E+000  0.1000000E+03  0.7546771E-02  0.1280296E+00
         21   -1    0    0  503  502  0.00000000000E+00  0.00000000000E+00  0.44201828001E+02  0.44201828001E+02  0.00000000000E+00 0. -1.
         21   -1    0    0  501  503 -0.00000000000E+00 -0.00000000000E+00 -0.99830193451E+03  0.99830193451E+03  0.00000000000E+00 0. -1.
          6    1    1    2  501    0 -0.38878663111E+02  0.54166986375E+02 -0.72209565856E+03  0.74551777509E+03  0.17300000000E+03 0. -1.
         -6    1    1    2    0  502  0.38878663111E+02 -0.54166986375E+02 -0.23200444795E+03  0.29698598742E+03  0.17300000000E+03 0. -1.
</event>
<event>
 4    1  0.5959403E+000  0.1000000E+03  0.7546771E-02  0.1280296E+00
         21   -1    0    0  501  502  0.00000000000E+00  0.00000000000E+00  0.12635861471E+03  0.12635861471E+03  0.00000000000E+00 0.  1.
         21   -1    0    0  502  503 -0.00000000000E+00 -0.00000000000E+00 -0.43939163449E+03  0.43939163449E+03  0.00000000000E+00 0. -1.
          6    1    1    2  501    0 -0.29226442715E+02  0.15152479563E+03 -0.10589575649E+03  0.25486635691E+03  0.17300000000E+03 0. -1.
         -6    1    1    2    0  503  0.29226442715E+02 -0.15152479563E+03 -0.20713726329E+03  0.31088389229E+03  0.17300000000E+03 0.  1.
</event>
<event>
 4    1  0.5959403E+000  0.1000000E+03  0.7546771E-02  0.1280296E+00
         21   -1    0    0  501  502  0.00000000000E+00  0.00000000000E+00  0.18642899326E+03  0.18642899326E+03  0.00000000000E+00 0.  1.
         21   -1    0    0  502  503 -0.00000000000E+00 -0.00000000000E+00 -0.30047878736E+03  0.30047878736E+03  0.00000000000E+00 0. -1.
          6    1    1    2  501    0  0.11690122102E+03 -0.96762666039E+02 -0.12424286985E+00  0.23012588827E+03  0.17300000000E+03 0. -1.
         -6    1    1    2    0  503 -0.11690122102E+03  0.96762666039E+02 -0.11392555123E+03  0.25678189235E+03  0.17300000000E+03 0.  1.
</event>
<event>
 4    1  0.5959403E+000  0.1000000E+03  0.7546771E-02  0.1280296E+00
         21   -1    0    0  501  502  0.00000000000E+00  0.00000000000E+00  0.31808126622E+03  0.31808126622E+03  0.00000000000E+00 0. -1.
         21   -1    0    0  502  503 -0.00000000000E+00 -0.00000000000E+00 -0.21491857972E+03  0.21491857972E+03  0.00000000000E+00 0. -1.
          6    1    1    2  501    0 -0.10505927802E+03 -0.26874063999E+02  0.21804760790E+03  0.29871964537E+03  0.17300000000E+03 0. -1.
         -6    1    1    2    0  503  0.10505927802E+03  0.26874063999E+02 -0.11488492140E+03  0.23428020057E+03  0.17300000000E+03 0. -1.
</event>
<event>
 4    1  0.5959403E+000  0.1000000E+03  0.7546771E-02  0.1280296E+00
         21   -1    0    0  501  502  0.00000000000E+00  0.00000000000E+00  0.80288505507E+03  0.80288505507E+03  0.00000000000E+00 0. -1.
         21   -1    0    0  502  503 -0.00000000000E+00 -0.00000000000E+00 -0.42758395061E+02  0.42758395061E+02  0.00000000000E+00 0. -1.
          6    1    1    2  501    0 -0.54397647235E+02 -0.14816121964E+02  0.30027555983E+03  0.35110259658E+03  0.17300000000E+03 0. -1.
         -6    1    1    2    0  503  0.54397647235E+02  0.14816121964E+02  0.45985110018E+03  0.49454085356E+03  0.17300000000E+03 0. -1.
</event>
<event>
 4    1  0.5959403E+000  0.1000000E+03  0.7546771E-02  0.1280296E+00
         21   -1    0    0  501  502  0.00000000000E+00  0.00000000000E+00  0.19615813119E+03  0.19615813119E+03  0.00000000000E+00 0. -1.
         21   -1    0    0  502  503 -0.00000000000E+00 -0.00000000000E+00 -0.44184951986E+03  0.44184951986E+03  0.00000000000E+00 0.  1.
          6    1    1    2  501    0  0.41573779736E+01  0.11449407535E+03  0.10345423909E+03  0.23185762154E+03  0.17300000000E+03 0.  1.
         -6    1    1    2    0  503 -0.41573779736E+01 -0.11449407535E+03 -0.34914562776E+03  0.40615002950E+03  0.17300000000E+03 0. -1.
</event>
<event>
 4    1  0.5959403E+000  0.1000000E+03  0.7546771E-02  0.1280296E+00
         21   -1    0    0  501  502  0.00000000000E+00  0.00000000000E+00  0.64526342113E+02  0.64526342113E+02  0.00000000000E+00 0. -1.
         21   -1    0    0  502  503 -0.00000000000E+00 -0.00000000000E+00 -0.66296570105E+03  0.66296570105E+03  0.00000000000E+00 0.  1.
          6    1    1    2  501    0 -0.54067440184E+02  0.35398472497E+02 -0.46300658551E+03  0.49847812205E+03  0.17300000000E+03 0.  1.
         -6    1    1    2    0  503  0.54067440184E+02 -0.35398472497E+02 -0.13543277343E+03  0.22901392111E+03  0.17300000000E+03 0. -1.
</event>
<event>
 4    1  0.5959403E+000  0.1000000E+03  0.7546771E-02  0.1280296E+00
         21   -1    0    0  503  502  0.00000000000E+00  0.00000000000E+00  0.80355829341E+03  0.80355829341E+03  0.00000000000E+00 0. -1.
         21   -1    0    0  501  503 -0.00000000000E+00 -0.00000000000E+00 -0.88616482200E+02  0.88616482200E+02  0.00000000000E+00 0. -1.
          6    1    1    2  501    0 -0.24692094303E+02 -0.17177219328E+03  0.18084015685E+03  0.30454482139E+03  0.17300000000E+03 0. -1.
         -6    1    1    2    0  502  0.24692094303E+02  0.17177219328E+03  0.53410165437E+03  0.58762995422E+03  0.17300000000E+03 0. -1.
</event>
<event>
 4    1  0.5959403E+000  0.1000000E+03  0.7546771E-02  0.1280296E+00
         21   -1    0    0  501  502  0.00000000000E+00  0.00000000000E+00  0.58322482385E+03  0.58322482385E+03  0.00000000000E+00 0. -1.
         21   -1    0    0  502  503 -0.00000000000E+00 -0.00000000000E+00 -0.98287362559E+02  0.98287362559E+02  0.00000000000E+00 0. -1.
          6    1    1    2  501    0  0.68543791188E+02 -0.77206533569E+02  0.42658684535E+03  0.47176735449E+03  0.17300000000E+03 0. -1.
         -6    1    1    2    0  503 -0.68543791188E+02  0.77206533569E+02  0.58350615939E+02  0.20974483192E+03  0.17300000000E+03 0. -1.
</event>
<event>
 4    1  0.5959403E+000  0.1000000E+03  0.7546771E-02  0.1280296E+00
         21   -1    0    0  501  502  0.00000000000E+00  0.00000000000E+00  0.74405227500E+02  0.74405227500E+02  0.00000000000E+00 0.  1.
         21   -1    0    0  502  503 -0.00000000000E+00 -0.00000000000E+00 -0.76440016325E+03  0.76440016325E+03  0.00000000000E+00 0. -1.
          6    1    1    2  501    0  0.50346770158E+01 -0.16242184124E+03 -0.30412484074E+03  0.38578118311E+03  0.17300000000E+03 0. -1.
         -6    1    1    2    0  503 -0.50346770158E+01  0.16242184124E+03 -0.38587009502E+03  0.45302420765E+03  0.17300000000E+03 0.  1.
</event>
<event>
 4    1  0.5959403E+000  0.1000000E+03  0.7546771E-02  0.1280296E+00
         21   -1    0    0  501  502  0.00000000000E+00  0.00000000000E+00  0.11263920494E+03  0.11263920494E+03  0.00000000000E+00 0.  1.
         21   -1    0    0  502  503 -0.00000000000E+00 -0.00000000000E+00 -0.59839305452E+03  0.59839305452E+03  0.00000000000E+00 0. -1.
          6    1    1    2  501    0 -0.55282858376E+01 -0.86686067949E+02 -0.59777265269E+01  0.19367439050E+03  0.17300000000E+03 0. -1.
         -6    1    1    2    0  503  0.55282858376E+01  0.86686067949E+02 -0.47977612305E+03  0.51735786896E+03  0.17300000000E+03 0.  1.
</event>
<event>
 4    1  0.5959403E+000  0.1000000E+03  0.7546771E-02  0.1280296E+00
         21   -1    0    0  501  502  0.00000000000E+00  0.00000000000E+00  0.77487539019E+02  0.77487539019E+02  0.00000000000E+00 0.  1.
         21   -1    0    0  502  503 -0.00000000000E+00 -0.00000000000E+00 -0.62269911368E+03  0.62269911368E+03  0.00000000000E+00 0.  1.
          6    1    1    2  501    0 -0.78153856422E+02 -0.75295664796E+02 -0.14366739389E+03  0.24969337692E+03  0.17300000000E+03 0.  1.
         -6    1    1    2    0  503  0.78153856422E+02  0.75295664796E+02 -0.40154418077E+03  0.45049327578E+03  0.17300000000E+03 0.  1.
</event>
<event>
 4    1  0.5959403E+000  0.1000000E+03  0.7546771E-02  0.1280296E+00
         21   -1    0    0  501  502  0.00000000000E+00  0.00000000000E+00  0.11393822464E+03  0.11393822464E+03  0.00000000000E+00 0.  1.
         21   -1    0    0  502  503 -0.00000000000E+00 -0.00000000000E+00 -0.33066098943E+03  0.33066098943E+03  0.00000000000E+00 0.  1.
          6    1    1    2  501    0 -0.83896196292E+01 -0.70575307565E+02 -0.48909585022E+02  0.19331944357E+03  0.17300000000E+03 0.  1.
         -6    1    1    2    0  503  0.83896196292E+01  0.70575307565E+02 -0.16781317977E+03  0.25127977050E+03  0.17300000000E+03 0.  1.
</event>
<event>
 4    1  0.5959403E+000  0.1000000E+03  0.7546771E-02  0.1280296E+00
         21   -1    0    0  501  502  0.00000000000E+00  0.00000000000E+00  0.11231343675E+04  0.11231343675E+04  0.00000000000E+00 0.  1.
         21   -1    0    0  502  503 -0.00000000000E+00 -0.00000000000E+00 -0.12679684040E+03  0.12679684040E+03  0.00000000000E+00 0.  1.
          6    1    1    2  501    0 -0.24492335956E+03  0.56208595299E+02  0.86600909261E+03  0.91817623947E+03  0.17300000000E+03 0.  1.
         -6    1    1    2    0  503  0.24492335956E+03 -0.56208595299E+02  0.13032843450E+03  0.33175496843E+03  0.17300000000E+03 0.  1.
</event>
<event>
 4    1  0.5959403E+000  0.1000000E+03  0.7546771E-02  0.1280296E+00
         21   -1    0    0  501  502  0.00000000000E+00  0.00000000000E+00  0.30893335663E+03  0.30893335663E+03  0.00000000000E+00 0.  1.
         21   -1    0    0  502  503 -0.00000000000E+00 -0.00000000000E+00 -0.14867468221E+03  0.14867468221E+03  0.00000000000E+00 0.  1.
          6    1    1    2  501    0  0.10636571244E+03 -0.67208717393E+02  0.94085749503E+02  0.23369168735E+03  0.17300000000E+03 0.  1.
         -6    1    1    2    0  503 -0.10636571244E+03  0.67208717393E+02  0.66172924914E+02  0.22391635150E+03  0.17300000000E+03 0.  1.
</event>
<event>
 4    1  0.5959403E+000  0.1000000E+03  0.7546771E-02  0.1280296E+00
         21   -1    0    0  501  502  0.00000000000E+00  0.00000000000E+00  0.23611600642E+03  0.23611600642E+03  0.00000000000E+00 0.  1.
         21   -1    0    0  502  503 -0.00000000000E+00 -0.00000000000E+00 -0.22001762764E+03  0.22001762764E+03  0.00000000000E+00 0.  1.
          6    1    1    2  501    0  0.11375310964E+03 -0.66224487794E+02  0.76613659327E+02  0.23048667105E+03  0.17300000000E+03 0.  1.
         -6    1    1    2    0  503 -0.11375310964E+03  0.66224487794E+02 -0.60515280547E+02  0.22564696301E+03  0.17300000000E+03 0.  1.
</event>
<event>
 4    1  0.5959403E+000  0.1000000E+03  0.7546771E-02  0.1280296E+00
         21   -1    0    0  501  502  0.00000000000E+00  0.00000000000E+00  0.14716185829E+04  0.14716185829E+04  0.00000000000E+00 0.  1.
         21   -1    0    0  502  503 -0.00000000000E+00 -0.00000000000E+00 -0.55048088204E+02  0.55048088204E+02  0.00000000000E+00 0. -1.
          6    1    1    2  501    0 -0.59246643350E+02 -0.19918984206E+03  0.94656926172E+03  0.98443340311E+03  0.17300000000E+03 0.  1.
         -6    1    1    2    0  503  0.59246643350E+02  0.19918984206E+03  0.47000123302E+03  0.54223326804E+03  0.17300000000E+03 0. -1.
</event>
<event>
 4    1  0.5959403E+000  0.1000000E+03  0.7546771E-02  0.1280296E+00
         21   -1    0    0  501  502  0.00000000000E+00  0.00000000000E+00  0.37777440984E+03  0.37777440984E+03  0.00000000000E+00 0. -1.
         21   -1    0    0  502  503 -0.00000000000E+00 -0.00000000000E+00 -0.18740659955E+03  0.18740659955E+03  0.00000000000E+00 0.  1.
          6    1    1    2  501    0  0.13816084957E+03 -0.37481602764E+02  0.24678384022E+03  0.33365334510E+03  0.17300000000E+03 0. -1.
         -6    1    1    2    0  503 -0.13816084957E+03  0.37481602764E+02 -0.56416029926E+02  0.23152766429E+03  0.17300000000E+03 0.  1.
</event>
<event>
 4    1  0.5959403E+000  0.1000000E+03  0.7546771E-02  0.1280296E+00
         21   -1    0    0  503  502  0.00000000000E+00  0.00000000000E+00  0.56777678459E+02  0.56777678459E+02  0.00000000000E+00 0. -1.
         21   -1    0    0  501  503 -0.00000000000E+00 -0.00000000000E+00 -0.16015969801E+04  0.16015969801E+04  0.00000000000E+00 0.  1.
          6    1    1    2  501    0  0.10992687052E+03  0.21971979389E+03 -0.70256189422E+03  0.76412231998E+03  0.17300000000E+03 0.  1.
         -6    1    1    2    0  502 -0.10992687052E+03 -0.21971979389E+03 -0.84225740743E+03  0.89425233858E+03  0.17300000000E+03 0. -1.
</event>
<event>
 4    1  0.5959403E+000  0.1000000E+03  0.7546771E-02  0.1280296E+00
         21   -1    0    0  503  502  0.00000000000E+00  0.00000000000E+00  0.26160584648E+03  0.26160584648E+03  0.00000000000E+00 0.  1.
         21   -1    0    0  501  503 -0.00000000000E+00 -0.00000000000E+00 -0.22481676034E+03  0.22481676034E+03  0.00000000000E+00 0. -1.
          6    1    1    2  501    0  0.10258495078E+03 -0.99938231415E+02 -0.73372704325E+02  0.23627076832E+03  0.17300000000E+03 0.  1.
         -6    1    1    2    0  502 -0.10258495078E+03  0.99938231415E+02  0.11016179047E+03  0.25015183850E+03  0.17300000000E+03 0. -1.
</event>
<event>
 4    1  0.5959403E+000  0.1000000E+03  0.7546771E-02  0.1280296E+00
         21   -1    0    0  501  502  0.00000000000E+00  0.00000000000E+00  0.28237513804E+03  0.28237513804E+03  0.00000000000E+00 0.  1.
         21   -1    0    0  502  503 -0.00000000000E+00 -0.00000000000E+00 -0.12120507418E+03  0.12120507418E+03  0.00000000000E+00 0.  1.
          6    1    1    2  501    0  0.63571080048E+02  0.80959491573E+01  0.65570913493E+02  0.19579420652E+03  0.17300000000E+03 0.  1.
         -6    1    1    2    0  503 -0.63571080048E+02 -0.80959491573E+01  0.95599150369E+02  0.20778600569E+03  0.17300000000E+03 0.  1.
</event>
<event>
 4    1  0.5959403E+000  0.1000000E+03  0.7546771E-02  0.1280296E+00
         21   -1    0    0  501  502  0.00000000000E+00  0.00000000000E+00  0.44772489071E+02  0.44772489071E+02  0.00000000000E+00 0.  1.
         21   -1    0    0  502  503 -0.00000000000E+00 -0.00000000000E+00 -0.89375903082E+03  0.89375903082E+03  0.00000000000E+00 0.  1.
          6    1    1    2  501    0  0.69433200372E+02  0.51900821951E+02 -0.30551947329E+03  0.36164321257E+03  0.17300000000E+03 0.  1.
         -6    1    1    2    0  503 -0.69433200372E+02 -0.51900821951E+02 -0.54346706845E+03  0.57688830732E+03  0.17300000000E+03 0.  1.
</event>
<event>
 4    1  0.5959403E+000  0.1000000E+03  0.7546771E-02  0.1280296E+00
         21   -1    0    0  501  502  0.00000000000E+00  0.00000000000E+00  0.54916086391E+03  0.54916086391E+03  0.00000000000E+00 0.  1.
         21   -1    0    0  502  503 -0.00000000000E+00 -0.00000000000E+00 -0.18453048718E+03  0.18453048718E+03  0.00000000000E+00 0.  1.
          6    1    1    2  501    0 -0.38049430612E+02  0.40173153391E+01  0.48708704198E+03  0.51831137789E+03  0.17300000000E+03 0.  1.
         -6    1    1    2    0  503  0.38049430612E+02 -0.40173153391E+01 -0.12245666525E+03  0.21537997320E+03  0.17300000000E+03 0.  1.
</event>
<event>
 4    1  0.5959403E+000  0.1000000E+03  0.7546771E-02  0.1280296E+00
         21   -1    0    0  501  502  0.00000000000E+00  0.00000000000E+00  0.77874416999E+03  0.77874416999E+03  0.00000000000E+00 0.  1.
         21   -1    0    0  502  503 -0.00000000000E+00 -0.00000000000E+00 -0.10566264480E+03  0.10566264480E+03  0.00000000000E+00 0.  1.
          6    1    1    2  501    0  0.28242969412E+02 -0.12111270654E+02  0.68607619698E+03  0.70821881948E+03  0.17300000000E+03 0.  1.
         -6    1    1    2    0  503 -0.28242969412E+02  0.12111270654E+02 -0.12994671798E+02  0.17618799532E+03  0.17300000000E+03 0.  1.
</event>
<event>
 4    1  0.5959403E+000  0.1000000E+03  0.7546771E-02  0.1280296E+00
         21   -1    0    0  503  502  0.00000000000E+00  0.00000000000E+00  0.80853782781E+02  0.80853782781E+02  0.00000000000E+00 0. -1.
         21   -1    0    0  501  503 -0.00000000000E+00 -0.00000000000E+00 -0.39868692546E+03  0.39868692546E+03  0.00000000000E+00 0. -1.
          6    1    1    2  501    0  0.14405205029E+02 -0.11306494349E+02 -0.21820535677E+03  0.27906616504E+03  0.17300000000E+03 0. -1.
         -6    1    1    2    0  502 -0.14405205029E+02  0.11306494349E+02 -0.99627785905E+02  0.20047454320E+03  0.17300000000E+03 0. -1.
</event>
<event>
 4    1  0.5959403E+000  0.1000000E+03  0.7546771E-02  0.1280296E+00
         21   -1    0    0  503  502  0.00000000000E+00  0.00000000000E+00  0.86558518757E+03  0.86558518757E+03  0.00000000000E+00 0. -1.
         21   -1    0    0  501  503 -0.00000000000E+00 -0.00000000000E+00 -0.36274183835E+03  0.36274183835E+03  0.00000000000E+00 0. -1.
          6    1    1    2  501    0  0.23322580603E+03  0.25853100809E+03 -0.19084820131E+03  0.43311037241E+03  0.17300000000E+03 0. -1.
         -6    1    1    2    0  502 -0.23322580603E+03 -0.25853100809E+03  0.69369155053E+03  0.79521665351E+03  0.17300000000E+03 0. -1.
</event>
<event>
 4    1  0.5959403E+000  0.1000000E+03  0.7546771E-02  0.1280296E+00
         21   -1    0    0  501  502  0.00000000000E+00  0.00000000000E+00  0.24478345279E+04  0.24478345279E+04  0.00000000000E+00 0.  1.
         21   -1    0    0  502  503 -0.00000000000E+00 -0.00000000000E+00 -0.40451526059E+02  0.40451526059E+02  0.00000000000E+00 0.  1.
          6    1    1    2  501    0 -0.20354985651E+03 -0.32474729794E+02  0.55882031682E+03  0.62023890450E+03  0.17300000000E+03 0.  1.
         -6    1    1    2    0  503  0.20354985651E+03  0.32474729794E+02  0.18485626850E+04  0.18680471495E+04  0.17300000000E+03 0.  1.
</event>
<event>
 4    1  0.5959403E+000  0.1000000E+03  0.7546771E-02  0.1280296E+00
         21   -1    0    0  501  502  0.00000000000E+00  0.00000000000E+00  0.18933234911E+03  0.18933234911E+03  0.00000000000E+00 0.  1.
         21   -1    0    0  502  503 -0.00000000000E+00 -0.00000000000E+00 -0.59295898689E+03  0.59295898689E+03  0.00000000000E+00 0.  1.
          6    1    1    2  501    0 -0.28346642488E+03 -0.44516468019E+02 -0.20361727842E+03  0.39207642881E+03  0.17300000000E+03 0.  1.
         -6    1    1    2    0  503  0.28346642488E+03  0.44516468019E+02 -0.20000935936E+03  0.39021490719E+03  0.17300000000E+03 0.  1.
</event>
<event>
 4    1  0.5959403E+000  0.1000000E+03  0.7546771E-02  0.1280296E+00
         21   -1    0    0  501  502  0.00000000000E+00  0.00000000000E+00  0.42564537076E+03  0.42564537076E+03  0.00000000000E+00 0. -1.
         21   -1    0    0  502  503 -0.00000000000E+00 -0.00000000000E+00 -0.12789132611E+03  0.12789132611E+03  0.00000000000E+00 0. -1.
          6    1    1    2  501    0 -0.10376714957E+03  0.30119726295E+02  0.28325499729E+03  0.34905187685E+03  0.17300000000E+03 0. -1.
         -6    1    1    2    0  503  0.10376714957E+03 -0.30119726295E+02  0.14499047362E+02  0.20448482002E+03  0.17300000000E+03 0. -1.
</event>
<event>
 4    1  0.5959403E+000  0.1000000E+03  0.7546771E-02  0.1280296E+00
         21   -1    0    0  501  502  0.00000000000E+00  0.00000000000E+00  0.57053039661E+02  0.57053039661E+02  0.00000000000E+00 0.  1.
         21   -1    0    0  502  503 -0.00000000000E+00 -0.00000000000E+00 -0.89611057601E+03  0.89611057601E+03  0.00000000000E+00 0. -1.
          6    1    1    2  501    0  0.11774492200E+03  0.48450731330E+02 -0.27070534627E+03  0.34557448477E+03  0.17300000000E+03 0.  1.
         -6    1    1    2    0  503 -0.11774492200E+03 -0.48450731330E+02 -0.56835219007E+03  0.60758913090E+03  0.17300000000E+03 0. -1.
</event>
<event>
 4    1  0.5959403E+000  0.1000000E+03  0.7546771E-02  0.1280296E+00
         21   -1    0    0  501  502  0.00000000000E+00  0.00000000000E+00  0.36585388586E+03  0.36585388586E+03  0.00000000000E+00 0.  1.
         21   -1    0    0  502  503 -0.00000000000E+00 -0.00000000000E+00 -0.15481324834E+03  0.15481324834E+03  0.00000000000E+00 0. -1.
          6    1    1    2  501    0  0.10721518736E+03  0.90344279901E+02  0.19738622954E+03  0.29756933465E+03  0.17300000000E+03 0.  1.
         -6    1    1    2    0  503 -0.10721518736E+03 -0.90344279901E+02  0.13654407982E+02  0.22309779956E+03  0.17300000000E+03 0. -1.
</event>
<event>
 4    1  0.5959403E+000  0.1000000E+03  0.7546771E-02  0.1280296E+00
         21   -1    0    0  501  502  0.00000000000E+00  0.00000000000E+00  0.68398724786E+03  0.68398724786E+03  0.00000000000E+00 0.  1.
         21   -1    0    0  502  503 -0.00000000000E+00 -0.00000000000E+00 -0.11410087267E+03  0.11410087267E+03  0.00000000000E+00 0. -1.
          6    1    1    2  501    0  0.13954379881E+03 -0.95125187622E+02  0.48488600765E+03  0.54181612520E+03  0.17300000000E+03 0.  1.
         -6    1    1    2    0  503 -0.13954379881E+03  0.95125187622E+02  0.85000367546E+02  0.25627199533E+03  0.17300000000E+03 0. -1.
</event>
<event>
 4    1  0.5959403E+000  0.1000000E+03  0.7546771E-02  0.1280296E+00
         21   -1    0    0  501  502  0.00000000000E+00  0.00000000000E+00  0.56391760148E+02  0.56391760148E+02  0.00000000000E+00 0.  1.
         21   -1    0    0  502  503 -0.00000000000E+00 -0.00000000000E+00 -0.11303271277E+04  0.11303271277E+04  0.00000000000E+00 0. -1.
          6    1    1    2  501    0 -0.63817675173E+02 -0.43203882160E+02 -0.14459499959E+03  0.23827711809E+03  0.17300000000E+03 0.  1.
         -6    1    1    2    0  503  0.63817675173E+02  0.43203882160E+02 -0.92934036801E+03  0.94844176981E+03  0.17300000000E+03 0. -1.
</event>
<event>
 4    1  0.5959403E+000  0.1000000E+03  0.7546771E-02  0.1280296E+00
         21   -1    0    0  503  502  0.00000000000E+00  0.00000000000E+00  0.56038159755E+03  0.56038159755E+03  0.00000000000E+00 0.  1.
         21   -1    0    0  501  503 -0.00000000000E+00 -0.00000000000E+00 -0.12038576385E+03  0.12038576385E+03  0.00000000000E+00 0.  1.
          6    1    1    2  501    0 -0.24983404500E+00 -0.11927657579E+03  0.19931991247E+02  0.21107640376E+03  0.17300000000E+03 0. -1.
         -6    1    1    2    0  502  0.24983404500E+00  0.11927657579E+03  0.42006384246E+03  0.46969095764E+03  0.17300000000E+03 0. -1.
</event>
<event>
 4    1  0.5959403E+000  0.1000000E+03  0.7546771E-02  0.1280296E+00
         21   -1    0    0  501  502  0.00000000000E+00  0.00000000000E+00  0.16532130803E+04  0.16532130803E+04  0.00000000000E+00 0.  1.
         21   -1    0    0  502  503 -0.00000000000E+00 -0.00000000000E+00 -0.15275063806E+03  0.15275063806E+03  0.00000000000E+00 0.  1.
          6    1    1    2  501    0 -0.15908363385E+03  0.33288512542E+02  0.15461258561E+04  0.15642409950E+04  0.17300000000E+03 0. -1.
         -6    1    1    2    0  503  0.15908363385E+03 -0.33288512542E+02 -0.45663413833E+02  0.24172272336E+03  0.17300000000E+03 0. -1.
</event>
<event>
 4    1  0.5959403E+000  0.1000000E+03  0.7546771E-02  0.1280296E+00
         21   -1    0    0  501  502  0.00000000000E+00  0.00000000000E+00  0.31370451566E+03  0.31370451566E+03  0.00000000000E+00 0.  1.
         21   -1    0    0  502  503 -0.00000000000E+00 -0.00000000000E+00 -0.33849137823E+03  0.33849137823E+03  0.00000000000E+00 0.  1.
          6    1    1    2  501    0  0.14730210184E+03  0.16090715971E+03  0.15704599412E+03  0.31965836063E+03  0.17300000000E+03 0.  1.
         -6    1    1    2    0  503 -0.14730210184E+03 -0.16090715971E+03 -0.18183285670E+03  0.33253753326E+03  0.17300000000E+03 0.  1.
</event>
<event>
 4    1  0.5959403E+000  0.1000000E+03  0.7546771E-02  0.1280296E+00
         21   -1    0    0  501  502  0.00000000000E+00  0.00000000000E+00  0.10686910284E+03  0.10686910284E+03  0.00000000000E+00 0.  1.
         21   -1    0    0  502  503 -0.00000000000E+00 -0.00000000000E+00 -0.47037315884E+03  0.47037315884E+03  0.00000000000E+00 0.  1.
          6    1    1    2  501    0 -0.65221698535E+02 -0.18076104499E+02 -0.20151956430E+02  0.18685747740E+03  0.17300000000E+03 0.  1.
         -6    1    1    2    0  503  0.65221698535E+02  0.18076104499E+02 -0.34335209957E+03  0.39038478427E+03  0.17300000000E+03 0.  1.
</event>
<event>
 4    1  0.5959403E+000  0.1000000E+03  0.7546771E-02  0.1280296E+00
         21   -1    0    0  501  502  0.00000000000E+00  0.00000000000E+00  0.71774146300E+02  0.71774146300E+02  0.00000000000E+00 0.  1.
         21   -1    0    0  502  503 -0.00000000000E+00 -0.00000000000E+00 -0.74079480543E+03  0.74079480543E+03  0.00000000000E+00 0.  1.
          6    1    1    2  501    0 -0.32967413086E+02  0.14315941672E+03 -0.40628625248E+03  0.46538047646E+03  0.17300000000E+03 0.  1.
         -6    1    1    2    0  503  0.32967413086E+02 -0.14315941672E+03 -0.26273440665E+03  0.34718847527E+03  0.17300000000E+03 0.  1.
</event>
<event>
 4    1  0.5959403E+000  0.1000000E+03  0.7546771E-02  0.1280296E+00
         21   -1    0    0  501  502  0.00000000000E+00  0.00000000000E+00  0.81713838751E+03  0.81713838751E+03  0.00000000000E+00 0.  1.
         21   -1    0    0  502  503 -0.00000000000E+00 -0.00000000000E+00 -0.83061106856E+02  0.83061106856E+02  0.00000000000E+00 0.  1.
          6    1    1    2  501    0 -0.15587011998E+03  0.10143915927E+03  0.46715472272E+03  0.53174047457E+03  0.17300000000E+03 0.  1.
         -6    1    1    2    0  503  0.15587011998E+03 -0.10143915927E+03  0.26692255793E+03  0.36845901980E+03  0.17300000000E+03 0.  1.
</event>
<event>
 4    1  0.5959403E+000  0.1000000E+03  0.7546771E-02  0.1280296E+00
         21   -1    0    0  501  502  0.00000000000E+00  0.00000000000E+00  0.48597947481E+03  0.48597947481E+03  0.00000000000E+00 0.  1.
         21   -1    0    0  502  503 -0.00000000000E+00 -0.00000000000E+00 -0.18767897843E+03  0.18767897843E+03  0.00000000000E+00 0.  1.
          6    1    1    2  501    0 -0.69284627717E+02  0.17448849268E+03  0.32909999572E+03  0.41651218578E+03  0.17300000000E+03 0.  1.
         -6    1    1    2    0  503  0.69284627717E+02 -0.17448849268E+03 -0.30799499343E+02  0.25714626747E+03  0.17300000000E+03 0.  1.
</event>
<event>
 4    1  0.5959403E+000  0.1000000E+03  0.7546771E-02  0.1280296E+00
         21   -1    0    0  501  502  0.00000000000E+00  0.00000000000E+00  0.19131120790E+04  0.19131120790E+04  0.00000000000E+00 0. -1.
         21   -1    0    0  502  503 -0.00000000000E+00 -0.00000000000E+00 -0.30136348620E+02  0.30136348620E+02  0.00000000000E+00 0. -1.
          6    1    1    2  501    0  0.74005072110E+01  0.42783877218E+02  0.15919603562E+04  0.16019213475E+04  0.17300000000E+03 0. -1.
         -6    1    1    2    0  503 -0.74005072110E+01 -0.42783877218E+02  0.29101537416E+03  0.34132708017E+03  0.17300000000E+03 0. -1.
</event>
<event>
 4    1  0.5959403E+000  0.1000000E+03  0.7546771E-02  0.1280296E+00
         21   -1    0    0  501  502  0.00000000000E+00  0.00000000000E+00  0.25455537205E+03  0.25455537205E+03  0.00000000000E+00 0. -1.
         21   -1    0    0  502  503 -0.00000000000E+00 -0.00000000000E+00 -0.30996316419E+03  0.30996316419E+03  0.00000000000E+00 0. -1.
          6    1    1    2  501    0  0.45584883895E+02  0.21428014032E+03  0.37501883325E+01  0.27917203314E+03  0.17300000000E+03 0. -1.
         -6    1    1    2    0  503 -0.45584883895E+02 -0.21428014032E+03 -0.59157980466E+02  0.28534650310E+03  0.17300000000E+03 0. -1.
</event>
<event>
 4    1  0.5959403E+000  0.1000000E+03  0.7546771E-02  0.1280296E+00
         21   -1    0    0  501  502  0.00000000000E+00  0.00000000000E+00  0.22449172523E+04  0.22449172523E+04  0.00000000000E+00 0. -1.
         21   -1    0    0  502  503 -0.00000000000E+00 -0.00000000000E+00 -0.47405267045E+02  0.47405267045E+02  0.00000000000E+00 0. -1.
          6    1    1    2  501    0  0.13483346583E+03 -0.57643540339E+02  0.19226482241E+04  0.19359772816E+04  0.17300000000E+03 0. -1.
         -6    1    1    2    0  503 -0.13483346583E+03  0.57643540339E+02  0.27486376108E+03  0.35634523766E+03  0.17300000000E+03 0. -1.
</event>
<event>
 4    1  0.5959403E+000  0.1000000E+03  0.7546771E-02  0.1280296E+00
         21   -1    0    0  501  502  0.00000000000E+00  0.00000000000E+00  0.95816161224E+02  0.95816161224E+02  0.00000000000E+00 0. -1.
         21   -1    0    0  502  503 -0.00000000000E+00 -0.00000000000E+00 -0.14044860589E+04  0.14044860589E+04  0.00000000000E+00 0. -1.
          6    1    1    2  501    0  0.44499457708E+02  0.27834943689E+03 -0.32981577854E+03  0.46708249649E+03  0.17300000000E+03 0. -1.
         -6    1    1    2    0  503 -0.44499457708E+02 -0.27834943689E+03 -0.97885411911E+03  0.10332197236E+04  0.17300000000E+03 0. -1.
</event>
<event>
 4    1  0.5959403E+000  0.1000000E+03  0.7546771E-02  0.1280296E+00
         21   -1    0    0  503  502  0.00000000000E+00  0.00000000000E+00  0.12757650644E+03  0.12757650644E+03  0.00000000000E+00 0.  1.
         21   -1    0    0  501  503 -0.00000000000E+00 -0.00000000000E+00 -0.31211869988E+03  0.31211869988E+03  0.00000000000E+00 0.  1.
          6    1    1    2  501    0  0.74154266454E+02 -0.32608402374E+02 -0.15582736235E+03  0.24652247361E+03  0.17300000000E+03 0.  1.
         -6    1    1    2    0  502 -0.74154266454E+02  0.32608402374E+02 -0.28714831100E+02  0.19317273271E+03  0.17300000000E+03 0.  1.
</event>
<event>
 4    1  0.5959403E+000  0.1000000E+03  0.7546771E-02  0.1280296E+00
         21   -1    0    0  503  502  0.00000000000E+00  0.00000000000E+00  0.90269829883E+02  0.90269829883E+02  0.00000000000E+00 0.  1.
         21   -1    0    0  501  503 -0.00000000000E+00 -0.00000000000E+00 -0.68876811953E+03  0.68876811953E+03  0.00000000000E+00 0.  1.
          6    1    1    2  501    0  0.97874440616E+02  0.11366897633E+02 -0.53376509761E+03  0.56968657340E+03  0.17300000000E+03 0.  1.
         -6    1    1    2    0  502 -0.97874440616E+02 -0.11366897633E+02 -0.64733192041E+02  0.20935137602E+03  0.17300000000E+03 0.  1.
</event>
<event>
 4    1  0.5959403E+000  0.1000000E+03  0.7546771E-02  0.1280296E+00
         21   -1    0    0  503  502  0.00000000000E+00  0.00000000000E+00  0.78044434486E+03  0.78044434486E+03  0.00000000000E+00 0.  1.
         21   -1    0    0  501  503 -0.00000000000E+00 -0.00000000000E+00 -0.18435136278E+03  0.18435136278E+03  0.00000000000E+00 0.  1.
          6    1    1    2  501    0 -0.22506868118E+02 -0.26845614025E+03  0.39366396401E+02  0.32257397836E+03  0.17300000000E+03 0.  1.
         -6    1    1    2    0  502  0.22506868118E+02  0.26845614025E+03  0.55672658568E+03  0.64222172927E+03  0.17300000000E+03 0.  1.
</event>
<event>
 4    1  0.5959403E+000  0.1000000E+03  0.7546771E-02  0.1280296E+00
         21   -1    0    0  501  502  0.00000000000E+00  0.00000000000E+00  0.19189524464E+03  0.19189524464E+03  0.00000000000E+00 0. -1.
         21   -1    0    0  502  503 -0.00000000000E+00 -0.00000000000E+00 -0.64996598710E+03  0.64996598710E+03  0.00000000000E+00 0.  1.
          6    1    1    2  501    0 -0.24059726319E+03  0.98007019492E+02 -0.42598081497E+03  0.52809191780E+03  0.17300000000E+03 0.  1.
         -6    1    1    2    0  503  0.24059726319E+03 -0.98007019492E+02 -0.32089927485E+02  0.31376931394E+03  0.17300000000E+03 0. -1.
</event>
<event>
 4    1  0.5959403E+000  0.1000000E+03  0.7546771E-02  0.1280296E+00
         21   -1    0    0  503  502  0.00000000000E+00  0.00000000000E+00  0.40585763861E+03  0.40585763861E+03  0.00000000000E+00 0. -1.
         21   -1    0    0  501  503 -0.00000000000E+00 -0.00000000000E+00 -0.97571935655E+02  0.97571935655E+02  0.00000000000E+00 0.  1.
          6    1    1    2  501    0 -0.68623515802E+02 -0.43187271659E+02  0.83749900608E+02  0.20860818106E+03  0.17300000000E+03 0.  1.
         -6    1    1    2    0  502  0.68623515802E+02  0.43187271659E+02  0.22453580235E+03  0.29482139320E+03  0.17300000000E+03 0. -1.
</event>
<event>
 4    1  0.5959403E+000  0.1000000E+03  0.7546771E-02  0.1280296E+00
         21   -1    0    0  503  502  0.00000000000E+00  0.00000000000E+00  0.93481733465E+03  0.93481733465E+03  0.00000000000E+00 0. -1.
         21   -1    0    0  501  503 -0.00000000000E+00 -0.00000000000E+00 -0.10634197430E+03  0.10634197430E+03  0.00000000000E+00 0.  1.
          6    1    1    2  501    0  0.16963726221E+03  0.74938153534E+02  0.10495495034E+03  0.27447599018E+03  0.17300000000E+03 0.  1.
         -6    1    1    2    0  502 -0.16963726221E+03 -0.74938153534E+02  0.72352041000E+03  0.76668331877E+03  0.17300000000E+03 0. -1.
</event>
<event>
 4    1  0.5959403E+000  0.1000000E+03  0.7546771E-02  0.1280296E+00
         21   -1    0    0  503  502  0.00000000000E+00  0.00000000000E+00  0.67007856900E+02  0.67007856900E+02  0.00000000000E+00 0. -1.
         21   -1    0    0  501  503 -0.00000000000E+00 -0.00000000000E+00 -0.10667184522E+04  0.10667184522E+04  0.00000000000E+00 0.  1.
          6    1    1    2  501    0 -0.19166843665E+03  0.65031095746E+02 -0.55108000627E+03  0.61203268404E+03  0.17300000000E+03 0.  1.
         -6    1    1    2    0  502  0.19166843665E+03 -0.65031095746E+02 -0.44863058906E+03  0.52169362509E+03  0.17300000000E+03 0. -1.
</event>
<event>
 4    1  0.5959403E+000  0.1000000E+03  0.7546771E-02  0.1280296E+00
         21   -1    0    0  503  502  0.00000000000E+00  0.00000000000E+00  0.19154169506E+04  0.19154169506E+04  0.00000000000E+00 0. -1.
         21   -1    0    0  501  503 -0.00000000000E+00 -0.00000000000E+00 -0.34185061954E+02  0.34185061954E+02  0.00000000000E+00 0.  1.
          6    1    1    2  501    0 -0.10660082116E+03 -0.49298668877E+02  0.37872609511E+03  0.43261593699E+03  0.17300000000E+03 0.  1.
         -6    1    1    2    0  502  0.10660082116E+03  0.49298668877E+02  0.15025057936E+04  0.15169860756E+04  0.17300000000E+03 0.  1.
</event>
<event>
 4    1  0.5959403E+000  0.1000000E+03  0.7546771E-02  0.1280296E+00
         21   -1    0    0  503  502  0.00000000000E+00  0.00000000000E+00  0.25558129868E+03  0.25558129868E+03  0.00000000000E+00 0. -1.
         21   -1    0    0  501  503 -0.00000000000E+00 -0.00000000000E+00 -0.35889661593E+03  0.35889661593E+03  0.00000000000E+00 0.  1.
          6    1    1    2  501    0 -0.50315227309E+02 -0.22685361233E+03  0.37958827576E+02  0.29217127874E+03  0.17300000000E+03 0.  1.
         -6    1    1    2    0  502  0.50315227309E+02  0.22685361233E+03 -0.14127414483E+03  0.32230663587E+03  0.17300000000E+03 0.  1.
</event>
<event>
 4    1  0.5959403E+000  0.1000000E+03  0.7546771E-02  0.1280296E+00
         21   -1    0    0  501  502  0.00000000000E+00  0.00000000000E+00  0.14792413718E+03  0.14792413718E+03  0.00000000000E+00 0.  1.
         21   -1    0    0  502  503 -0.00000000000E+00 -0.00000000000E+00 -0.67769653029E+03  0.67769653029E+03  0.00000000000E+00 0. -1.
          6    1    1    2  501    0 -0.51495121518E+02  0.55795867294E+02 -0.59615011801E+03  0.62537100152E+03  0.17300000000E+03 0.  1.
         -6    1    1    2    0  503  0.51495121518E+02 -0.55795867294E+02  0.66377724898E+02  0.20024966594E+03  0.17300000000E+03 0. -1.
</event>
<event>
 4    1  0.5959403E+000  0.1000000E+03  0.7546771E-02  0.1280296E+00
         21   -1    0    0  503  502  0.00000000000E+00  0.00000000000E+00  0.10506549089E+03  0.10506549089E+03  0.00000000000E+00 0. -1.
         21   -1    0    0  501  503 -0.00000000000E+00 -0.00000000000E+00 -0.72824763408E+03  0.72824763408E+03  0.00000000000E+00 0. -1.
          6    1    1    2  501    0 -0.16501063451E+02 -0.48941071097E+02 -0.62725566301E+03  0.65272213101E+03  0.17300000000E+03 0. -1.
         -6    1    1    2    0  502  0.16501063451E+02  0.48941071097E+02  0.40735198255E+01  0.18059099396E+03  0.17300000000E+03 0. -1.
</event>
<event>
 4    1  0.5959403E+000  0.1000000E+03  0.7546771E-02  0.1280296E+00
         21   -1    0    0  501  502  0.00000000000E+00  0.00000000000E+00  0.49256263838E+03  0.49256263838E+03  0.00000000000E+00 0. -1.
         21   -1    0    0  502  503 -0.00000000000E+00 -0.00000000000E+00 -0.16584603166E+03  0.16584603166E+03  0.00000000000E+00 0.  1.
          6    1    1    2  501    0 -0.17781138402E+03 -0.11830938860E+03  0.25366049784E+03  0.37401423486E+03  0.17300000000E+03 0. -1.
         -6    1    1    2    0  503  0.17781138402E+03  0.11830938860E+03  0.73056108877E+02  0.28439443518E+03  0.17300000000E+03 0.  1.
</event>
<event>
 4    1  0.5959403E+000  0.1000000E+03  0.7546771E-02  0.1280296E+00
         21   -1    0    0  501  502  0.00000000000E+00  0.00000000000E+00  0.79628689316E+03  0.79628689316E+03  0.00000000000E+00 0.  1.
         21   -1    0    0  502  503 -0.00000000000E+00 -0.00000000000E+00 -0.16656620173E+03  0.16656620173E+03  0.00000000000E+00 0.  1.
          6    1    1    2  501    0  0.15408508165E+03 -0.14668764184E+03  0.63169431057E+03  0.68864081977E+03  0.17300000000E+03 0.  1.
         -6    1    1    2    0  503 -0.15408508165E+03  0.14668764184E+03 -0.19736191372E+01  0.27421227512E+03  0.17300000000E+03 0.  1.
</event>
<event>
 4    1  0.5959403E+000  0.1000000E+03  0.7546771E-02  0.1280296E+00
         21   -1    0    0  503  502  0.00000000000E+00  0.00000000000E+00  0.95165875662E+02  0.95165875662E+02  0.00000000000E+00 0. -1.
         21   -1    0    0  501  503 -0.00000000000E+00 -0.00000000000E+00 -0.44380321916E+03  0.44380321916E+03  0.00000000000E+00 0. -1.
          6    1    1    2  501    0 -0.10469173290E+03  0.80876218659E+01 -0.22123554136E+03  0.29983317583E+03  0.17300000000E+03 0. -1.
         -6    1    1    2    0  502  0.10469173290E+03 -0.80876218659E+01 -0.12740180213E+03  0.23913591899E+03  0.17300000000E+03 0. -1.
</event>
<event>
 4    1  0.5959403E+000  0.1000000E+03  0.7546771E-02  0.1280296E+00
         21   -1    0    0  503  502  0.00000000000E+00  0.00000000000E+00  0.16528252264E+03  0.16528252264E+03  0.00000000000E+00 0. -1.
         21   -1    0    0  501  503 -0.00000000000E+00 -0.00000000000E+00 -0.63704059511E+03  0.63704059511E+03  0.00000000000E+00 0. -1.
          6    1    1    2  501    0 -0.47729395595E+02  0.25200981950E+02 -0.56864581424E+03  0.59682513917E+03  0.17300000000E+03 0. -1.
         -6    1    1    2    0  502  0.47729395595E+02 -0.25200981950E+02  0.96887741766E+02  0.20549797858E+03  0.17300000000E+03 0. -1.
</event>
<event>
 4    1  0.5959403E+000  0.1000000E+03  0.7546771E-02  0.1280296E+00
         21   -1    0    0  501  502  0.00000000000E+00  0.00000000000E+00  0.89082296631E+02  0.89082296631E+02  0.00000000000E+00 0.  1.
         21   -1    0    0  502  503 -0.00000000000E+00 -0.00000000000E+00 -0.57547240469E+03  0.57547240469E+03  0.00000000000E+00 0.  1.
          6    1    1    2  501    0 -0.43729955825E+02 -0.12809629846E+02 -0.39533178156E+02  0.18321645076E+03  0.17300000000E+03 0.  1.
         -6    1    1    2    0  503  0.43729955825E+02  0.12809629846E+02 -0.44685692991E+03  0.48133825057E+03  0.17300000000E+03 0.  1.
</event>
<event>
 4    1  0.5959403E+000  0.1000000E+03  0.7546771E-02  0.1280296E+00
         21   -1    0    0  501  502  0.00000000000E+00  0.00000000000E+00  0.58757775033E+03  0.58757775033E+03  0.00000000000E+00 0.  1.
         21   -1    0    0  502  503 -0.00000000000E+00 -0.00000000000E+00 -0.40743691126E+03  0.40743691126E+03  0.00000000000E+00 0.  1.
          6    1    1    2  501    0 -0.18911288822E+03 -0.10770746658E+03  0.49946104024E+03  0.57162480139E+03  0.17300000000E+03 0.  1.
         -6    1    1    2    0  503  0.18911288822E+03  0.10770746658E+03 -0.31932020117E+03  0.42338986020E+03  0.17300000000E+03 0.  1.
</event>
<event>
 4    1  0.5959403E+000  0.1000000E+03  0.7546771E-02  0.1280296E+00
         21   -1    0    0  501  502  0.00000000000E+00  0.00000000000E+00  0.18730817216E+03  0.18730817216E+03  0.00000000000E+00 0.  1.
         21   -1    0    0  502  503 -0.00000000000E+00 -0.00000000000E+00 -0.26333280581E+03  0.26333280581E+03  0.00000000000E+00 0.  1.
          6    1    1    2  501    0  0.35273571140E+02 -0.83311922957E+02 -0.14543059077E+03  0.24344230951E+03  0.17300000000E+03 0.  1.
         -6    1    1    2    0  503 -0.35273571140E+02  0.83311922957E+02  0.69405957116E+02  0.20719866846E+03  0.17300000000E+03 0.  1.
</event>
<event>
 4    1  0.5959403E+000  0.1000000E+03  0.7546771E-02  0.1280296E+00
         21   -1    0    0  501  502  0.00000000000E+00  0.00000000000E+00  0.15883139628E+04  0.15883139628E+04  0.00000000000E+00 0.  1.
         21   -1    0    0  502  503 -0.00000000000E+00 -0.00000000000E+00 -0.13441525557E+03  0.13441525557E+03  0.00000000000E+00 0.  1.
          6    1    1    2  501    0  0.19755400887E+03 -0.33067527465E+03  0.37723796563E+03  0.56622540247E+03  0.17300000000E+03 0.  1.
         -6    1    1    2    0  503 -0.19755400887E+03  0.33067527465E+03  0.10766607416E+04  0.11565038159E+04  0.17300000000E+03 0.  1.
</event>
<event>
 4    1  0.5959403E+000  0.1000000E+03  0.7546771E-02  0.1280296E+00
         21   -1    0    0  501  502  0.00000000000E+00  0.00000000000E+00  0.44992808418E+03  0.44992808418E+03  0.00000000000E+00 0.  1.
         21   -1    0    0  502  503 -0.00000000000E+00 -0.00000000000E+00 -0.12937385930E+03  0.12937385930E+03  0.00000000000E+00 0.  1.
          6    1    1    2  501    0 -0.10548509214E+03  0.13340479585E+00  0.31751160117E+03  0.37665599602E+03  0.17300000000E+03 0.  1.
         -6    1    1    2    0  503  0.10548509214E+03 -0.13340479585E+00  0.30426237121E+01  0.20264594745E+03  0.17300000000E+03 0.  1.
</event>
<event>
 4    1  0.5959403E+000  0.1000000E+03  0.7546771E-02  0.1280296E+00
         21   -1    0    0  501  502  0.00000000000E+00  0.00000000000E+00  0.73892889412E+03  0.73892889412E+03  0.00000000000E+00 0.  1.
         21   -1    0    0  502  503 -0.00000000000E+00 -0.00000000000E+00 -0.19428084972E+03  0.19428084972E+03  0.00000000000E+00 0.  1.
          6    1    1    2  501    0 -0.25910388637E+03 -0.16502462703E+02  0.53709155484E+03  0.62113081833E+03  0.17300000000E+03 0.  1.
         -6    1    1    2    0  503  0.25910388637E+03  0.16502462703E+02  0.75564895618E+01  0.31207892550E+03  0.17300000000E+03 0.  1.
</event>
<event>
 4    1  0.5959403E+000  0.1000000E+03  0.7546771E-02  0.1280296E+00
         21   -1    0    0  501  502  0.00000000000E+00  0.00000000000E+00  0.75968411483E+02  0.75968411483E+02  0.00000000000E+00 0.  1.
         21   -1    0    0  502  503 -0.00000000000E+00 -0.00000000000E+00 -0.11695264939E+04  0.11695264939E+04  0.00000000000E+00 0.  1.
          6    1    1    2  501    0  0.55961395852E+01  0.60624023575E+02 -0.55865396886E+02  0.19171993006E+03  0.17300000000E+03 0.  1.
         -6    1    1    2    0  503 -0.55961395852E+01 -0.60624023575E+02 -0.10376926855E+04  0.10537749753E+04  0.17300000000E+03 0.  1.
</event>
<event>
 4    1  0.5959403E+000  0.1000000E+03  0.7546771E-02  0.1280296E+00
         21   -1    0    0  501  502  0.00000000000E+00  0.00000000000E+00  0.10233476312E+03  0.10233476312E+03  0.00000000000E+00 0. -1.
         21   -1    0    0  502  503 -0.00000000000E+00 -0.00000000000E+00 -0.56957885024E+03  0.56957885024E+03  0.00000000000E+00 0. -1.
          6    1    1    2  501    0  0.15429685118E+03 -0.53771448769E+02 -0.29031468508E+03  0.37538047812E+03  0.17300000000E+03 0. -1.
         -6    1    1    2    0  503 -0.15429685118E+03  0.53771448769E+02 -0.17692940204E+03  0.29653313524E+03  0.17300000000E+03 0. -1.
</event>
<event>
 4    1  0.5959403E+000  0.1000000E+03  0.7546771E-02  0.1280296E+00
         21   -1    0    0  501  502  0.00000000000E+00  0.00000000000E+00  0.26715513228E+03  0.26715513228E+03  0.00000000000E+00 0. -1.
         21   -1    0    0  502  503 -0.00000000000E+00 -0.00000000000E+00 -0.58662967346E+03  0.58662967346E+03  0.00000000000E+00 0. -1.
          6    1    1    2  501    0 -0.55516938485E+02 -0.32151310668E+03 -0.59491236711E+01  0.36934699173E+03  0.17300000000E+03 0. -1.
         -6    1    1    2    0  503  0.55516938485E+02  0.32151310668E+03 -0.31352541751E+03  0.48443781402E+03  0.17300000000E+03 0. -1.
</event>
<event>
 4    1  0.5959403E+000  0.1000000E+03  0.7546771E-02  0.1280296E+00
         21   -1    0    0  501  502  0.00000000000E+00  0.00000000000E+00  0.64933302793E+03  0.64933302793E+03  0.00000000000E+00 0. -1.
         21   -1    0    0  502  503 -0.00000000000E+00 -0.00000000000E+00 -0.14534157321E+03  0.14534157321E+03  0.00000000000E+00 0. -1.
          6    1    1    2  501    0  0.11149281711E+03 -0.14879363314E+03  0.47555417729E+03  0.53912055152E+03  0.17300000000E+03 0. -1.
         -6    1    1    2    0  503 -0.11149281711E+03  0.14879363314E+03  0.28437277438E+02  0.25555404962E+03  0.17300000000E+03 0. -1.
</event>
<event>
 4    1  0.5959403E+000  0.1000000E+03  0.7546771E-02  0.1280296E+00
         21   -1    0    0  503  502  0.00000000000E+00  0.00000000000E+00  0.54910844029E+03  0.54910844029E+03  0.00000000000E+00 0. -1.
         21   -1    0    0  501  503 -0.00000000000E+00 -0.00000000000E+00 -0.90439861685E+02  0.90439861685E+02  0.00000000000E+00 0.  1.
          6    1    1    2  501    0  0.11680618216E+02 -0.13226947377E+03  0.16356695274E+03  0.27260740738E+03  0.17300000000E+03 0.  1.
         -6    1    1    2    0  502 -0.11680618216E+02  0.13226947377E+03  0.29510162586E+03  0.36694089459E+03  0.17300000000E+03 0. -1.
</event>
<event>
 4    1  0.5959403E+000  0.1000000E+03  0.7546771E-02  0.1280296E+00
         21   -1    0    0  501  502  0.00000000000E+00  0.00000000000E+00  0.88182905042E+03  0.88182905042E+03  0.00000000000E+00 0. -1.
         21   -1    0    0  502  503 -0.00000000000E+00 -0.00000000000E+00 -0.69581998943E+02  0.69581998943E+02  0.00000000000E+00 0.  1.
          6    1    1    2  501    0 -0.25020195061E+02 -0.15253939492E+03  0.23940942411E+03  0.33337688810E+03  0.17300000000E+03 0. -1.
         -6    1    1    2    0  503  0.25020195061E+02  0.15253939492E+03  0.57283762737E+03  0.61803416127E+03  0.17300000000E+03 0.  1.
</event>
<event>
 4    1  0.5959403E+000  0.1000000E+03  0.7546771E-02  0.1280296E+00
         21   -1    0    0  501  502  0.00000000000E+00  0.00000000000E+00  0.44784273253E+03  0.44784273253E+03  0.00000000000E+00 0.  1.
         21   -1    0    0  502  503 -0.00000000000E+00 -0.00000000000E+00 -0.13222513547E+03  0.13222513547E+03  0.00000000000E+00 0. -1.
          6    1    1    2  501    0  0.16738517978E+03  0.32263412058E+02  0.17581905319E+03  0.29983339646E+03  0.17300000000E+03 0.  1.
         -6    1    1    2    0  503 -0.16738517978E+03 -0.32263412058E+02  0.13979854387E+03  0.28023447154E+03  0.17300000000E+03 0.  1.
</event>
<event>
 4    1  0.5959403E+000  0.1000000E+03  0.7546771E-02  0.1280296E+00
         21   -1    0    0  501  502  0.00000000000E+00  0.00000000000E+00  0.13591029225E+03  0.13591029225E+03  0.00000000000E+00 0.  1.
         21   -1    0    0  502  503 -0.00000000000E+00 -0.00000000000E+00 -0.38532416963E+03  0.38532416963E+03  0.00000000000E+00 0. -1.
          6    1    1    2  501    0 -0.43433238463E+00 -0.12924503972E+03 -0.38454705016E+02  0.21934500969E+03  0.17300000000E+03 0. -1.
         -6    1    1    2    0  503  0.43433238463E+00  0.12924503972E+03 -0.21095917237E+03  0.30188945219E+03  0.17300000000E+03 0. -1.
</event>
<event>
 4    1  0.5959403E+000  0.1000000E+03  0.7546771E-02  0.1280296E+00
         21   -1    0    0  501  502  0.00000000000E+00  0.00000000000E+00  0.13241504299E+03  0.13241504299E+03  0.00000000000E+00 0.  1.
         21   -1    0    0  502  503 -0.00000000000E+00 -0.00000000000E+00 -0.79512793652E+03  0.79512793652E+03  0.00000000000E+00 0. -1.
          6    1    1    2  501    0 -0.17560397941E+03  0.10969149170E+03 -0.73733520941E+02  0.27970451023E+03  0.17300000000E+03 0. -1.
         -6    1    1    2    0  503  0.17560397941E+03 -0.10969149170E+03 -0.58897937259E+03  0.64783846927E+03  0.17300000000E+03 0. -1.
</event>
<event>
 4    1  0.5959403E+000  0.1000000E+03  0.7546771E-02  0.1280296E+00
         21   -1    0    0  503  502  0.00000000000E+00  0.00000000000E+00  0.54144521828E+03  0.54144521828E+03  0.00000000000E+00 0.  1.
         21   -1    0    0  501  503 -0.00000000000E+00 -0.00000000000E+00 -0.15758517237E+03  0.15758517237E+03  0.00000000000E+00 0.  1.
          6    1    1    2  501    0 -0.11718803377E+03 -0.15348173671E+03  0.30928086178E+02  0.26110385918E+03  0.17300000000E+03 0.  1.
         -6    1    1    2    0  502  0.11718803377E+03  0.15348173671E+03  0.35293195973E+03  0.43792653147E+03  0.17300000000E+03 0.  1.
</event>
<event>
 4    1  0.5959403E+000  0.1000000E+03  0.7546771E-02  0.1280296E+00
         21   -1    0    0  501  502  0.00000000000E+00  0.00000000000E+00  0.16604773542E+03  0.16604773542E+03  0.00000000000E+00 0. -1.
         21   -1    0    0  502  503 -0.00000000000E+00 -0.00000000000E+00 -0.28396671011E+03  0.28396671011E+03  0.00000000000E+00 0. -1.
          6    1    1    2  501    0  0.50822429221E+02 -0.66452882737E+02  0.45815911869E+02  0.19755253154E+03  0.17300000000E+03 0. -1.
         -6    1    1    2    0  503 -0.50822429221E+02  0.66452882737E+02 -0.16373488656E+03  0.25246191398E+03  0.17300000000E+03 0. -1.
</event>
<event>
 4    1  0.5959403E+000  0.1000000E+03  0.7546771E-02  0.1280296E+00
         21   -1    0    0  503  502  0.00000000000E+00  0.00000000000E+00  0.96744335505E+03  0.96744335505E+03  0.00000000000E+00 0.  1.
         21   -1    0    0  501  503 -0.00000000000E+00 -0.00000000000E+00 -0.39499240958E+02  0.39499240958E+02  0.00000000000E+00 0.  1.
          6    1    1    2  501    0  0.22832494917E+02 -0.55960149262E+02  0.28869522508E+03  0.34194560111E+03  0.17300000000E+03 0.  1.
         -6    1    1    2    0  502 -0.22832494917E+02  0.55960149262E+02  0.63924888901E+03  0.66499699490E+03  0.17300000000E+03 0.  1.
</event>
<event>
 4    1  0.5959403E+000  0.1000000E+03  0.7546771E-02  0.1280296E+00
         21   -1    0    0  503  502  0.00000000000E+00  0.00000000000E+00  0.62295453375E+02  0.62295453375E+02  0.00000000000E+00 0.  1.
         21   -1    0    0  501  503 -0.00000000000E+00 -0.00000000000E+00 -0.11985920434E+04  0.11985920434E+04  0.00000000000E+00 0.  1.
          6    1    1    2  501    0 -0.15622198929E+03  0.18897459790E+02 -0.89423292738E+03  0.92430728242E+03  0.17300000000E+03 0.  1.
         -6    1    1    2    0  502  0.15622198929E+03 -0.18897459790E+02 -0.24206366265E+03  0.33658021436E+03  0.17300000000E+03 0.  1.
</event>
<event>
 4    1  0.5959403E+000  0.1000000E+03  0.7546771E-02  0.1280296E+00
         21   -1    0    0  501  502  0.00000000000E+00  0.00000000000E+00  0.16836372891E+04  0.16836372891E+04  0.00000000000E+00 0.  1.
         21   -1    0    0  502  503 -0.00000000000E+00 -0.00000000000E+00 -0.30481931013E+02  0.30481931013E+02  0.00000000000E+00 0.  1.
          6    1    1    2  501    0 -0.60320199709E+02  0.24748351530E+02  0.13218879929E+04  0.13347538624E+04  0.17300000000E+03 0.  1.
         -6    1    1    2    0  503  0.60320199709E+02 -0.24748351530E+02  0.33126736514E+03  0.37936535767E+03  0.17300000000E+03 0.  1.
</event>
<event>
 4    1  0.5959403E+000  0.1000000E+03  0.7546771E-02  0.1280296E+00
         21   -1    0    0  501  502  0.00000000000E+00  0.00000000000E+00  0.35148972638E+03  0.35148972638E+03  0.00000000000E+00 0.  1.
         21   -1    0    0  502  503 -0.00000000000E+00 -0.00000000000E+00 -0.11776947196E+03  0.11776947196E+03  0.00000000000E+00 0.  1.
          6    1    1    2  501    0 -0.11697031284E+02  0.82208080805E+02  0.38894205153E+02  0.19579772288E+03  0.17300000000E+03 0.  1.
         -6    1    1    2    0  503  0.11697031284E+02 -0.82208080805E+02  0.19482604927E+03  0.27346147546E+03  0.17300000000E+03 0.  1.
</event>
<event>
 4    1  0.5959403E+000  0.1000000E+03  0.7546771E-02  0.1280296E+00
         21   -1    0    0  503  502  0.00000000000E+00  0.00000000000E+00  0.72585514899E+02  0.72585514899E+02  0.00000000000E+00 0.  1.
         21   -1    0    0  501  503 -0.00000000000E+00 -0.00000000000E+00 -0.56241179080E+03  0.56241179080E+03  0.00000000000E+00 0.  1.
          6    1    1    2  501    0 -0.10248218989E+03  0.14762283833E+02 -0.22421907634E+03  0.30153560066E+03  0.17300000000E+03 0.  1.
         -6    1    1    2    0  502  0.10248218989E+03 -0.14762283833E+02 -0.26560719956E+03  0.33346170504E+03  0.17300000000E+03 0.  1.
</event>
<event>
 4    1  0.5959403E+000  0.1000000E+03  0.7546771E-02  0.1280296E+00
         21   -1    0    0  503  502  0.00000000000E+00  0.00000000000E+00  0.82894782901E+02  0.82894782901E+02  0.00000000000E+00 0.  1.
         21   -1    0    0  501  503 -0.00000000000E+00 -0.00000000000E+00 -0.63224753231E+03  0.63224753231E+03  0.00000000000E+00 0.  1.
          6    1    1    2  501    0 -0.72318814960E+01  0.14907582078E+02 -0.50742934295E+03  0.53636561616E+03  0.17300000000E+03 0.  1.
         -6    1    1    2    0  502  0.72318814960E+01 -0.14907582078E+02 -0.41923406455E+02  0.17877669905E+03  0.17300000000E+03 0.  1.
</event>
<event>
 4    1  0.5959403E+000  0.1000000E+03  0.7546771E-02  0.1280296E+00
         21   -1    0    0  503  502  0.00000000000E+00  0.00000000000E+00  0.99194960062E+02  0.99194960062E+02  0.00000000000E+00 0.  1.
         21   -1    0    0  501  503 -0.00000000000E+00 -0.00000000000E+00 -0.41373167067E+03  0.41373167067E+03  0.00000000000E+00 0.  1.
          6    1    1    2  501    0  0.29113961605E+02 -0.19311347917E+02 -0.28316993833E+03  0.33366864536E+03  0.17300000000E+03 0.  1.
         -6    1    1    2    0  502 -0.29113961605E+02  0.19311347917E+02 -0.31366772278E+02  0.17925798538E+03  0.17300000000E+03 0.  1.
</event>
<event>
 4    1  0.5959403E+000  0.1000000E+03  0.7546771E-02  0.1280296E+00
         21   -1    0    0  503  502  0.00000000000E+00  0.00000000000E+00  0.10907064419E+03  0.10907064419E+03  0.00000000000E+00 0.  1.
         21   -1    0    0  501  503 -0.00000000000E+00 -0.00000000000E+00 -0.40773625590E+03  0.40773625590E+03  0.00000000000E+00 0. -1.
          6    1    1    2  501    0 -0.92950486275E+02  0.74846799686E+02 -0.12806628532E+03  0.24611340833E+03  0.17300000000E+03 0. -1.
         -6    1    1    2    0  502  0.92950486275E+02 -0.74846799686E+02 -0.17059932638E+03  0.27069349177E+03  0.17300000000E+03 0. -1.
</event>
<event>
 4    1  0.5959403E+000  0.1000000E+03  0.7546771E-02  0.1280296E+00
         21   -1    0    0  503  502  0.00000000000E+00  0.00000000000E+00  0.27352395132E+02  0.27352395132E+02  0.00000000000E+00 0.  1.
         21   -1    0    0  501  503 -0.00000000000E+00 -0.00000000000E+00 -0.14619420630E+04  0.14619420630E+04  0.00000000000E+00 0. -1.
          6    1    1    2  501    0 -0.67659785115E+02 -0.52075454190E+01 -0.99229409299E+03  0.10095452105E+04  0.17300000000E+03 0. -1.
         -6    1    1    2    0  502  0.67659785115E+02  0.52075454190E+01 -0.44229557487E+03  0.47974924763E+03  0.17300000000E+03 0. -1.
</event>
<event>
 4    1  0.5959403E+000  0.1000000E+03  0.7546771E-02  0.1280296E+00
         21   -1    0    0  501  502  0.00000000000E+00  0.00000000000E+00  0.49977978116E+03  0.49977978116E+03  0.00000000000E+00 0.  1.
         21   -1    0    0  502  503 -0.00000000000E+00 -0.00000000000E+00 -0.91837502868E+02  0.91837502868E+02  0.00000000000E+00 0. -1.
          6    1    1    2  501    0 -0.82937533774E+02  0.16076421885E+02  0.33373443318E+03  0.38528529396E+03  0.17300000000E+03 0.  1.
         -6    1    1    2    0  503  0.82937533774E+02 -0.16076421885E+02  0.74207845105E+02  0.20633199007E+03  0.17300000000E+03 0. -1.
</event>
<event>
 4    1  0.5959403E+000  0.1000000E+03  0.7546771E-02  0.1280296E+00
         21   -1    0    0  501  502  0.00000000000E+00  0.00000000000E+00  0.68731262426E+03  0.68731262426E+03  0.00000000000E+00 0.  1.
         21   -1    0    0  502  503 -0.00000000000E+00 -0.00000000000E+00 -0.81133183971E+02  0.81133183971E+02  0.00000000000E+00 0. -1.
          6    1    1    2  501    0 -0.11771955095E+03 -0.10215345045E+03  0.36697466478E+03  0.43461779152E+03  0.17300000000E+03 0.  1.
         -6    1    1    2    0  503  0.11771955095E+03  0.10215345045E+03  0.23920477551E+03  0.33382801671E+03  0.17300000000E+03 0. -1.
</event>
<event>
 4    1  0.5959403E+000  0.1000000E+03  0.7546771E-02  0.1280296E+00
         21   -1    0    0  501  502  0.00000000000E+00  0.00000000000E+00  0.48426776929E+02  0.48426776929E+02  0.00000000000E+00 0. -1.
         21   -1    0    0  502  503 -0.00000000000E+00 -0.00000000000E+00 -0.67302674813E+03  0.67302674813E+03  0.00000000000E+00 0. -1.
          6    1    1    2  501    0 -0.15968458264E+02  0.48904220096E+01 -0.21472737031E+03  0.27625305690E+03  0.17300000000E+03 0. -1.
         -6    1    1    2    0  503  0.15968458264E+02 -0.48904220096E+01 -0.40987260088E+03  0.44520046815E+03  0.17300000000E+03 0. -1.
</event>
<event>
 4    1  0.5959403E+000  0.1000000E+03  0.7546771E-02  0.1280296E+00
         21   -1    0    0  501  502  0.00000000000E+00  0.00000000000E+00  0.78429971476E+03  0.78429971476E+03  0.00000000000E+00 0.  1.
         21   -1    0    0  502  503 -0.00000000000E+00 -0.00000000000E+00 -0.93818636506E+02  0.93818636506E+02  0.00000000000E+00 0.  1.
          6    1    1    2  501    0  0.14631301741E+03  0.14912499681E+03  0.34957344559E+03  0.44246622199E+03  0.17300000000E+03 0.  1.
         -6    1    1    2    0  503 -0.14631301741E+03 -0.14912499681E+03  0.34090763267E+03  0.43565212928E+03  0.17300000000E+03 0.  1.
</event>
<event>
 4    1  0.5959403E+000  0.1000000E+03  0.7546771E-02  0.1280296E+00
         21   -1    0    0  501  502  0.00000000000E+00  0.00000000000E+00  0.48271333696E+03  0.48271333696E+03  0.00000000000E+00 0.  1.
         21   -1    0    0  502  503 -0.00000000000E+00 -0.00000000000E+00 -0.10468147670E+03  0.10468147670E+03  0.00000000000E+00 0.  1.
          6    1    1    2  501    0 -0.13128811631E+03  0.46272612711E+02  0.23473378931E+03  0.32312021913E+03  0.17300000000E+03 0.  1.
         -6    1    1    2    0  503  0.13128811631E+03 -0.46272612711E+02  0.14329807096E+03  0.26427459453E+03  0.17300000000E+03 0.  1.
</event>
<event>
 4    1  0.5959403E+000  0.1000000E+03  0.7546771E-02  0.1280296E+00
         21   -1    0    0  503  502  0.00000000000E+00  0.00000000000E+00  0.47128469701E+02  0.47128469701E+02  0.00000000000E+00 0.  1.
         21   -1    0    0  501  503 -0.00000000000E+00 -0.00000000000E+00 -0.21147379727E+04  0.21147379727E+04  0.00000000000E+00 0.  1.
          6    1    1    2  501    0 -0.25786080392E+03  0.52964901671E+02 -0.11054539211E+04  0.11494585015E+04  0.17300000000E+03 0.  1.
         -6    1    1    2    0  502  0.25786080392E+03 -0.52964901671E+02 -0.96215558193E+03  0.10124079409E+04  0.17300000000E+03 0.  1.
</event>
<event>
 4    1  0.5959403E+000  0.1000000E+03  0.7546771E-02  0.1280296E+00
         21   -1    0    0  503  502  0.00000000000E+00  0.00000000000E+00  0.29953206634E+03  0.29953206634E+03  0.00000000000E+00 0.  1.
         21   -1    0    0  501  503 -0.00000000000E+00 -0.00000000000E+00 -0.41973524441E+03  0.41973524441E+03  0.00000000000E+00 0.  1.
          6    1    1    2  501    0 -0.99669816069E+02  0.15710246540E+03 -0.31097541766E+03  0.40155941933E+03  0.17300000000E+03 0.  1.
         -6    1    1    2    0  502  0.99669816069E+02 -0.15710246540E+03  0.19077223959E+03  0.31770789142E+03  0.17300000000E+03 0.  1.
</event>
<event>
 4    1  0.5959403E+000  0.1000000E+03  0.7546771E-02  0.1280296E+00
         21   -1    0    0  503  502  0.00000000000E+00  0.00000000000E+00  0.41131143498E+03  0.41131143498E+03  0.00000000000E+00 0. -1.
         21   -1    0    0  501  503 -0.00000000000E+00 -0.00000000000E+00 -0.27802259927E+03  0.27802259927E+03  0.00000000000E+00 0.  1.
          6    1    1    2  501    0 -0.10941160232E+03  0.19553450188E+03 -0.12190090882E+03  0.30821010970E+03  0.17300000000E+03 0.  1.
         -6    1    1    2    0  502  0.10941160232E+03 -0.19553450188E+03  0.25518974453E+03  0.38112392455E+03  0.17300000000E+03 0. -1.
</event>
<event>
 4    1  0.5959403E+000  0.1000000E+03  0.7546771E-02  0.1280296E+00
         21   -1    0    0  503  502  0.00000000000E+00  0.00000000000E+00  0.31265033043E+03  0.31265033043E+03  0.00000000000E+00 0. -1.
         21   -1    0    0  501  503 -0.00000000000E+00 -0.00000000000E+00 -0.27244992207E+03  0.27244992207E+03  0.00000000000E+00 0.  1.
          6    1    1    2  501    0 -0.36976277719E+02 -0.18155684481E+03 -0.12488828061E+03  0.28258842093E+03  0.17300000000E+03 0.  1.
         -6    1    1    2    0  502  0.36976277719E+02  0.18155684481E+03  0.16508868897E+03  0.30251183156E+03  0.17300000000E+03 0. -1.
</event>
<event>
 4    1  0.5959403E+000  0.1000000E+03  0.7546771E-02  0.1280296E+00
         21   -1    0    0  503  502  0.00000000000E+00  0.00000000000E+00  0.14168236466E+04  0.14168236466E+04  0.00000000000E+00 0. -1.
         21   -1    0    0  501  503 -0.00000000000E+00 -0.00000000000E+00 -0.49967095527E+02  0.49967095527E+02  0.00000000000E+00 0.  1.
          6    1    1    2  501    0 -0.18388230148E+02  0.52527883600E+02  0.14775289802E+03  0.23421619166E+03  0.17300000000E+03 0.  1.
         -6    1    1    2    0  502  0.18388230148E+02 -0.52527883600E+02  0.12191036530E+04  0.12325745504E+04  0.17300000000E+03 0. -1.
</event>
<event>
 4    1  0.5959403E+000  0.1000000E+03  0.7546771E-02  0.1280296E+00
         21   -1    0    0  503  502  0.00000000000E+00  0.00000000000E+00  0.28606619542E+04  0.28606619542E+04  0.00000000000E+00 0.  1.
         21   -1    0    0  501  503 -0.00000000000E+00 -0.00000000000E+00 -0.20527754509E+02  0.20527754509E+02  0.00000000000E+00 0. -1.
          6    1    1    2  501    0  0.61202995242E+02  0.15341658373E+03  0.11889438688E+04  0.12127650135E+04  0.17300000000E+03 0.  1.
         -6    1    1    2    0  502 -0.61202995242E+02 -0.15341658373E+03  0.16511903309E+04  0.16684246952E+04  0.17300000000E+03 0. -1.
</event>
<event>
 4    1  0.5959403E+000  0.1000000E+03  0.7546771E-02  0.1280296E+00
         21   -1    0    0  503  502  0.00000000000E+00  0.00000000000E+00  0.26386758791E+03  0.26386758791E+03  0.00000000000E+00 0.  1.
         21   -1    0    0  501  503 -0.00000000000E+00 -0.00000000000E+00 -0.16925716849E+03  0.16925716849E+03  0.00000000000E+00 0. -1.
          6    1    1    2  501    0  0.75883561385E+02 -0.43348654960E+02 -0.39011422937E+02  0.19770764248E+03  0.17300000000E+03 0.  1.
         -6    1    1    2    0  502 -0.75883561385E+02  0.43348654960E+02  0.13362184235E+03  0.23541711393E+03  0.17300000000E+03 0. -1.
</event>
<event>
 4    1  0.5959403E+000  0.1000000E+03  0.7546771E-02  0.1280296E+00
         21   -1    0    0  503  502  0.00000000000E+00  0.00000000000E+00  0.13113684062E+03  0.13113684062E+03  0.00000000000E+00 0.  1.
         21   -1    0    0  501  503 -0.00000000000E+00 -0.00000000000E+00 -0.30857037822E+03  0.30857037822E+03  0.00000000000E+00 0. -1.
          6    1    1    2  501    0  0.83668647816E+02  0.58994913794E+02 -0.96829702292E+02  0.22312739349E+03  0.17300000000E+03 0.  1.
         -6    1    1    2    0  502 -0.83668647816E+02 -0.58994913794E+02 -0.80603835312E+02  0.21657982535E+03  0.17300000000E+03 0. -1.
</event>
<event>
 4    1  0.5959403E+000  0.1000000E+03  0.7546771E-02  0.1280296E+00
         21   -1    0    0  503  502  0.00000000000E+00  0.00000000000E+00  0.32414810458E+03  0.32414810458E+03  0.00000000000E+00 0.  1.
         21   -1    0    0  501  503 -0.00000000000E+00 -0.00000000000E+00 -0.14607796451E+03  0.14607796451E+03  0.00000000000E+00 0. -1.
          6    1    1    2  501    0  0.60666248587E+02 -0.31196365403E+02  0.21112474874E+03  0.28134723468E+03  0.17300000000E+03 0.  1.
         -6    1    1    2    0  502 -0.60666248587E+02  0.31196365403E+02 -0.33054608679E+02  0.18887883441E+03  0.17300000000E+03 0. -1.
</event>
<event>
 4    1  0.5959403E+000  0.1000000E+03  0.7546771E-02  0.1280296E+00
         21   -1    0    0  503  502  0.00000000000E+00  0.00000000000E+00  0.23408103594E+03  0.23408103594E+03  0.00000000000E+00 0.  1.
         21   -1    0    0  501  503 -0.00000000000E+00 -0.00000000000E+00 -0.26748412900E+03  0.26748412900E+03  0.00000000000E+00 0.  1.
          6    1    1    2  501    0 -0.11231721641E+03  0.14092493771E+03 -0.31189396407E+02  0.25174744014E+03  0.17300000000E+03 0.  1.
         -6    1    1    2    0  502  0.11231721641E+03 -0.14092493771E+03 -0.22136966490E+01  0.24981772480E+03  0.17300000000E+03 0.  1.
</event>
<event>
 4    1  0.5959403E+000  0.1000000E+03  0.7546771E-02  0.1280296E+00
         21   -1    0    0  503  502  0.00000000000E+00  0.00000000000E+00  0.49486886699E+02  0.49486886699E+02  0.00000000000E+00 0.  1.
         21   -1    0    0  501  503 -0.00000000000E+00 -0.00000000000E+00 -0.10131669751E+04  0.10131669751E+04  0.00000000000E+00 0.  1.
          6    1    1    2  501    0  0.66392200864E+01 -0.97938603343E+02 -0.72583688219E+03  0.75259831837E+03  0.17300000000E+03 0.  1.
         -6    1    1    2    0  502 -0.66392200864E+01  0.97938603343E+02 -0.23784320621E+03  0.31005554342E+03  0.17300000000E+03 0.  1.
</event>
<event>
 4    1  0.5959403E+000  0.1000000E+03  0.7546771E-02  0.1280296E+00
         21   -1    0    0  501  502  0.00000000000E+00  0.00000000000E+00  0.52068350697E+03  0.52068350697E+03  0.00000000000E+00 0.  1.
         21   -1    0    0  502  503 -0.00000000000E+00 -0.00000000000E+00 -0.16820055677E+03  0.16820055677E+03  0.00000000000E+00 0. -1.
          6    1    1    2  501    0 -0.73542302759E+02  0.52356759299E+01  0.44219794000E+03  0.48052460992E+03  0.17300000000E+03 0.  1.
         -6    1    1    2    0  503  0.73542302759E+02 -0.52356759299E+01 -0.89714989803E+02  0.20835945381E+03  0.17300000000E+03 0.  1.
</event>
<event>
 4    1  0.5959403E+000  0.1000000E+03  0.7546771E-02  0.1280296E+00
         21   -1    0    0  501  502  0.00000000000E+00  0.00000000000E+00  0.19732341507E+03  0.19732341507E+03  0.00000000000E+00 0.  1.
         21   -1    0    0  502  503 -0.00000000000E+00 -0.00000000000E+00 -0.34256819694E+03  0.34256819694E+03  0.00000000000E+00 0. -1.
          6    1    1    2  501    0 -0.15652757050E+03 -0.87520922039E+02  0.44269100759E+01  0.24921755487E+03  0.17300000000E+03 0.  1.
         -6    1    1    2    0  503  0.15652757050E+03  0.87520922039E+02 -0.14967169194E+03  0.29067405714E+03  0.17300000000E+03 0.  1.
</event>
<event>
 4    1  0.5959403E+000  0.1000000E+03  0.7546771E-02  0.1280296E+00
         21   -1    0    0  503  502  0.00000000000E+00  0.00000000000E+00  0.37769299011E+03  0.37769299011E+03  0.00000000000E+00 0.  1.
         21   -1    0    0  501  503 -0.00000000000E+00 -0.00000000000E+00 -0.22364529223E+03  0.22364529223E+03  0.00000000000E+00 0. -1.
          6    1    1    2  501    0  0.26200155121E+02 -0.12479983497E+03 -0.12537998799E+03  0.24881838422E+03  0.17300000000E+03 0. -1.
         -6    1    1    2    0  502 -0.26200155121E+02  0.12479983497E+03  0.27942768587E+03  0.35251989812E+03  0.17300000000E+03 0. -1.
</event>
<event>
 4    1  0.5959403E+000  0.1000000E+03  0.7546771E-02  0.1280296E+00
         21   -1    0    0  503  502  0.00000000000E+00  0.00000000000E+00  0.94064576151E+02  0.94064576151E+02  0.00000000000E+00 0.  1.
         21   -1    0    0  501  503 -0.00000000000E+00 -0.00000000000E+00 -0.13062196644E+04  0.13062196644E+04  0.00000000000E+00 0. -1.
          6    1    1    2  501    0  0.63013924049E+02  0.97182291861E+01 -0.12015399730E+04  0.12156037617E+04  0.17300000000E+03 0. -1.
         -6    1    1    2    0  502 -0.63013924049E+02 -0.97182291861E+01 -0.10615115203E+02  0.18468047886E+03  0.17300000000E+03 0. -1.
</event>
<event>
 4    1  0.5959403E+000  0.1000000E+03  0.7546771E-02  0.1280296E+00
         21   -1    0    0  501  502  0.00000000000E+00  0.00000000000E+00  0.30069187943E+02  0.30069187943E+02  0.00000000000E+00 0.  1.
         21   -1    0    0  502  503 -0.00000000000E+00 -0.00000000000E+00 -0.16200723884E+04  0.16200723884E+04  0.00000000000E+00 0. -1.
          6    1    1    2  501    0 -0.11521667440E+02 -0.75263865563E+02 -0.12210235720E+04  0.12355666561E+04  0.17300000000E+03 0.  1.
         -6    1    1    2    0  503  0.11521667440E+02  0.75263865563E+02 -0.36897962845E+03  0.41457492023E+03  0.17300000000E+03 0. -1.
</event>
<event>
 4    1  0.5959403E+000  0.1000000E+03  0.7546771E-02  0.1280296E+00
         21   -1    0    0  501  502  0.00000000000E+00  0.00000000000E+00  0.29965435456E+03  0.29965435456E+03  0.00000000000E+00 0.  1.
         21   -1    0    0  502  503 -0.00000000000E+00 -0.00000000000E+00 -0.25708744387E+03  0.25708744387E+03  0.00000000000E+00 0. -1.
          6    1    1    2  501    0  0.64635668232E+02  0.12440048568E+03  0.18746576418E+03  0.29107673075E+03  0.17300000000E+03 0.  1.
         -6    1    1    2    0  503 -0.64635668232E+02 -0.12440048568E+03 -0.14489885349E+03  0.26566506768E+03  0.17300000000E+03 0. -1.
</event>
<event>
 4    1  0.5959403E+000  0.1000000E+03  0.7546771E-02  0.1280296E+00
         21   -1    0    0  501  502  0.00000000000E+00  0.00000000000E+00  0.66722347461E+03  0.66722347461E+03  0.00000000000E+00 0.  1.
         21   -1    0    0  502  503 -0.00000000000E+00 -0.00000000000E+00 -0.10683680774E+03  0.10683680774E+03  0.00000000000E+00 0. -1.
          6    1    1    2  501    0  0.93444203029E+02  0.49662062055E+02  0.53192736406E+03  0.56927485464E+03  0.17300000000E+03 0.  1.
         -6    1    1    2    0  503 -0.93444203029E+02 -0.49662062055E+02  0.28459302808E+02  0.20478542771E+03  0.17300000000E+03 0. -1.
</event>
<event>
 4    1  0.5959403E+000  0.1000000E+03  0.7546771E-02  0.1280296E+00
         21   -1    0    0  501  502  0.00000000000E+00  0.00000000000E+00  0.69117614086E+02  0.69117614086E+02  0.00000000000E+00 0. -1.
         21   -1    0    0  502  503 -0.00000000000E+00 -0.00000000000E+00 -0.68384342897E+03  0.68384342897E+03  0.00000000000E+00 0. -1.
          6    1    1    2  501    0  0.83175715794E+02  0.86770221836E+02 -0.21427993035E+03  0.30048653821E+03  0.17300000000E+03 0. -1.
         -6    1    1    2    0  503 -0.83175715794E+02 -0.86770221836E+02 -0.40044588453E+03  0.45247450484E+03  0.17300000000E+03 0. -1.
</event>
<event>
 4    1  0.5959403E+000  0.1000000E+03  0.7546771E-02  0.1280296E+00
         21   -1    0    0  501  502  0.00000000000E+00  0.00000000000E+00  0.24525194923E+02  0.24525194923E+02  0.00000000000E+00 0. -1.
         21   -1    0    0  502  503 -0.00000000000E+00 -0.00000000000E+00 -0.29552717626E+04  0.29552717626E+04  0.00000000000E+00 0. -1.
          6    1    1    2  501    0  0.14953559381E+03 -0.12661167874E+03 -0.18222388787E+04  0.18408897148E+04  0.17300000000E+03 0. -1.
         -6    1    1    2    0  503 -0.14953559381E+03  0.12661167874E+03 -0.11085076889E+04  0.11389072427E+04  0.17300000000E+03 0. -1.
</event>
<event>
 4    1  0.5959403E+000  0.1000000E+03  0.7546771E-02  0.1280296E+00
         21   -1    0    0  501  502  0.00000000000E+00  0.00000000000E+00  0.10071668117E+04  0.10071668117E+04  0.00000000000E+00 0. -1.
         21   -1    0    0  502  503 -0.00000000000E+00 -0.00000000000E+00 -0.48737577045E+02  0.48737577045E+02  0.00000000000E+00 0. -1.
          6    1    1    2  501    0  0.41137909988E+02 -0.13151350328E+03  0.51026058321E+03  0.55613217130E+03  0.17300000000E+03 0. -1.
         -6    1    1    2    0  503 -0.41137909988E+02  0.13151350328E+03  0.44816865142E+03  0.49977221741E+03  0.17300000000E+03 0. -1.
</event>
<event>
 4    1  0.5959403E+000  0.1000000E+03  0.7546771E-02  0.1280296E+00
         21   -1    0    0  501  502  0.00000000000E+00  0.00000000000E+00  0.12567966110E+03  0.12567966110E+03  0.00000000000E+00 0.  1.
         21   -1    0    0  502  503 -0.00000000000E+00 -0.00000000000E+00 -0.42985561625E+03  0.42985561625E+03  0.00000000000E+00 0.  1.
          6    1    1    2  501    0 -0.64776221190E+02  0.78239253292E+02 -0.29236201160E+03  0.35457282103E+03  0.17300000000E+03 0. -1.
         -6    1    1    2    0  503  0.64776221190E+02 -0.78239253292E+02 -0.11813943546E+02  0.20096245632E+03  0.17300000000E+03 0. -1.
</event>
<event>
 4    1  0.5959403E+000  0.1000000E+03  0.7546771E-02  0.1280296E+00
         21   -1    0    0  503  502  0.00000000000E+00  0.00000000000E+00  0.40463889315E+03  0.40463889315E+03  0.00000000000E+00 0. -1.
         21   -1    0    0  501  503 -0.00000000000E+00 -0.00000000000E+00 -0.99378785433E+02  0.99378785433E+02  0.00000000000E+00 0. -1.
          6    1    1    2  501    0 -0.71925753096E+02  0.71261120172E+02  0.15974580076E+03  0.25631851682E+03  0.17300000000E+03 0. -1.
         -6    1    1    2    0  502  0.71925753096E+02 -0.71261120172E+02  0.14551430696E+03  0.24769916176E+03  0.17300000000E+03 0. -1.
</event>
<event>
 4    1  0.5959403E+000  0.1000000E+03  0.7546771E-02  0.1280296E+00
         21   -1    0    0  501  502  0.00000000000E+00  0.00000000000E+00  0.78809792473E+03  0.78809792473E+03  0.00000000000E+00 0.  1.
         21   -1    0    0  502  503 -0.00000000000E+00 -0.00000000000E+00 -0.16553067254E+03  0.16553067254E+03  0.00000000000E+00 0.  1.
          6    1    1    2  501    0 -0.27638129112E+02  0.28160848464E+03  0.50010596823E+03  0.60008514751E+03  0.17300000000E+03 0.  1.
         -6    1    1    2    0  503  0.27638129112E+02 -0.28160848464E+03  0.12246128395E+03  0.35354344976E+03  0.17300000000E+03 0.  1.
</event>
<event>
 4    1  0.5959403E+000  0.1000000E+03  0.7546771E-02  0.1280296E+00
         21   -1    0    0  501  502  0.00000000000E+00  0.00000000000E+00  0.79561024609E+02  0.79561024609E+02  0.00000000000E+00 0.  1.
         21   -1    0    0  502  503 -0.00000000000E+00 -0.00000000000E+00 -0.60093611952E+03  0.60093611952E+03  0.00000000000E+00 0.  1.
          6    1    1    2  501    0 -0.95485601690E+02 -0.83332605790E+02 -0.32707712241E+03  0.39111413592E+03  0.17300000000E+03 0.  1.
         -6    1    1    2    0  503  0.95485601690E+02  0.83332605790E+02 -0.19429797250E+03  0.28938300820E+03  0.17300000000E+03 0.  1.
</event>
<event>
 4    1  0.5959403E+000  0.1000000E+03  0.7546771E-02  0.1280296E+00
         21   -1    0    0  501  502  0.00000000000E+00  0.00000000000E+00  0.66918996436E+02  0.66918996436E+02  0.00000000000E+00 0.  1.
         21   -1    0    0  502  503 -0.00000000000E+00 -0.00000000000E+00 -0.28367908954E+04  0.28367908954E+04  0.00000000000E+00 0.  1.
          6    1    1    2  501    0 -0.21198634808E+03  0.12384285585E+03 -0.33313887199E+03  0.44853737051E+03  0.17300000000E+03 0.  1.
         -6    1    1    2    0  503  0.21198634808E+03 -0.12384285585E+03 -0.24367330270E+04  0.24551725214E+04  0.17300000000E+03 0.  1.
</event>
<event>
 4    1  0.5959403E+000  0.1000000E+03  0.7546771E-02  0.1280296E+00
         21   -1    0    0  501  502  0.00000000000E+00  0.00000000000E+00  0.34928120810E+03  0.34928120810E+03  0.00000000000E+00 0.  1.
         21   -1    0    0  502  503 -0.00000000000E+00 -0.00000000000E+00 -0.18714608438E+03  0.18714608438E+03  0.00000000000E+00 0.  1.
          6    1    1    2  501    0  0.12045953797E+03  0.13330005657E+03  0.14002288865E+03  0.28603289097E+03  0.17300000000E+03 0.  1.
         -6    1    1    2    0  503 -0.12045953797E+03 -0.13330005657E+03  0.22112235072E+02  0.25039440151E+03  0.17300000000E+03 0.  1.
</event>
<event>
 4    1  0.5959403E+000  0.1000000E+03  0.7546771E-02  0.1280296E+00
         21   -1    0    0  503  502  0.00000000000E+00  0.00000000000E+00  0.16766028873E+03  0.16766028873E+03  0.00000000000E+00 0.  1.
         21   -1    0    0  501  503 -0.00000000000E+00 -0.00000000000E+00 -0.18239207210E+03  0.18239207210E+03  0.00000000000E+00 0.  1.
          6    1    1    2  501    0 -0.22179715974E+02  0.10413739293E+02 -0.25172682314E+00  0.17472678425E+03  0.17300000000E+03 0.  1.
         -6    1    1    2    0  502  0.22179715974E+02 -0.10413739293E+02 -0.14480056538E+02  0.17532557658E+03  0.17300000000E+03 0.  1.
</event>
<event>
 4    1  0.5959403E+000  0.1000000E+03  0.7546771E-02  0.1280296E+00
         21   -1    0    0  503  502  0.00000000000E+00  0.00000000000E+00  0.14392445880E+03  0.14392445880E+03  0.00000000000E+00 0.  1.
         21   -1    0    0  501  503 -0.00000000000E+00 -0.00000000000E+00 -0.50675608462E+03  0.50675608462E+03  0.00000000000E+00 0.  1.
          6    1    1    2  501    0  0.16226334288E+03  0.64784858639E+02 -0.31599041420E+03  0.40038158327E+03  0.17300000000E+03 0.  1.
         -6    1    1    2    0  502 -0.16226334288E+03 -0.64784858639E+02 -0.46841211617E+02  0.25029896016E+03  0.17300000000E+03 0.  1.
</event>
<event>
 4    1  0.5959403E+000  0.1000000E+03  0.7546771E-02  0.1280296E+00
         21   -1    0    0  503  502  0.00000000000E+00  0.00000000000E+00  0.14730784756E+03  0.14730784756E+03  0.00000000000E+00 0. -1.
         21   -1    0    0  501  503 -0.00000000000E+00 -0.00000000000E+00 -0.48876607293E+03  0.48876607293E+03  0.00000000000E+00 0.  1.
          6    1    1    2  501    0 -0.42747916871E+02 -0.25997522129E+02 -0.40649431929E+03  0.44460081777E+03  0.17300000000E+03 0.  1.
         -6    1    1    2    0  502  0.42747916871E+02  0.25997522129E+02  0.65036093911E+02  0.19147310272E+03  0.17300000000E+03 0.  1.
</event>
<event>
 4    1  0.5959403E+000  0.1000000E+03  0.7546771E-02  0.1280296E+00
         21   -1    0    0  503  502  0.00000000000E+00  0.00000000000E+00  0.30304806552E+03  0.30304806552E+03  0.00000000000E+00 0. -1.
         21   -1    0    0  501  503 -0.00000000000E+00 -0.00000000000E+00 -0.19827243971E+03  0.19827243971E+03  0.00000000000E+00 0.  1.
          6    1    1    2  501    0 -0.13121528247E+03 -0.10282824025E+03  0.26479878280E+01  0.24026466487E+03  0.17300000000E+03 0.  1.
         -6    1    1    2    0  502  0.13121528247E+03  0.10282824025E+03  0.10212763798E+03  0.26105584036E+03  0.17300000000E+03 0.  1.
</event>
<event>
 4    1  0.5959403E+000  0.1000000E+03  0.7546771E-02  0.1280296E+00
         21   -1    0    0  503  502  0.00000000000E+00  0.00000000000E+00  0.88159288393E+03  0.88159288393E+03  0.00000000000E+00 0. -1.
         21   -1    0    0  501  503 -0.00000000000E+00 -0.00000000000E+00 -0.40220489465E+02  0.40220489465E+02  0.00000000000E+00 0.  1.
          6    1    1    2  501    0 -0.10897827518E+01 -0.11811907489E+02  0.24101240012E+03  0.29691191589E+03  0.17300000000E+03 0.  1.
         -6    1    1    2    0  502  0.10897827518E+01  0.11811907489E+02  0.60035999435E+03  0.62490145751E+03  0.17300000000E+03 0.  1.
</event>
<event>
 4    1  0.5959403E+000  0.1000000E+03  0.7546771E-02  0.1280296E+00
         21   -1    0    0  503  502  0.00000000000E+00  0.00000000000E+00  0.10981123490E+03  0.10981123490E+03  0.00000000000E+00 0. -1.
         21   -1    0    0  501  503 -0.00000000000E+00 -0.00000000000E+00 -0.45353428508E+03  0.45353428508E+03  0.00000000000E+00 0.  1.
          6    1    1    2  501    0 -0.32178112283E+02  0.97406224761E+02 -0.29391208358E+03  0.35614142754E+03  0.17300000000E+03 0.  1.
         -6    1    1    2    0  502  0.32178112283E+02 -0.97406224761E+02 -0.49810966599E+02  0.20720409244E+03  0.17300000000E+03 0.  1.
</event>
<event>
 4    1  0.5959403E+000  0.1000000E+03  0.7546771E-02  0.1280296E+00
         21   -1    0    0  503  502  0.00000000000E+00  0.00000000000E+00  0.19582071817E+03  0.19582071817E+03  0.00000000000E+00 0. -1.
         21   -1    0    0  501  503 -0.00000000000E+00 -0.00000000000E+00 -0.16278705270E+03  0.16278705270E+03  0.00000000000E+00 0.  1.
          6    1    1    2  501    0 -0.17707263497E+02 -0.67363187646E+01 -0.23517558111E+02  0.17561606051E+03  0.17300000000E+03 0.  1.
         -6    1    1    2    0  502  0.17707263497E+02  0.67363187646E+01  0.56551223581E+02  0.18299171036E+03  0.17300000000E+03 0.  1.
</event>
<event>
 4    1  0.5959403E+000  0.1000000E+03  0.7546771E-02  0.1280296E+00
         21   -1    0    0  503  502  0.00000000000E+00  0.00000000000E+00  0.92489336331E+02  0.92489336331E+02  0.00000000000E+00 0. -1.
         21   -1    0    0  501  503 -0.00000000000E+00 -0.00000000000E+00 -0.59779786259E+03  0.59779786259E+03  0.00000000000E+00 0.  1.
          6    1    1    2  501    0  0.95096007988E+02  0.12239783253E+03 -0.30631452074E+03  0.38442433034E+03  0.17300000000E+03 0.  1.
         -6    1    1    2    0  502 -0.95096007988E+02 -0.12239783253E+03 -0.19899400552E+03  0.30586286858E+03  0.17300000000E+03 0.  1.
</event>
<event>
 4    1  0.5959403E+000  0.1000000E+03  0.7546771E-02  0.1280296E+00
         21   -1    0    0  503  502  0.00000000000E+00  0.00000000000E+00  0.24756863337E+03  0.24756863337E+03  0.00000000000E+00 0. -1.
         21   -1    0    0  501  503 -0.00000000000E+00 -0.00000000000E+00 -0.22144398319E+03  0.22144398319E+03  0.00000000000E+00 0.  1.
          6    1    1    2  501    0 -0.51219027073E+02 -0.71368246298E+01 -0.13623072330E+03  0.22619047940E+03  0.17300000000E+03 0.  1.
         -6    1    1    2    0  502  0.51219027073E+02  0.71368246298E+01  0.16235537348E+03  0.24282213717E+03  0.17300000000E+03 0. -1.
</event>
<event>
 4    1  0.5959403E+000  0.1000000E+03  0.7546771E-02  0.1280296E+00
         21   -1    0    0  503  502  0.00000000000E+00  0.00000000000E+00  0.23685361623E+02  0.23685361623E+02  0.00000000000E+00 0. -1.
         21   -1    0    0  501  503 -0.00000000000E+00 -0.00000000000E+00 -0.17763329496E+04  0.17763329496E+04  0.00000000000E+00 0.  1.
          6    1    1    2  501    0 -0.77036908511E+01  0.10882286379E+02 -0.39634175282E+03  0.43265870619E+03  0.17300000000E+03 0.  1.
         -6    1    1    2    0  502  0.77036908511E+01 -0.10882286379E+02 -0.13563058351E+04  0.13673596050E+04  0.17300000000E+03 0. -1.
</event>
<event>
 4    1  0.5959403E+000  0.1000000E+03  0.7546771E-02  0.1280296E+00
         21   -1    0    0  503  502  0.00000000000E+00  0.00000000000E+00  0.41005734042E+02  0.41005734042E+02  0.00000000000E+00 0.  1.
         21   -1    0    0  501  503 -0.00000000000E+00 -0.00000000000E+00 -0.93810369920E+03  0.93810369920E+03  0.00000000000E+00 0.  1.
          6    1    1    2  501    0 -0.23564653442E+02  0.64989361264E+02 -0.60159827232E+03  0.62978440059E+03  0.17300000000E+03 0.  1.
         -6    1    1    2    0  502  0.23564653442E+02 -0.64989361264E+02 -0.29549969283E+03  0.34932503265E+03  0.17300000000E+03 0.  1.
</event>
<event>
 4    1  0.5959403E+000  0.1000000E+03  0.7546771E-02  0.1280296E+00
         21   -1    0    0  503  502  0.00000000000E+00  0.00000000000E+00  0.69245331312E+03  0.69245331312E+03  0.00000000000E+00 0.  1.
         21   -1    0    0  501  503 -0.00000000000E+00 -0.00000000000E+00 -0.10493796160E+03  0.10493796160E+03  0.00000000000E+00 0.  1.
          6    1    1    2  501    0  0.90941436994E+02  0.11932556284E+03  0.83407690834E+02  0.24371043843E+03  0.17300000000E+03 0.  1.
         -6    1    1    2    0  502 -0.90941436994E+02 -0.11932556284E+03  0.50410766069E+03  0.55368083629E+03  0.17300000000E+03 0.  1.
</event>
<event>
 4    1  0.5959403E+000  0.1000000E+03  0.7546771E-02  0.1280296E+00
         21   -1    0    0  503  502  0.00000000000E+00  0.00000000000E+00  0.10074747309E+03  0.10074747309E+03  0.00000000000E+00 0. -1.
         21   -1    0    0  501  503 -0.00000000000E+00 -0.00000000000E+00 -0.39381929693E+03  0.39381929693E+03  0.00000000000E+00 0. -1.
          6    1    1    2  501    0 -0.52251769964E+02  0.26212605513E+02 -0.24530692978E+03  0.30581340381E+03  0.17300000000E+03 0. -1.
         -6    1    1    2    0  502  0.52251769964E+02 -0.26212605513E+02 -0.47764894064E+02  0.18875336621E+03  0.17300000000E+03 0. -1.
</event>
<event>
 4    1  0.5959403E+000  0.1000000E+03  0.7546771E-02  0.1280296E+00
         21   -1    0    0  501  502  0.00000000000E+00  0.00000000000E+00  0.47381813635E+03  0.47381813635E+03  0.00000000000E+00 0.  1.
         21   -1    0    0  502  503 -0.00000000000E+00 -0.00000000000E+00 -0.80942216790E+02  0.80942216790E+02  0.00000000000E+00 0.  1.
          6    1    1    2  501    0 -0.85332678259E+02  0.30523507747E+02  0.17593505933E+03  0.26286022066E+03  0.17300000000E+03 0.  1.
         -6    1    1    2    0  503  0.85332678259E+02 -0.30523507747E+02  0.21694086023E+03  0.29190013248E+03  0.17300000000E+03 0.  1.
</event>
<event>
 4    1  0.5959403E+000  0.1000000E+03  0.7546771E-02  0.1280296E+00
         21   -1    0    0  501  502  0.00000000000E+00  0.00000000000E+00  0.61293148195E+03  0.61293148195E+03  0.00000000000E+00 0.  1.
         21   -1    0    0  502  503 -0.00000000000E+00 -0.00000000000E+00 -0.22305221928E+03  0.22305221928E+03  0.00000000000E+00 0.  1.
          6    1    1    2  501    0 -0.21087118768E+03  0.15799116109E+01  0.47714407174E+03  0.54960405667E+03  0.17300000000E+03 0.  1.
         -6    1    1    2    0  503  0.21087118768E+03 -0.15799116109E+01 -0.87264809065E+02  0.28637964455E+03  0.17300000000E+03 0.  1.
</event>
<event>
 4    1  0.5959403E+000  0.1000000E+03  0.7546771E-02  0.1280296E+00
         21   -1    0    0  501  502  0.00000000000E+00  0.00000000000E+00  0.97903814090E+02  0.97903814090E+02  0.00000000000E+00 0.  1.
         21   -1    0    0  502  503 -0.00000000000E+00 -0.00000000000E+00 -0.33598217389E+03  0.33598217389E+03  0.00000000000E+00 0.  1.
          6    1    1    2  501    0 -0.10419747982E+02  0.14513236436E+02 -0.57512914003E+02  0.18318280612E+03  0.17300000000E+03 0.  1.
         -6    1    1    2    0  503  0.10419747982E+02 -0.14513236436E+02 -0.18056544579E+03  0.25070318186E+03  0.17300000000E+03 0.  1.
</event>
<event>
 4    1  0.5959403E+000  0.1000000E+03  0.7546771E-02  0.1280296E+00
         21   -1    0    0  501  502  0.00000000000E+00  0.00000000000E+00  0.37678282579E+03  0.37678282579E+03  0.00000000000E+00 0.  1.
         21   -1    0    0  502  503 -0.00000000000E+00 -0.00000000000E+00 -0.15790602169E+03  0.15790602169E+03  0.00000000000E+00 0.  1.
          6    1    1    2  501    0 -0.49428897756E+02 -0.15790355221E+03  0.16073644190E+03  0.28834346098E+03  0.17300000000E+03 0.  1.
         -6    1    1    2    0  503  0.49428897756E+02  0.15790355221E+03  0.58140362197E+02  0.24634538650E+03  0.17300000000E+03 0.  1.
</event>
<event>
 4    1  0.5959403E+000  0.1000000E+03  0.7546771E-02  0.1280296E+00
         21   -1    0    0  501  502  0.00000000000E+00  0.00000000000E+00  0.42688022795E+03  0.42688022795E+03  0.00000000000E+00 0.  1.
         21   -1    0    0  502  503 -0.00000000000E+00 -0.00000000000E+00 -0.19142503835E+03  0.19142503835E+03  0.00000000000E+00 0.  1.
          6    1    1    2  501    0 -0.18266202028E+03 -0.10163759197E+03  0.21500686952E+03  0.34619729591E+03  0.17300000000E+03 0.  1.
         -6    1    1    2    0  503  0.18266202028E+03  0.10163759197E+03  0.20448320084E+02  0.27210797039E+03  0.17300000000E+03 0.  1.
</event>
<event>
 4    1  0.5959403E+000  0.1000000E+03  0.7546771E-02  0.1280296E+00
         21   -1    0    0  501  502  0.00000000000E+00  0.00000000000E+00  0.36972020608E+02  0.36972020608E+02  0.00000000000E+00 0. -1.
         21   -1    0    0  502  503 -0.00000000000E+00 -0.00000000000E+00 -0.95004419626E+03  0.95004419626E+03  0.00000000000E+00 0.  1.
          6    1    1    2  501    0  0.18752745838E+02  0.60894809324E+02 -0.36777652381E+03  0.41139812195E+03  0.17300000000E+03 0. -1.
         -6    1    1    2    0  503 -0.18752745838E+02 -0.60894809324E+02 -0.54529565184E+03  0.57561809492E+03  0.17300000000E+03 0.  1.
</event>
<event>
 4    1  0.5959403E+000  0.1000000E+03  0.7546771E-02  0.1280296E+00
         21   -1    0    0  501  502  0.00000000000E+00  0.00000000000E+00  0.12325331649E+04  0.12325331649E+04  0.00000000000E+00 0. -1.
         21   -1    0    0  502  503 -0.00000000000E+00 -0.00000000000E+00 -0.71323595298E+02  0.71323595298E+02  0.00000000000E+00 0.  1.
          6    1    1    2  501    0 -0.13429510939E+03 -0.28361845055E+00  0.10200574819E+04  0.10433031790E+04  0.17300000000E+03 0. -1.
         -6    1    1    2    0  503  0.13429510939E+03  0.28361845055E+00  0.14115208775E+03  0.26055358129E+03  0.17300000000E+03 0.  1.
</event>
<event>
 4    1  0.5959403E+000  0.1000000E+03  0.7546771E-02  0.1280296E+00
         21   -1    0    0  501  502  0.00000000000E+00  0.00000000000E+00  0.25191036648E+03  0.25191036648E+03  0.00000000000E+00 0. -1.
         21   -1    0    0  502  503 -0.00000000000E+00 -0.00000000000E+00 -0.57788619289E+03  0.57788619289E+03  0.00000000000E+00 0. -1.
          6    1    1    2  501    0 -0.30767778095E+03 -0.58401652628E+02 -0.18847679049E+02  0.35827448266E+03  0.17300000000E+03 0. -1.
         -6    1    1    2    0  503  0.30767778095E+03  0.58401652628E+02 -0.30712814737E+03  0.47152207671E+03  0.17300000000E+03 0. -1.
</event>
<event>
 4    1  0.5959403E+000  0.1000000E+03  0.7546771E-02  0.1280296E+00
         21   -1    0    0  501  502  0.00000000000E+00  0.00000000000E+00  0.23217062941E+04  0.23217062941E+04  0.00000000000E+00 0. -1.
         21   -1    0    0  502  503 -0.00000000000E+00 -0.00000000000E+00 -0.44522095183E+02  0.44522095183E+02  0.00000000000E+00 0. -1.
          6    1    1    2  501    0  0.22324189092E+03 -0.13935546264E+03  0.90063807037E+03  0.95411467897E+03  0.17300000000E+03 0. -1.
         -6    1    1    2    0  503 -0.22324189092E+03  0.13935546264E+03  0.13765461285E+04  0.14121137103E+04  0.17300000000E+03 0. -1.
</event>
<event>
 4    1  0.5959403E+000  0.1000000E+03  0.7546771E-02  0.1280296E+00
         21   -1    0    0  501  502  0.00000000000E+00  0.00000000000E+00  0.97618014907E+03  0.97618014907E+03  0.00000000000E+00 0. -1.
         21   -1    0    0  502  503 -0.00000000000E+00 -0.00000000000E+00 -0.11232635447E+03  0.11232635447E+03  0.00000000000E+00 0. -1.
          6    1    1    2  501    0  0.20906061086E+03  0.43495271082E+02  0.73554139636E+03  0.78520591145E+03  0.17300000000E+03 0. -1.
         -6    1    1    2    0  503 -0.20906061086E+03 -0.43495271082E+02  0.12831239824E+03  0.30330059209E+03  0.17300000000E+03 0. -1.
</event>
<event>
 4    1  0.5959403E+000  0.1000000E+03  0.7546771E-02  0.1280296E+00
         21   -1    0    0  501  502  0.00000000000E+00  0.00000000000E+00  0.10238121661E+04  0.10238121661E+04  0.00000000000E+00 0. -1.
         21   -1    0    0  502  503 -0.00000000000E+00 -0.00000000000E+00 -0.37757103816E+02  0.37757103816E+02  0.00000000000E+00 0. -1.
          6    1    1    2  501    0  0.71888448534E+02 -0.26052045180E+02  0.63791960315E+03  0.66536988072E+03  0.17300000000E+03 0. -1.
         -6    1    1    2    0  503 -0.71888448534E+02  0.26052045180E+02  0.34813545914E+03  0.39619938920E+03  0.17300000000E+03 0. -1.
</event>
<event>
 4    1  0.5959403E+000  0.1000000E+03  0.7546771E-02  0.1280296E+00
         21   -1    0    0  503  502  0.00000000000E+00  0.00000000000E+00  0.22427549640E+04  0.22427549640E+04  0.00000000000E+00 0.  1.
         21   -1    0    0  501  503 -0.00000000000E+00 -0.00000000000E+00 -0.23169708526E+02  0.23169708526E+02  0.00000000000E+00 0. -1.
          6    1    1    2  501    0 -0.45045961440E+02 -0.19044876771E+02  0.41321479316E+03  0.45062990498E+03  0.17300000000E+03 0. -1.
         -6    1    1    2    0  502  0.45045961440E+02  0.19044876771E+02  0.18063704623E+04  0.18152947676E+04  0.17300000000E+03 0.  1.
</event>
<event>
 4    1  0.5959403E+000  0.1000000E+03  0.7546771E-02  0.1280296E+00
         21   -1    0    0  503  502  0.00000000000E+00  0.00000000000E+00  0.16735750962E+04  0.16735750962E+04  0.00000000000E+00 0.  1.
         21   -1    0    0  501  503 -0.00000000000E+00 -0.00000000000E+00 -0.22816746684E+02  0.22816746684E+02  0.00000000000E+00 0. -1.
          6    1    1    2  501    0 -0.16102437561E+02  0.55884112318E+02  0.52233975496E+03  0.55330836079E+03  0.17300000000E+03 0. -1.
         -6    1    1    2    0  502  0.16102437561E+02 -0.55884112318E+02  0.11284185945E+04  0.11430834821E+04  0.17300000000E+03 0.  1.
</event>
<event>
 4    1  0.5959403E+000  0.1000000E+03  0.7546771E-02  0.1280296E+00
         21   -1    0    0  503  502  0.00000000000E+00  0.00000000000E+00  0.42285353484E+03  0.42285353484E+03  0.00000000000E+00 0. -1.
         21   -1    0    0  501  503 -0.00000000000E+00 -0.00000000000E+00 -0.15359632421E+03  0.15359632421E+03  0.00000000000E+00 0. -1.
          6    1    1    2  501    0  0.15296034520E+03  0.85183571374E+02  0.20936288819E+03  0.32313298654E+03  0.17300000000E+03 0. -1.
         -6    1    1    2    0  502 -0.15296034520E+03 -0.85183571374E+02  0.59894322449E+02  0.25331687251E+03  0.17300000000E+03 0. -1.
</event>
<event>
 4    1  0.5959403E+000  0.1000000E+03  0.7546771E-02  0.1280296E+00
         21   -1    0    0  503  502  0.00000000000E+00  0.00000000000E+00  0.52698976795E+02  0.52698976795E+02  0.00000000000E+00 0. -1.
         21   -1    0    0  501  503 -0.00000000000E+00 -0.00000000000E+00 -0.14292244175E+04  0.14292244175E+04  0.00000000000E+00 0. -1.
          6    1    1    2  501    0  0.17898042284E+03  0.11552476486E+03 -0.69667203686E+03  0.74877292285E+03  0.17300000000E+03 0. -1.
         -6    1    1    2    0  502 -0.17898042284E+03 -0.11552476486E+03 -0.67985340388E+03  0.73315047147E+03  0.17300000000E+03 0. -1.
</event>
<event>
 4    1  0.5959403E+000  0.1000000E+03  0.7546771E-02  0.1280296E+00
         21   -1    0    0  501  502  0.00000000000E+00  0.00000000000E+00  0.22469174040E+03  0.22469174040E+03  0.00000000000E+00 0. -1.
         21   -1    0    0  502  503 -0.00000000000E+00 -0.00000000000E+00 -0.17368160150E+03  0.17368160150E+03  0.00000000000E+00 0. -1.
          6    1    1    2  501    0  0.75165673008E+02 -0.55948154733E+02  0.43421824629E+02  0.20148084095E+03  0.17300000000E+03 0. -1.
         -6    1    1    2    0  503 -0.75165673008E+02  0.55948154733E+02  0.75883142637E+01  0.19689250095E+03  0.17300000000E+03 0. -1.
</event>
<event>
 4    1  0.5959403E+000  0.1000000E+03  0.7546771E-02  0.1280296E+00
         21   -1    0    0  501  502  0.00000000000E+00  0.00000000000E+00  0.58717884581E+03  0.58717884581E+03  0.00000000000E+00 0. -1.
         21   -1    0    0  502  503 -0.00000000000E+00 -0.00000000000E+00 -0.20285770535E+03  0.20285770535E+03  0.00000000000E+00 0.  1.
          6    1    1    2  501    0 -0.17470114362E+03  0.16020323879E+03  0.40007653967E+03  0.49616106749E+03  0.17300000000E+03 0. -1.
         -6    1    1    2    0  503  0.17470114362E+03 -0.16020323879E+03 -0.15755399208E+02  0.29387548367E+03  0.17300000000E+03 0.  1.
</event>
<event>
 4    1  0.5959403E+000  0.1000000E+03  0.7546771E-02  0.1280296E+00
         21   -1    0    0  501  502  0.00000000000E+00  0.00000000000E+00  0.55074897523E+03  0.55074897523E+03  0.00000000000E+00 0. -1.
         21   -1    0    0  502  503 -0.00000000000E+00 -0.00000000000E+00 -0.79227439682E+02  0.79227439682E+02  0.00000000000E+00 0.  1.
          6    1    1    2  501    0 -0.49857586387E+02  0.10529883406E+03  0.21844864758E+03  0.30203051998E+03  0.17300000000E+03 0. -1.
         -6    1    1    2    0  503  0.49857586387E+02 -0.10529883406E+03  0.25307288797E+03  0.32794589493E+03  0.17300000000E+03 0.  1.
</event>
<event>
 4    1  0.5959403E+000  0.1000000E+03  0.7546771E-02  0.1280296E+00
         21   -1    0    0  501  502  0.00000000000E+00  0.00000000000E+00  0.14400274835E+04  0.14400274835E+04  0.00000000000E+00 0. -1.
         21   -1    0    0  502  503 -0.00000000000E+00 -0.00000000000E+00 -0.47030932243E+02  0.47030932243E+02  0.00000000000E+00 0.  1.
          6    1    1    2  501    0 -0.27285411370E+02 -0.17618175067E+03  0.91803326502E+03  0.95105130179E+03  0.17300000000E+03 0. -1.
         -6    1    1    2    0  503  0.27285411370E+02  0.17618175067E+03  0.47496328626E+03  0.53600711398E+03  0.17300000000E+03 0.  1.
</event>
<event>
 4    1  0.5959403E+000  0.1000000E+03  0.7546771E-02  0.1280296E+00
         21   -1    0    0  501  502  0.00000000000E+00  0.00000000000E+00  0.76972865149E+02  0.76972865149E+02  0.00000000000E+00 0. -1.
         21   -1    0    0  502  503 -0.00000000000E+00 -0.00000000000E+00 -0.10130115544E+04  0.10130115544E+04  0.00000000000E+00 0.  1.
          6    1    1    2  501    0 -0.18695086470E+03 -0.94049011838E+02 -0.34079031429E+03  0.43573257940E+03  0.17300000000E+03 0. -1.
         -6    1    1    2    0  503  0.18695086470E+03  0.94049011838E+02 -0.59524837494E+03  0.65425184013E+03  0.17300000000E+03 0.  1.
</event>
<event>
 4    1  0.5959403E+000  0.1000000E+03  0.7546771E-02  0.1280296E+00
         21   -1    0    0  503  502  0.00000000000E+00  0.00000000000E+00  0.32701727914E+03  0.32701727914E+03  0.00000000000E+00 0.  1.
         21   -1    0    0  501  503 -0.00000000000E+00 -0.00000000000E+00 -0.86471505421E+03  0.86471505421E+03  0.00000000000E+00 0.  1.
          6    1    1    2  501    0 -0.14579864628E+03 -0.29105048088E+02 -0.80710816569E+03  0.83872339910E+03  0.17300000000E+03 0.  1.
         -6    1    1    2    0  502  0.14579864628E+03  0.29105048088E+02  0.26941039063E+03  0.35300893425E+03  0.17300000000E+03 0.  1.
</event>
<event>
 4    1  0.5959403E+000  0.1000000E+03  0.7546771E-02  0.1280296E+00
         21   -1    0    0  503  502  0.00000000000E+00  0.00000000000E+00  0.77851128695E+02  0.77851128695E+02  0.00000000000E+00 0.  1.
         21   -1    0    0  501  503 -0.00000000000E+00 -0.00000000000E+00 -0.10498131726E+04  0.10498131726E+04  0.00000000000E+00 0.  1.
          6    1    1    2  501    0 -0.12407377027E+03  0.18881436820E+03 -0.54017205799E+03  0.61054075895E+03  0.17300000000E+03 0.  1.
         -6    1    1    2    0  502  0.12407377027E+03 -0.18881436820E+03 -0.43178998590E+03  0.51712354233E+03  0.17300000000E+03 0.  1.
</event>
<event>
 4    1  0.5959403E+000  0.1000000E+03  0.7546771E-02  0.1280296E+00
         21   -1    0    0  503  502  0.00000000000E+00  0.00000000000E+00  0.20000366393E+03  0.20000366393E+03  0.00000000000E+00 0.  1.
         21   -1    0    0  501  503 -0.00000000000E+00 -0.00000000000E+00 -0.23758358150E+03  0.23758358150E+03  0.00000000000E+00 0.  1.
          6    1    1    2  501    0  0.34738464512E+02 -0.10528442244E+03 -0.91840447216E+02  0.22506718613E+03  0.17300000000E+03 0.  1.
         -6    1    1    2    0  502 -0.34738464512E+02  0.10528442244E+03  0.54260529649E+02  0.21252005930E+03  0.17300000000E+03 0.  1.
</event>
<event>
 4    1  0.5959403E+000  0.1000000E+03  0.7546771E-02  0.1280296E+00
         21   -1    0    0  501  502  0.00000000000E+00  0.00000000000E+00  0.47645277702E+03  0.47645277702E+03  0.00000000000E+00 0.  1.
         21   -1    0    0  502  503 -0.00000000000E+00 -0.00000000000E+00 -0.12782226490E+03  0.12782226490E+03  0.00000000000E+00 0. -1.
          6    1    1    2  501    0  0.10470611596E+03 -0.73034183943E+02  0.32262825072E+03  0.38770523714E+03  0.17300000000E+03 0. -1.
         -6    1    1    2    0  503 -0.10470611596E+03  0.73034183943E+02  0.26002261406E+02  0.21656980478E+03  0.17300000000E+03 0.  1.
</event>
<event>
 4    1  0.5959403E+000  0.1000000E+03  0.7546771E-02  0.1280296E+00
         21   -1    0    0  501  502  0.00000000000E+00  0.00000000000E+00  0.16605879968E+03  0.16605879968E+03  0.00000000000E+00 0.  1.
         21   -1    0    0  502  503 -0.00000000000E+00 -0.00000000000E+00 -0.25526615989E+03  0.25526615989E+03  0.00000000000E+00 0. -1.
          6    1    1    2  501    0 -0.33786851477E+02 -0.22991222331E+01  0.64227998149E+02  0.18761949004E+03  0.17300000000E+03 0. -1.
         -6    1    1    2    0  503  0.33786851477E+02  0.22991222331E+01 -0.15343535836E+03  0.23370546953E+03  0.17300000000E+03 0.  1.
</event>
<event>
 4    1  0.5959403E+000  0.1000000E+03  0.7546771E-02  0.1280296E+00
         21   -1    0    0  501  502  0.00000000000E+00  0.00000000000E+00  0.13864719025E+03  0.13864719025E+03  0.00000000000E+00 0.  1.
         21   -1    0    0  502  503 -0.00000000000E+00 -0.00000000000E+00 -0.48323424360E+03  0.48323424360E+03  0.00000000000E+00 0. -1.
          6    1    1    2  501    0  0.12002201837E+03 -0.90340955720E+02 -0.27624160962E+02  0.23077882798E+03  0.17300000000E+03 0. -1.
         -6    1    1    2    0  503 -0.12002201837E+03  0.90340955720E+02 -0.31696289238E+03  0.39110260587E+03  0.17300000000E+03 0.  1.
</event>
<event>
 4    1  0.5959403E+000  0.1000000E+03  0.7546771E-02  0.1280296E+00
         21   -1    0    0  501  502  0.00000000000E+00  0.00000000000E+00  0.30588907397E+03  0.30588907397E+03  0.00000000000E+00 0. -1.
         21   -1    0    0  502  503 -0.00000000000E+00 -0.00000000000E+00 -0.21780694462E+03  0.21780694462E+03  0.00000000000E+00 0. -1.
          6    1    1    2  501    0 -0.14332052788E+02 -0.44981778454E+02  0.23237698236E+03  0.29352483721E+03  0.17300000000E+03 0. -1.
         -6    1    1    2    0  503  0.14332052788E+02  0.44981778454E+02 -0.14429485301E+03  0.23017118137E+03  0.17300000000E+03 0. -1.
</event>
<event>
 4    1  0.5959403E+000  0.1000000E+03  0.7546771E-02  0.1280296E+00
         21   -1    0    0  501  502  0.00000000000E+00  0.00000000000E+00  0.59636388906E+02  0.59636388906E+02  0.00000000000E+00 0. -1.
         21   -1    0    0  502  503 -0.00000000000E+00 -0.00000000000E+00 -0.85928469344E+03  0.85928469344E+03  0.00000000000E+00 0. -1.
          6    1    1    2  501    0  0.37525782879E+02 -0.10869892207E+03 -0.21724472277E+03  0.30057929006E+03  0.17300000000E+03 0. -1.
         -6    1    1    2    0  503 -0.37525782879E+02  0.10869892207E+03 -0.58240358177E+03  0.61834179229E+03  0.17300000000E+03 0. -1.
</event>
<event>
 4    1  0.5959403E+000  0.1000000E+03  0.7546771E-02  0.1280296E+00
         21   -1    0    0  501  502  0.00000000000E+00  0.00000000000E+00  0.31643925757E+03  0.31643925757E+03  0.00000000000E+00 0. -1.
         21   -1    0    0  502  503 -0.00000000000E+00 -0.00000000000E+00 -0.14576600010E+03  0.14576600010E+03  0.00000000000E+00 0.  1.
          6    1    1    2  501    0  0.87916158759E+02 -0.76976481174E+02  0.13959393715E+03  0.25113760554E+03  0.17300000000E+03 0. -1.
         -6    1    1    2    0  503 -0.87916158759E+02  0.76976481174E+02  0.31079320318E+02  0.21106765213E+03  0.17300000000E+03 0.  1.
</event>
<event>
 4    1  0.5959403E+000  0.1000000E+03  0.7546771E-02  0.1280296E+00
         21   -1    0    0  501  502  0.00000000000E+00  0.00000000000E+00  0.26274145759E+02  0.26274145759E+02  0.00000000000E+00 0. -1.
         21   -1    0    0  502  503 -0.00000000000E+00 -0.00000000000E+00 -0.12540610878E+04  0.12540610878E+04  0.00000000000E+00 0.  1.
          6    1    1    2  501    0  0.29166960154E+02  0.40435195654E+02 -0.53234575090E+03  0.56196682741E+03  0.17300000000E+03 0. -1.
         -6    1    1    2    0  503 -0.29166960154E+02 -0.40435195654E+02 -0.69544119114E+03  0.71836840614E+03  0.17300000000E+03 0.  1.
</event>
<event>
 4    1  0.5959403E+000  0.1000000E+03  0.7546771E-02  0.1280296E+00
         21   -1    0    0  501  502  0.00000000000E+00  0.00000000000E+00  0.25527749313E+02  0.25527749313E+02  0.00000000000E+00 0. -1.
         21   -1    0    0  502  503 -0.00000000000E+00 -0.00000000000E+00 -0.14194049968E+04  0.14194049968E+04  0.00000000000E+00 0.  1.
          6    1    1    2  501    0  0.69956412502E+02 -0.37547712858E+02 -0.69231423404E+03  0.71800538232E+03  0.17300000000E+03 0. -1.
         -6    1    1    2    0  503 -0.69956412502E+02  0.37547712858E+02 -0.70156301349E+03  0.72692736383E+03  0.17300000000E+03 0.  1.
</event>
<event>
 4    1  0.5959403E+000  0.1000000E+03  0.7546771E-02  0.1280296E+00
         21   -1    0    0  503  502  0.00000000000E+00  0.00000000000E+00  0.21142684244E+03  0.21142684244E+03  0.00000000000E+00 0.  1.
         21   -1    0    0  501  503 -0.00000000000E+00 -0.00000000000E+00 -0.75170533387E+03  0.75170533387E+03  0.00000000000E+00 0.  1.
          6    1    1    2  501    0  0.10563392913E+03  0.43690895319E+02 -0.68143850073E+03  0.71228846094E+03  0.17300000000E+03 0.  1.
         -6    1    1    2    0  502 -0.10563392913E+03 -0.43690895319E+02  0.14116000930E+03  0.25084371537E+03  0.17300000000E+03 0.  1.
</event>
<event>
 4    1  0.5959403E+000  0.1000000E+03  0.7546771E-02  0.1280296E+00
         21   -1    0    0  503  502  0.00000000000E+00  0.00000000000E+00  0.15016896986E+03  0.15016896986E+03  0.00000000000E+00 0.  1.
         21   -1    0    0  501  503 -0.00000000000E+00 -0.00000000000E+00 -0.32997722187E+03  0.32997722187E+03  0.00000000000E+00 0.  1.
          6    1    1    2  501    0  0.69958761582E+02  0.96481730115E+02 -0.16930523266E+03  0.26980773594E+03  0.17300000000E+03 0.  1.
         -6    1    1    2    0  502 -0.69958761582E+02 -0.96481730115E+02 -0.10503019355E+02  0.21033845579E+03  0.17300000000E+03 0.  1.
</event>
<event>
 4    1  0.5959403E+000  0.1000000E+03  0.7546771E-02  0.1280296E+00
         21   -1    0    0  503  502  0.00000000000E+00  0.00000000000E+00  0.33056777493E+03  0.33056777493E+03  0.00000000000E+00 0. -1.
         21   -1    0    0  501  503 -0.00000000000E+00 -0.00000000000E+00 -0.21172648742E+03  0.21172648742E+03  0.00000000000E+00 0.  1.
          6    1    1    2  501    0 -0.83046013416E+01  0.36537238160E+02 -0.14209155102E+03  0.22698666271E+03  0.17300000000E+03 0.  1.
         -6    1    1    2    0  502  0.83046013416E+01 -0.36537238160E+02  0.26093283852E+03  0.31530759965E+03  0.17300000000E+03 0. -1.
</event>
<event>
 4    1  0.5959403E+000  0.1000000E+03  0.7546771E-02  0.1280296E+00
         21   -1    0    0  503  502  0.00000000000E+00  0.00000000000E+00  0.24176742796E+03  0.24176742796E+03  0.00000000000E+00 0. -1.
         21   -1    0    0  501  503 -0.00000000000E+00 -0.00000000000E+00 -0.19211358864E+03  0.19211358864E+03  0.00000000000E+00 0.  1.
          6    1    1    2  501    0 -0.20222788756E+02  0.86124186597E+02 -0.69017698403E+02  0.20620082297E+03  0.17300000000E+03 0.  1.
         -6    1    1    2    0  502  0.20222788756E+02 -0.86124186597E+02  0.11867153773E+03  0.22768019362E+03  0.17300000000E+03 0. -1.
</event>
<event>
 4    1  0.5959403E+000  0.1000000E+03  0.7546771E-02  0.1280296E+00
         21   -1    0    0  503  502  0.00000000000E+00  0.00000000000E+00  0.11019266386E+04  0.11019266386E+04  0.00000000000E+00 0. -1.
         21   -1    0    0  501  503 -0.00000000000E+00 -0.00000000000E+00 -0.68012470155E+02  0.68012470155E+02  0.00000000000E+00 0.  1.
          6    1    1    2  501    0  0.11635442497E+03  0.89677309588E+01  0.13833443703E+03  0.25036810675E+03  0.17300000000E+03 0.  1.
         -6    1    1    2    0  502 -0.11635442497E+03 -0.89677309588E+01  0.89557973139E+03  0.91957100198E+03  0.17300000000E+03 0. -1.
</event>
<event>
 4    1  0.5959403E+000  0.1000000E+03  0.7546771E-02  0.1280296E+00
         21   -1    0    0  503  502  0.00000000000E+00  0.00000000000E+00  0.37355478697E+02  0.37355478697E+02  0.00000000000E+00 0. -1.
         21   -1    0    0  501  503 -0.00000000000E+00 -0.00000000000E+00 -0.18793325798E+04  0.18793325798E+04  0.00000000000E+00 0.  1.
          6    1    1    2  501    0 -0.56964246507E+02  0.98489203040E+02 -0.32304955550E+03  0.38371221482E+03  0.17300000000E+03 0.  1.
         -6    1    1    2    0  502  0.56964246507E+02 -0.98489203040E+02 -0.15189275456E+04  0.15329758436E+04  0.17300000000E+03 0. -1.
</event>
<event>
 4    1  0.5959403E+000  0.1000000E+03  0.7546771E-02  0.1280296E+00
         21   -1    0    0  503  502  0.00000000000E+00  0.00000000000E+00  0.18057957840E+03  0.18057957840E+03  0.00000000000E+00 0. -1.
         21   -1    0    0  501  503 -0.00000000000E+00 -0.00000000000E+00 -0.50101684073E+03  0.50101684073E+03  0.00000000000E+00 0.  1.
          6    1    1    2  501    0  0.98495539538E+02  0.22347070288E+03 -0.19428242834E+03  0.35681253946E+03  0.17300000000E+03 0.  1.
         -6    1    1    2    0  502 -0.98495539538E+02 -0.22347070288E+03 -0.12615483400E+03  0.32478387967E+03  0.17300000000E+03 0. -1.
</event>
<event>
 4    1  0.5959403E+000  0.1000000E+03  0.7546771E-02  0.1280296E+00
         21   -1    0    0  501  502  0.00000000000E+00  0.00000000000E+00  0.80065758653E+02  0.80065758653E+02  0.00000000000E+00 0.  1.
         21   -1    0    0  502  503 -0.00000000000E+00 -0.00000000000E+00 -0.76100189914E+03  0.76100189914E+03  0.00000000000E+00 0. -1.
          6    1    1    2  501    0  0.17295862321E+03  0.14534489909E+02 -0.29006550818E+03  0.37972744933E+03  0.17300000000E+03 0. -1.
         -6    1    1    2    0  503 -0.17295862321E+03 -0.14534489909E+02 -0.39087063231E+03  0.46134020846E+03  0.17300000000E+03 0.  1.
</event>
<event>
 4    1  0.5959403E+000  0.1000000E+03  0.7546771E-02  0.1280296E+00
         21   -1    0    0  501  502  0.00000000000E+00  0.00000000000E+00  0.32932631933E+03  0.32932631933E+03  0.00000000000E+00 0.  1.
         21   -1    0    0  502  503 -0.00000000000E+00 -0.00000000000E+00 -0.11942773034E+03  0.11942773034E+03  0.00000000000E+00 0. -1.
          6    1    1    2  501    0  0.32894360659E+02  0.32094056499E+02  0.20154665102E+03  0.26955912146E+03  0.17300000000E+03 0. -1.
         -6    1    1    2    0  503 -0.32894360659E+02 -0.32094056499E+02  0.83519379614E+01  0.17919492820E+03  0.17300000000E+03 0.  1.
</event>
<event>
 4    1  0.5959403E+000  0.1000000E+03  0.7546771E-02  0.1280296E+00
         21   -1    0    0  501  502  0.00000000000E+00  0.00000000000E+00  0.50113739980E+03  0.50113739980E+03  0.00000000000E+00 0.  1.
         21   -1    0    0  502  503 -0.00000000000E+00 -0.00000000000E+00 -0.16627065507E+03  0.16627065507E+03  0.00000000000E+00 0. -1.
          6    1    1    2  501    0  0.42377649400E+02  0.37053651758E+02  0.42651830116E+03  0.46369785367E+03  0.17300000000E+03 0. -1.
         -6    1    1    2    0  503 -0.42377649400E+02 -0.37053651758E+02 -0.91651556431E+02  0.20371020120E+03  0.17300000000E+03 0.  1.
</event>
<event>
 4    1  0.5959403E+000  0.1000000E+03  0.7546771E-02  0.1280296E+00
         21   -1    0    0  503  502  0.00000000000E+00  0.00000000000E+00  0.19235187687E+04  0.19235187687E+04  0.00000000000E+00 0.  1.
         21   -1    0    0  501  503 -0.00000000000E+00 -0.00000000000E+00 -0.35377810245E+02  0.35377810245E+02  0.00000000000E+00 0.  1.
          6    1    1    2  501    0 -0.14088966306E+03  0.77502171940E+02  0.52826429423E+03  0.57866108248E+03  0.17300000000E+03 0.  1.
         -6    1    1    2    0  502  0.14088966306E+03 -0.77502171940E+02  0.13598766642E+04  0.13802354965E+04  0.17300000000E+03 0.  1.
</event>
<event>
 4    1  0.5959403E+000  0.1000000E+03  0.7546771E-02  0.1280296E+00
         21   -1    0    0  503  502  0.00000000000E+00  0.00000000000E+00  0.26291647761E+03  0.26291647761E+03  0.00000000000E+00 0.  1.
         21   -1    0    0  501  503 -0.00000000000E+00 -0.00000000000E+00 -0.81196184483E+03  0.81196184483E+03  0.00000000000E+00 0.  1.
          6    1    1    2  501    0 -0.78999196609E+02 -0.15979952351E+01 -0.76431725842E+03  0.78762510002E+03  0.17300000000E+03 0.  1.
         -6    1    1    2    0  502  0.78999196609E+02  0.15979952351E+01  0.21527189120E+03  0.28725322243E+03  0.17300000000E+03 0.  1.
</event>
<event>
 4    1  0.5959403E+000  0.1000000E+03  0.7546771E-02  0.1280296E+00
         21   -1    0    0  503  502  0.00000000000E+00  0.00000000000E+00  0.14403093517E+03  0.14403093517E+03  0.00000000000E+00 0.  1.
         21   -1    0    0  501  503 -0.00000000000E+00 -0.00000000000E+00 -0.36213750991E+03  0.36213750991E+03  0.00000000000E+00 0.  1.
          6    1    1    2  501    0 -0.15212773647E+01  0.14879336204E+03 -0.98644572939E+02  0.24859913645E+03  0.17300000000E+03 0.  1.
         -6    1    1    2    0  502  0.15212773647E+01 -0.14879336204E+03 -0.11946200181E+03  0.25756930863E+03  0.17300000000E+03 0.  1.
</event>
<event>
 4    1  0.5959403E+000  0.1000000E+03  0.7546771E-02  0.1280296E+00
         21   -1    0    0  501  502  0.00000000000E+00  0.00000000000E+00  0.35097508626E+03  0.35097508626E+03  0.00000000000E+00 0.  1.
         21   -1    0    0  502  503 -0.00000000000E+00 -0.00000000000E+00 -0.12324490087E+03  0.12324490087E+03  0.00000000000E+00 0. -1.
          6    1    1    2  501    0 -0.77487558749E+02  0.34285395832E+02  0.20324947680E+03  0.28003421210E+03  0.17300000000E+03 0.  1.
         -6    1    1    2    0  503  0.77487558749E+02 -0.34285395832E+02  0.24480708594E+02  0.19418577502E+03  0.17300000000E+03 0. -1.
</event>
<event>
 4    1  0.5959403E+000  0.1000000E+03  0.7546771E-02  0.1280296E+00
         21   -1    0    0  503  502  0.00000000000E+00  0.00000000000E+00  0.46004130332E+03  0.46004130332E+03  0.00000000000E+00 0. -1.
         21   -1    0    0  501  503 -0.00000000000E+00 -0.00000000000E+00 -0.13864593366E+03  0.13864593366E+03  0.00000000000E+00 0.  1.
          6    1    1    2  501    0  0.83144470757E+02 -0.15724249679E+03  0.10490610977E+03  0.26939283153E+03  0.17300000000E+03 0. -1.
         -6    1    1    2    0  502 -0.83144470757E+02  0.15724249679E+03  0.21648925988E+03  0.32929440544E+03  0.17300000000E+03 0.  1.
</event>
<event>
 4    1  0.5959403E+000  0.1000000E+03  0.7546771E-02  0.1280296E+00
         21   -1    0    0  503  502  0.00000000000E+00  0.00000000000E+00  0.21719865405E+03  0.21719865405E+03  0.00000000000E+00 0.  1.
         21   -1    0    0  501  503 -0.00000000000E+00 -0.00000000000E+00 -0.28927875182E+03  0.28927875182E+03  0.00000000000E+00 0. -1.
          6    1    1    2  501    0  0.23227153980E+02  0.77527285042E+02 -0.20004230878E+03  0.27657893251E+03  0.17300000000E+03 0. -1.
         -6    1    1    2    0  502 -0.23227153980E+02 -0.77527285042E+02  0.12796221101E+03  0.22989847336E+03  0.17300000000E+03 0.  1.
</event>
<event>
 4    1  0.5959403E+000  0.1000000E+03  0.7546771E-02  0.1280296E+00
         21   -1    0    0  503  502  0.00000000000E+00  0.00000000000E+00  0.11202514283E+04  0.11202514283E+04  0.00000000000E+00 0.  1.
         21   -1    0    0  501  503 -0.00000000000E+00 -0.00000000000E+00 -0.84729738298E+02  0.84729738298E+02  0.00000000000E+00 0. -1.
          6    1    1    2  501    0 -0.63207063524E+02 -0.59661582618E+02  0.49095556895E+02  0.19973485181E+03  0.17300000000E+03 0. -1.
         -6    1    1    2    0  502  0.63207063524E+02  0.59661582618E+02  0.98642613307E+03  0.10052463148E+04  0.17300000000E+03 0.  1.
</event>
<event>
 4    1  0.5959403E+000  0.1000000E+03  0.7546771E-02  0.1280296E+00
         21   -1    0    0  501  502  0.00000000000E+00  0.00000000000E+00  0.16341231108E+03  0.16341231108E+03  0.00000000000E+00 0.  1.
         21   -1    0    0  502  503 -0.00000000000E+00 -0.00000000000E+00 -0.39411028700E+03  0.39411028700E+03  0.00000000000E+00 0. -1.
          6    1    1    2  501    0 -0.14702990308E+03 -0.10349490443E+03 -0.64481214004E+02  0.25771265898E+03  0.17300000000E+03 0. -1.
         -6    1    1    2    0  503  0.14702990308E+03  0.10349490443E+03 -0.16621676192E+03  0.29980993910E+03  0.17300000000E+03 0.  1.
</event>
<event>
 4    1  0.5959403E+000  0.1000000E+03  0.7546771E-02  0.1280296E+00
         21   -1    0    0  501  502  0.00000000000E+00  0.00000000000E+00  0.91012023690E+02  0.91012023690E+02  0.00000000000E+00 0.  1.
         21   -1    0    0  502  503 -0.00000000000E+00 -0.00000000000E+00 -0.55668542721E+03  0.55668542721E+03  0.00000000000E+00 0. -1.
          6    1    1    2  501    0 -0.10956264338E+03  0.83577276685E+02 -0.17270187830E+03  0.28061374302E+03  0.17300000000E+03 0. -1.
         -6    1    1    2    0  503  0.10956264338E+03 -0.83577276685E+02 -0.29297152522E+03  0.36708370788E+03  0.17300000000E+03 0.  1.
</event>
<event>
 4    1  0.5959403E+000  0.1000000E+03  0.7546771E-02  0.1280296E+00
         21   -1    0    0  501  502  0.00000000000E+00  0.00000000000E+00  0.62433758989E+02  0.62433758989E+02  0.00000000000E+00 0.  1.
         21   -1    0    0  502  503 -0.00000000000E+00 -0.00000000000E+00 -0.72876319539E+03  0.72876319539E+03  0.00000000000E+00 0. -1.
          6    1    1    2  501    0  0.94133519468E+02  0.51743669085E+02 -0.21540236600E+03  0.29642150067E+03  0.17300000000E+03 0. -1.
         -6    1    1    2    0  503 -0.94133519468E+02 -0.51743669085E+02 -0.45092707040E+03  0.49477545371E+03  0.17300000000E+03 0.  1.
</event>
<event>
 4    1  0.5959403E+000  0.1000000E+03  0.7546771E-02  0.1280296E+00
         21   -1    0    0  501  502  0.00000000000E+00  0.00000000000E+00  0.19300571499E+03  0.19300571499E+03  0.00000000000E+00 0.  1.
         21   -1    0    0  502  503 -0.00000000000E+00 -0.00000000000E+00 -0.34191243756E+03  0.34191243756E+03  0.00000000000E+00 0. -1.
          6    1    1    2  501    0  0.13064114294E+03  0.11774775295E+03 -0.14902796713E+03  0.28821862629E+03  0.17300000000E+03 0. -1.
         -6    1    1    2    0  503 -0.13064114294E+03 -0.11774775295E+03  0.12124455808E+00  0.24669952626E+03  0.17300000000E+03 0.  1.
</event>
<event>
 4    1  0.5959403E+000  0.1000000E+03  0.7546771E-02  0.1280296E+00
         21   -1    0    0  501  502  0.00000000000E+00  0.00000000000E+00  0.17819234877E+03  0.17819234877E+03  0.00000000000E+00 0. -1.
         21   -1    0    0  502  503 -0.00000000000E+00 -0.00000000000E+00 -0.42685740653E+03  0.42685740653E+03  0.00000000000E+00 0. -1.
          6    1    1    2  501    0 -0.64897263631E+02  0.15048489796E+03  0.27963199475E+02  0.23993394896E+03  0.17300000000E+03 0. -1.
         -6    1    1    2    0  503  0.64897263631E+02 -0.15048489796E+03 -0.27662825723E+03  0.36511580634E+03  0.17300000000E+03 0. -1.
</event>
<event>
 4    1  0.5959403E+000  0.1000000E+03  0.7546771E-02  0.1280296E+00
         21   -1    0    0  501  502  0.00000000000E+00  0.00000000000E+00  0.79144651305E+03  0.79144651305E+03  0.00000000000E+00 0. -1.
         21   -1    0    0  502  503 -0.00000000000E+00 -0.00000000000E+00 -0.53355292553E+02  0.53355292553E+02  0.00000000000E+00 0. -1.
          6    1    1    2  501    0 -0.51720943631E+01  0.18733950799E+02  0.59347739023E+03  0.61848372993E+03  0.17300000000E+03 0. -1.
         -6    1    1    2    0  503  0.51720943631E+01 -0.18733950799E+02  0.14461383027E+03  0.22631807568E+03  0.17300000000E+03 0. -1.
</event>
<event>
 4    1  0.5959403E+000  0.1000000E+03  0.7546771E-02  0.1280296E+00
         21   -1    0    0  501  502  0.00000000000E+00  0.00000000000E+00  0.22640879774E+03  0.22640879774E+03  0.00000000000E+00 0. -1.
         21   -1    0    0  502  503 -0.00000000000E+00 -0.00000000000E+00 -0.19307116782E+03  0.19307116782E+03  0.00000000000E+00 0. -1.
          6    1    1    2  501    0 -0.33586498162E+02 -0.79806207392E+02  0.96210555355E+02  0.21606146014E+03  0.17300000000E+03 0. -1.
         -6    1    1    2    0  503  0.33586498162E+02  0.79806207392E+02 -0.62872925436E+02  0.20341850543E+03  0.17300000000E+03 0. -1.
</event>
<event>
 4    1  0.5959403E+000  0.1000000E+03  0.7546771E-02  0.1280296E+00
         21   -1    0    0  501  502  0.00000000000E+00  0.00000000000E+00  0.29117428576E+02  0.29117428576E+02  0.00000000000E+00 0.  1.
         21   -1    0    0  502  503 -0.00000000000E+00 -0.00000000000E+00 -0.15254132417E+04  0.15254132417E+04  0.00000000000E+00 0.  1.
          6    1    1    2  501    0 -0.78396802834E+02  0.59653136954E+02 -0.49309572013E+03  0.53176775443E+03  0.17300000000E+03 0.  1.
         -6    1    1    2    0  503  0.78396802834E+02 -0.59653136954E+02 -0.10032000930E+04  0.10227629159E+04  0.17300000000E+03 0.  1.
</event>
<event>
 4    1  0.5959403E+000  0.1000000E+03  0.7546771E-02  0.1280296E+00
         21   -1    0    0  501  502  0.00000000000E+00  0.00000000000E+00  0.89901285606E+02  0.89901285606E+02  0.00000000000E+00 0.  1.
         21   -1    0    0  502  503 -0.00000000000E+00 -0.00000000000E+00 -0.68327231976E+03  0.68327231976E+03  0.00000000000E+00 0.  1.
          6    1    1    2  501    0  0.11590080864E+03 -0.83153516950E+01 -0.87440966969E+02  0.22600235667E+03  0.17300000000E+03 0.  1.
         -6    1    1    2    0  503 -0.11590080864E+03  0.83153516950E+01 -0.50593006719E+03  0.54717124870E+03  0.17300000000E+03 0.  1.
</event>
<event>
 4    1  0.5959403E+000  0.1000000E+03  0.7546771E-02  0.1280296E+00
         21   -1    0    0  501  502  0.00000000000E+00  0.00000000000E+00  0.21768155891E+03  0.21768155891E+03  0.00000000000E+00 0. -1.
         21   -1    0    0  502  503 -0.00000000000E+00 -0.00000000000E+00 -0.64797702900E+03  0.64797702900E+03  0.00000000000E+00 0. -1.
          6    1    1    2  501    0 -0.88190887063E+02  0.84564321733E+02  0.14229134112E+03  0.25515599705E+03  0.17300000000E+03 0. -1.
         -6    1    1    2    0  503  0.88190887063E+02 -0.84564321733E+02 -0.57258681122E+03  0.61050259086E+03  0.17300000000E+03 0. -1.
</event>
<event>
 4    1  0.5959403E+000  0.1000000E+03  0.7546771E-02  0.1280296E+00
         21   -1    0    0  501  502  0.00000000000E+00  0.00000000000E+00  0.23369043156E+03  0.23369043156E+03  0.00000000000E+00 0. -1.
         21   -1    0    0  502  503 -0.00000000000E+00 -0.00000000000E+00 -0.38344197342E+03  0.38344197342E+03  0.00000000000E+00 0. -1.
          6    1    1    2  501    0  0.15524251615E+01 -0.11893943691E+03  0.14507261936E+03  0.25519417032E+03  0.17300000000E+03 0. -1.
         -6    1    1    2    0  503 -0.15524251615E+01  0.11893943691E+03 -0.29482416121E+03  0.36193823466E+03  0.17300000000E+03 0. -1.
</event>
<event>
 4    1  0.5959403E+000  0.1000000E+03  0.7546771E-02  0.1280296E+00
         21   -1    0    0  501  502  0.00000000000E+00  0.00000000000E+00  0.10142834103E+03  0.10142834103E+03  0.00000000000E+00 0. -1.
         21   -1    0    0  502  503 -0.00000000000E+00 -0.00000000000E+00 -0.40892586873E+03  0.40892586873E+03  0.00000000000E+00 0.  1.
          6    1    1    2  501    0  0.98830403547E+02 -0.27129739272E+02 -0.11326025190E+03  0.23078205320E+03  0.17300000000E+03 0. -1.
         -6    1    1    2    0  503 -0.98830403547E+02  0.27129739272E+02 -0.19423727580E+03  0.27957215657E+03  0.17300000000E+03 0.  1.
</event>
<event>
 4    1  0.5959403E+000  0.1000000E+03  0.7546771E-02  0.1280296E+00
         21   -1    0    0  501  502  0.00000000000E+00  0.00000000000E+00  0.51570539919E+03  0.51570539919E+03  0.00000000000E+00 0. -1.
         21   -1    0    0  502  503 -0.00000000000E+00 -0.00000000000E+00 -0.20310698144E+03  0.20310698144E+03  0.00000000000E+00 0.  1.
          6    1    1    2  501    0 -0.13804906473E+03 -0.45402476587E+02  0.41362954175E+03  0.47131446717E+03  0.17300000000E+03 0. -1.
         -6    1    1    2    0  503  0.13804906473E+03  0.45402476587E+02 -0.10103112400E+03  0.24749791347E+03  0.17300000000E+03 0.  1.
</event>
<event>
 4    1  0.5959403E+000  0.1000000E+03  0.7546771E-02  0.1280296E+00
         21   -1    0    0  503  502  0.00000000000E+00  0.00000000000E+00  0.11439628098E+03  0.11439628098E+03  0.00000000000E+00 0.  1.
         21   -1    0    0  501  503 -0.00000000000E+00 -0.00000000000E+00 -0.76184891927E+03  0.76184891927E+03  0.00000000000E+00 0.  1.
          6    1    1    2  501    0 -0.20156876185E+03 -0.88878969865E+02 -0.18534698466E+03  0.33587489004E+03  0.17300000000E+03 0.  1.
         -6    1    1    2    0  502  0.20156876185E+03  0.88878969865E+02 -0.46210565363E+03  0.54037031021E+03  0.17300000000E+03 0.  1.
</event>
<event>
 4    1  0.5959403E+000  0.1000000E+03  0.7546771E-02  0.1280296E+00
         21   -1    0    0  503  502  0.00000000000E+00  0.00000000000E+00  0.17951618712E+03  0.17951618712E+03  0.00000000000E+00 0.  1.
         21   -1    0    0  501  503 -0.00000000000E+00 -0.00000000000E+00 -0.29855277426E+03  0.29855277426E+03  0.00000000000E+00 0.  1.
          6    1    1    2  501    0 -0.13181848951E+03  0.78400691363E+02 -0.47159373478E+02  0.23595717639E+03  0.17300000000E+03 0.  1.
         -6    1    1    2    0  502  0.13181848951E+03 -0.78400691363E+02 -0.71877213661E+02  0.24211178498E+03  0.17300000000E+03 0.  1.
</event>
<event>
 4    1  0.5959403E+000  0.1000000E+03  0.7546771E-02  0.1280296E+00
         21   -1    0    0  501  502  0.00000000000E+00  0.00000000000E+00  0.62680975307E+03  0.62680975307E+03  0.00000000000E+00 0.  1.
         21   -1    0    0  502  503 -0.00000000000E+00 -0.00000000000E+00 -0.19494310368E+03  0.19494310368E+03  0.00000000000E+00 0.  1.
          6    1    1    2  501    0 -0.63262970484E+02  0.29832711514E+02  0.56336801564E+03  0.59346837756E+03  0.17300000000E+03 0.  1.
         -6    1    1    2    0  503  0.63262970484E+02 -0.29832711514E+02 -0.13150136626E+03  0.22828447919E+03  0.17300000000E+03 0.  1.
</event>
<event>
 4    1  0.5959403E+000  0.1000000E+03  0.7546771E-02  0.1280296E+00
         21   -1    0    0  501  502  0.00000000000E+00  0.00000000000E+00  0.33988924681E+03  0.33988924681E+03  0.00000000000E+00 0.  1.
         21   -1    0    0  502  503 -0.00000000000E+00 -0.00000000000E+00 -0.10098984312E+03  0.10098984312E+03  0.00000000000E+00 0.  1.
          6    1    1    2  501    0 -0.51630881149E+01  0.45098777444E+02  0.17695398460E+03  0.25159942343E+03  0.17300000000E+03 0.  1.
         -6    1    1    2    0  503  0.51630881149E+01 -0.45098777444E+02  0.61945419089E+02  0.18927966650E+03  0.17300000000E+03 0.  1.
</event>
<event>
 4    1  0.5959403E+000  0.1000000E+03  0.7546771E-02  0.1280296E+00
         21   -1    0    0  503  502  0.00000000000E+00  0.00000000000E+00  0.11221864328E+04  0.11221864328E+04  0.00000000000E+00 0.  1.
         21   -1    0    0  501  503 -0.00000000000E+00 -0.00000000000E+00 -0.41888798089E+02  0.41888798089E+02  0.00000000000E+00 0. -1.
          6    1    1    2  501    0  0.12427124047E+03 -0.39240061674E+02  0.56630306207E+03  0.60630955935E+03  0.17300000000E+03 0. -1.
         -6    1    1    2    0  502 -0.12427124047E+03  0.39240061674E+02  0.51399457266E+03  0.55776567156E+03  0.17300000000E+03 0.  1.
</event>
<event>
 4    1  0.5959403E+000  0.1000000E+03  0.7546771E-02  0.1280296E+00
         21   -1    0    0  501  502  0.00000000000E+00  0.00000000000E+00  0.20095455920E+03  0.20095455920E+03  0.00000000000E+00 0. -1.
         21   -1    0    0  502  503 -0.00000000000E+00 -0.00000000000E+00 -0.62634543837E+03  0.62634543837E+03  0.00000000000E+00 0.  1.
          6    1    1    2  501    0 -0.91228197658E+02 -0.29273512044E+03 -0.26380492128E+03  0.43993007544E+03  0.17300000000E+03 0. -1.
         -6    1    1    2    0  503  0.91228197658E+02  0.29273512044E+03 -0.16158595789E+03  0.38736992213E+03  0.17300000000E+03 0.  1.
</event>
<event>
 4    1  0.5959403E+000  0.1000000E+03  0.7546771E-02  0.1280296E+00
         21   -1    0    0  501  502  0.00000000000E+00  0.00000000000E+00  0.72653727235E+02  0.72653727235E+02  0.00000000000E+00 0. -1.
         21   -1    0    0  502  503 -0.00000000000E+00 -0.00000000000E+00 -0.13778219216E+04  0.13778219216E+04  0.00000000000E+00 0. -1.
          6    1    1    2  501    0  0.10788411135E+03  0.17309038175E+03 -0.26510087113E+03  0.37657234844E+03  0.17300000000E+03 0. -1.
         -6    1    1    2    0  503 -0.10788411135E+03 -0.17309038175E+03 -0.10400673232E+04  0.10739033004E+04  0.17300000000E+03 0. -1.
</event>
<event>
 4    1  0.5959403E+000  0.1000000E+03  0.7546771E-02  0.1280296E+00
         21   -1    0    0  501  502  0.00000000000E+00  0.00000000000E+00  0.26972077964E+03  0.26972077964E+03  0.00000000000E+00 0. -1.
         21   -1    0    0  502  503 -0.00000000000E+00 -0.00000000000E+00 -0.13492969495E+03  0.13492969495E+03  0.00000000000E+00 0. -1.
          6    1    1    2  501    0 -0.42868258267E+02 -0.22693117396E+02  0.13540175686E+03  0.22497844542E+03  0.17300000000E+03 0. -1.
         -6    1    1    2    0  503  0.42868258267E+02  0.22693117396E+02 -0.61067216849E+00  0.17967202917E+03  0.17300000000E+03 0. -1.
</event>
<event>
 4    1  0.5959403E+000  0.1000000E+03  0.7546771E-02  0.1280296E+00
         21   -1    0    0  503  502  0.00000000000E+00  0.00000000000E+00  0.21377850817E+03  0.21377850817E+03  0.00000000000E+00 0.  1.
         21   -1    0    0  501  503 -0.00000000000E+00 -0.00000000000E+00 -0.42984271557E+03  0.42984271557E+03  0.00000000000E+00 0.  1.
          6    1    1    2  501    0  0.91497729484E+02  0.10809049334E+03 -0.32535501802E+03  0.39476610417E+03  0.17300000000E+03 0.  1.
         -6    1    1    2    0  502 -0.91497729484E+02 -0.10809049334E+03  0.10929081062E+03  0.24885511957E+03  0.17300000000E+03 0.  1.
</event>
<event>
 4    1  0.5959403E+000  0.1000000E+03  0.7546771E-02  0.1280296E+00
         21   -1    0    0  503  502  0.00000000000E+00  0.00000000000E+00  0.77603261070E+03  0.77603261070E+03  0.00000000000E+00 0.  1.
         21   -1    0    0  501  503 -0.00000000000E+00 -0.00000000000E+00 -0.96280542098E+02  0.96280542098E+02  0.00000000000E+00 0. -1.
          6    1    1    2  501    0 -0.39929428402E+00 -0.12746423199E+03  0.70310509165E+02  0.22609700920E+03  0.17300000000E+03 0. -1.
         -6    1    1    2    0  502  0.39929428402E+00  0.12746423199E+03  0.60944155943E+03  0.64621614359E+03  0.17300000000E+03 0.  1.
</event>
<event>
 4    1  0.5959403E+000  0.1000000E+03  0.7546771E-02  0.1280296E+00
         21   -1    0    0  503  502  0.00000000000E+00  0.00000000000E+00  0.73609627329E+02  0.73609627329E+02  0.00000000000E+00 0.  1.
         21   -1    0    0  501  503 -0.00000000000E+00 -0.00000000000E+00 -0.12461876691E+04  0.12461876691E+04  0.00000000000E+00 0. -1.
          6    1    1    2  501    0  0.13255574297E+03  0.10075710892E+03 -0.98850943621E+03  0.10172526360E+04  0.17300000000E+03 0. -1.
         -6    1    1    2    0  502 -0.13255574297E+03 -0.10075710892E+03 -0.18406860555E+03  0.30254466041E+03  0.17300000000E+03 0.  1.
</event>
<event>
 4    1  0.5959403E+000  0.1000000E+03  0.7546771E-02  0.1280296E+00
         21   -1    0    0  501  502  0.00000000000E+00  0.00000000000E+00  0.35870303659E+02  0.35870303659E+02  0.00000000000E+00 0. -1.
         21   -1    0    0  502  503 -0.00000000000E+00 -0.00000000000E+00 -0.11366508361E+04  0.11366508361E+04  0.00000000000E+00 0. -1.
          6    1    1    2  501    0  0.75406129084E+02  0.12642042874E+02 -0.34514702572E+03  0.39357511979E+03  0.17300000000E+03 0. -1.
         -6    1    1    2    0  503 -0.75406129084E+02 -0.12642042874E+02 -0.75563350668E+03  0.77894601993E+03  0.17300000000E+03 0. -1.
</event>
<event>
 4    1  0.5959403E+000  0.1000000E+03  0.7546771E-02  0.1280296E+00
         21   -1    0    0  503  502  0.00000000000E+00  0.00000000000E+00  0.42264462232E+02  0.42264462232E+02  0.00000000000E+00 0.  1.
         21   -1    0    0  501  503 -0.00000000000E+00 -0.00000000000E+00 -0.12307753285E+04  0.12307753285E+04  0.00000000000E+00 0.  1.
          6    1    1    2  501    0 -0.78384319735E+02  0.94932117581E+02 -0.82663117229E+03  0.85346605294E+03  0.17300000000E+03 0.  1.
         -6    1    1    2    0  502  0.78384319735E+02 -0.94932117581E+02 -0.36187969400E+03  0.41957373781E+03  0.17300000000E+03 0.  1.
</event>
<event>
 4    1  0.5959403E+000  0.1000000E+03  0.7546771E-02  0.1280296E+00
         21   -1    0    0  503  502  0.00000000000E+00  0.00000000000E+00  0.23432985422E+03  0.23432985422E+03  0.00000000000E+00 0.  1.
         21   -1    0    0  501  503 -0.00000000000E+00 -0.00000000000E+00 -0.32068133498E+03  0.32068133498E+03  0.00000000000E+00 0.  1.
          6    1    1    2  501    0  0.94583938825E+02 -0.14140210514E+03 -0.17232404493E+03  0.29759914866E+03  0.17300000000E+03 0.  1.
         -6    1    1    2    0  502 -0.94583938825E+02  0.14140210514E+03  0.85972564166E+02  0.25741204053E+03  0.17300000000E+03 0.  1.
</event>
<event>
 4    1  0.5959403E+000  0.1000000E+03  0.7546771E-02  0.1280296E+00
         21   -1    0    0  503  502  0.00000000000E+00  0.00000000000E+00  0.26804590315E+04  0.26804590315E+04  0.00000000000E+00 0.  1.
         21   -1    0    0  501  503 -0.00000000000E+00 -0.00000000000E+00 -0.15105252835E+02  0.15105252835E+02  0.00000000000E+00 0.  1.
          6    1    1    2  501    0  0.17902695758E+02  0.93947587739E+02  0.10808646486E+04  0.10987920843E+04  0.17300000000E+03 0.  1.
         -6    1    1    2    0  502 -0.17902695758E+02 -0.93947587739E+02  0.15844891300E+04  0.15967722001E+04  0.17300000000E+03 0.  1.
</event>
<event>
 4    1  0.5959403E+000  0.1000000E+03  0.7546771E-02  0.1280296E+00
         21   -1    0    0  503  502  0.00000000000E+00  0.00000000000E+00  0.45215827068E+03  0.45215827068E+03  0.00000000000E+00 0.  1.
         21   -1    0    0  501  503 -0.00000000000E+00 -0.00000000000E+00 -0.11017388651E+03  0.11017388651E+03  0.00000000000E+00 0.  1.
          6    1    1    2  501    0  0.46829035212E+02  0.12454634176E+03  0.22984050336E+03  0.31695489706E+03  0.17300000000E+03 0.  1.
         -6    1    1    2    0  502 -0.46829035212E+02 -0.12454634176E+03  0.11214388080E+03  0.24537726012E+03  0.17300000000E+03 0.  1.
</event>
<event>
 4    1  0.5959403E+000  0.1000000E+03  0.7546771E-02  0.1280296E+00
         21   -1    0    0  503  502  0.00000000000E+00  0.00000000000E+00  0.61542797113E+02  0.61542797113E+02  0.00000000000E+00 0.  1.
         21   -1    0    0  501  503 -0.00000000000E+00 -0.00000000000E+00 -0.68969953755E+03  0.68969953755E+03  0.00000000000E+00 0. -1.
          6    1    1    2  501    0  0.71227866832E+02 -0.84453261882E+02 -0.34624491920E+03  0.40251746115E+03  0.17300000000E+03 0.  1.
         -6    1    1    2    0  502 -0.71227866832E+02  0.84453261882E+02 -0.28191182124E+03  0.34872487352E+03  0.17300000000E+03 0. -1.
</event>
<event>
 4    1  0.5959403E+000  0.1000000E+03  0.7546771E-02  0.1280296E+00
         21   -1    0    0  501  502  0.00000000000E+00  0.00000000000E+00  0.46414988637E+03  0.46414988637E+03  0.00000000000E+00 0. -1.
         21   -1    0    0  502  503 -0.00000000000E+00 -0.00000000000E+00 -0.73178323705E+03  0.73178323705E+03  0.00000000000E+00 0. -1.
          6    1    1    2  501    0  0.31077805163E+03  0.44801558757E+03 -0.19438758908E+02  0.57237036037E+03  0.17300000000E+03 0. -1.
         -6    1    1    2    0  503 -0.31077805163E+03 -0.44801558757E+03 -0.24819459177E+03  0.62356276305E+03  0.17300000000E+03 0. -1.
</event>
<event>
 4    1  0.5959403E+000  0.1000000E+03  0.7546771E-02  0.1280296E+00
         21   -1    0    0  501  502  0.00000000000E+00  0.00000000000E+00  0.37394308915E+03  0.37394308915E+03  0.00000000000E+00 0. -1.
         21   -1    0    0  502  503 -0.00000000000E+00 -0.00000000000E+00 -0.32069908845E+03  0.32069908845E+03  0.00000000000E+00 0. -1.
          6    1    1    2  501    0  0.15324270301E+03 -0.13190268161E+03  0.24888943699E+03  0.36435778472E+03  0.17300000000E+03 0. -1.
         -6    1    1    2    0  503 -0.15324270301E+03  0.13190268161E+03 -0.19564543629E+03  0.33028439288E+03  0.17300000000E+03 0. -1.
</event>
<event>
 4    1  0.5959403E+000  0.1000000E+03  0.7546771E-02  0.1280296E+00
         21   -1    0    0  501  502  0.00000000000E+00  0.00000000000E+00  0.17244276262E+03  0.17244276262E+03  0.00000000000E+00 0. -1.
         21   -1    0    0  502  503 -0.00000000000E+00 -0.00000000000E+00 -0.12548564747E+04  0.12548564747E+04  0.00000000000E+00 0.  1.
          6    1    1    2  501    0 -0.17626728440E+02 -0.45533983866E+02  0.11700593352E+03  0.21448411065E+03  0.17300000000E+03 0. -1.
         -6    1    1    2    0  503  0.17626728440E+02  0.45533983866E+02 -0.11994196456E+04  0.12128151266E+04  0.17300000000E+03 0.  1.
</event>
<event>
 4    1  0.5959403E+000  0.1000000E+03  0.7546771E-02  0.1280296E+00
         21   -1    0    0  501  502  0.00000000000E+00  0.00000000000E+00  0.38127777734E+03  0.38127777734E+03  0.00000000000E+00 0. -1.
         21   -1    0    0  502  503 -0.00000000000E+00 -0.00000000000E+00 -0.15228280804E+03  0.15228280804E+03  0.00000000000E+00 0.  1.
          6    1    1    2  501    0 -0.76508401593E+02  0.13853606423E+03  0.17601448427E+03  0.29318232430E+03  0.17300000000E+03 0. -1.
         -6    1    1    2    0  503  0.76508401593E+02 -0.13853606423E+03  0.52980485025E+02  0.24037826108E+03  0.17300000000E+03 0.  1.
</event>
<event>
 4    1  0.5959403E+000  0.1000000E+03  0.7546771E-02  0.1280296E+00
         21   -1    0    0  503  502  0.00000000000E+00  0.00000000000E+00  0.37648944980E+02  0.37648944980E+02  0.00000000000E+00 0.  1.
         21   -1    0    0  501  503 -0.00000000000E+00 -0.00000000000E+00 -0.98930331006E+03  0.98930331006E+03  0.00000000000E+00 0.  1.
          6    1    1    2  501    0 -0.27785653114E+02 -0.14568606600E+02 -0.68755687939E+03  0.70968144207E+03  0.17300000000E+03 0.  1.
         -6    1    1    2    0  502  0.27785653114E+02  0.14568606600E+02 -0.26409748569E+03  0.31727081298E+03  0.17300000000E+03 0.  1.
</event>
<event>
 4    1  0.5959403E+000  0.1000000E+03  0.7546771E-02  0.1280296E+00
         21   -1    0    0  503  502  0.00000000000E+00  0.00000000000E+00  0.58508478209E+03  0.58508478209E+03  0.00000000000E+00 0.  1.
         21   -1    0    0  501  503 -0.00000000000E+00 -0.00000000000E+00 -0.24002728586E+03  0.24002728586E+03  0.00000000000E+00 0.  1.
          6    1    1    2  501    0 -0.31732966890E+02  0.21064970791E+01 -0.19175697542E+03  0.26021367400E+03  0.17300000000E+03 0.  1.
         -6    1    1    2    0  502  0.31732966890E+02 -0.21064970791E+01  0.53681447165E+03  0.56489839395E+03  0.17300000000E+03 0.  1.
</event>
<event>
 4    1  0.5959403E+000  0.1000000E+03  0.7546771E-02  0.1280296E+00
         21   -1    0    0  503  502  0.00000000000E+00  0.00000000000E+00  0.18408988521E+03  0.18408988521E+03  0.00000000000E+00 0.  1.
         21   -1    0    0  501  503 -0.00000000000E+00 -0.00000000000E+00 -0.24807583268E+03  0.24807583268E+03  0.00000000000E+00 0.  1.
          6    1    1    2  501    0 -0.35180779696E+02 -0.27144180643E+02 -0.15062376068E+03  0.23364719361E+03  0.17300000000E+03 0.  1.
         -6    1    1    2    0  502  0.35180779696E+02  0.27144180643E+02  0.86637813206E+02  0.19851852427E+03  0.17300000000E+03 0.  1.
</event>
<event>
 4    1  0.5959403E+000  0.1000000E+03  0.7546771E-02  0.1280296E+00
         21   -1    0    0  503  502  0.00000000000E+00  0.00000000000E+00  0.39918628305E+02  0.39918628305E+02  0.00000000000E+00 0. -1.
         21   -1    0    0  501  503 -0.00000000000E+00 -0.00000000000E+00 -0.11728144623E+04  0.11728144623E+04  0.00000000000E+00 0.  1.
          6    1    1    2  501    0  0.92593077091E+02 -0.81338276892E+02 -0.68195209196E+03  0.71426679115E+03  0.17300000000E+03 0.  1.
         -6    1    1    2    0  502 -0.92593077091E+02  0.81338276892E+02 -0.45094374206E+03  0.49846629948E+03  0.17300000000E+03 0. -1.
</event>
<event>
 4    1  0.5959403E+000  0.1000000E+03  0.7546771E-02  0.1280296E+00
         21   -1    0    0  501  502  0.00000000000E+00  0.00000000000E+00  0.10985084596E+03  0.10985084596E+03  0.00000000000E+00 0. -1.
         21   -1    0    0  502  503 -0.00000000000E+00 -0.00000000000E+00 -0.42375528691E+03  0.42375528691E+03  0.00000000000E+00 0. -1.
          6    1    1    2  501    0 -0.65582059926E+02  0.15345215811E+02 -0.29289119723E+03  0.34677187840E+03  0.17300000000E+03 0. -1.
         -6    1    1    2    0  503  0.65582059926E+02 -0.15345215811E+02 -0.21013243710E+02  0.18683425447E+03  0.17300000000E+03 0. -1.
</event>
<event>
 4    1  0.5959403E+000  0.1000000E+03  0.7546771E-02  0.1280296E+00
         21   -1    0    0  501  502  0.00000000000E+00  0.00000000000E+00  0.12405682737E+03  0.12405682737E+03  0.00000000000E+00 0. -1.
         21   -1    0    0  502  503 -0.00000000000E+00 -0.00000000000E+00 -0.25742415205E+03  0.25742415205E+03  0.00000000000E+00 0. -1.
          6    1    1    2  501    0  0.42582614892E+02 -0.38798711444E+01 -0.52447759188E+02  0.18576355922E+03  0.17300000000E+03 0. -1.
         -6    1    1    2    0  503 -0.42582614892E+02  0.38798711444E+01 -0.80919565485E+02  0.19571742020E+03  0.17300000000E+03 0. -1.
</event>
<event>
 4    1  0.5959403E+000  0.1000000E+03  0.7546771E-02  0.1280296E+00
         21   -1    0    0  501  502  0.00000000000E+00  0.00000000000E+00  0.25993005660E+03  0.25993005660E+03  0.00000000000E+00 0. -1.
         21   -1    0    0  502  503 -0.00000000000E+00 -0.00000000000E+00 -0.17422814944E+03  0.17422814944E+03  0.00000000000E+00 0. -1.
          6    1    1    2  501    0 -0.11513735129E+03  0.44361452487E+02  0.31061088680E+02  0.21475180874E+03  0.17300000000E+03 0. -1.
         -6    1    1    2    0  503  0.11513735129E+03 -0.44361452487E+02  0.54640818475E+02  0.21940639729E+03  0.17300000000E+03 0. -1.
</event>
<event>
 4    1  0.5959403E+000  0.1000000E+03  0.7546771E-02  0.1280296E+00
         21   -1    0    0  501  502  0.00000000000E+00  0.00000000000E+00  0.25505191000E+03  0.25505191000E+03  0.00000000000E+00 0.  1.
         21   -1    0    0  502  503 -0.00000000000E+00 -0.00000000000E+00 -0.39200957193E+03  0.39200957193E+03  0.00000000000E+00 0.  1.
          6    1    1    2  501    0 -0.21552401590E+03  0.14474274906E+03 -0.15780233104E+02  0.31237650454E+03  0.17300000000E+03 0.  1.
         -6    1    1    2    0  503  0.21552401590E+03 -0.14474274906E+03 -0.12117742883E+03  0.33468497739E+03  0.17300000000E+03 0.  1.
</event>
<event>
 4    1  0.5959403E+000  0.1000000E+03  0.7546771E-02  0.1280296E+00
         21   -1    0    0  501  502  0.00000000000E+00  0.00000000000E+00  0.71831006422E+03  0.71831006422E+03  0.00000000000E+00 0.  1.
         21   -1    0    0  502  503 -0.00000000000E+00 -0.00000000000E+00 -0.88069708759E+02  0.88069708759E+02  0.00000000000E+00 0.  1.
          6    1    1    2  501    0 -0.38110065929E+02 -0.53611046870E+02  0.58813301776E+03  0.61656789411E+03  0.17300000000E+03 0.  1.
         -6    1    1    2    0  503  0.38110065929E+02  0.53611046870E+02  0.42107337706E+02  0.18981187887E+03  0.17300000000E+03 0.  1.
</event>
<event>
 4    1  0.5959403E+000  0.1000000E+03  0.7546771E-02  0.1280296E+00
         21   -1    0    0  503  502  0.00000000000E+00  0.00000000000E+00  0.17179745108E+04  0.17179745108E+04  0.00000000000E+00 0. -1.
         21   -1    0    0  501  503 -0.00000000000E+00 -0.00000000000E+00 -0.90479020501E+02  0.90479020501E+02  0.00000000000E+00 0.  1.
          6    1    1    2  501    0 -0.15889837480E+03 -0.31384487037E+03  0.71741187638E+03  0.81753048661E+03  0.17300000000E+03 0.  1.
         -6    1    1    2    0  502  0.15889837480E+03  0.31384487037E+03  0.91008361390E+03  0.99092304467E+03  0.17300000000E+03 0. -1.
</event>
<event>
 4    1  0.5959403E+000  0.1000000E+03  0.7546771E-02  0.1280296E+00
         21   -1    0    0  503  502  0.00000000000E+00  0.00000000000E+00  0.86737601186E+03  0.86737601186E+03  0.00000000000E+00 0. -1.
         21   -1    0    0  501  503 -0.00000000000E+00 -0.00000000000E+00 -0.40124146791E+03  0.40124146791E+03  0.00000000000E+00 0.  1.
          6    1    1    2  501    0 -0.10988175571E+03  0.98970756649E+02 -0.35213753193E+03  0.41928397573E+03  0.17300000000E+03 0.  1.
         -6    1    1    2    0  502  0.10988175571E+03 -0.98970756649E+02  0.81827207589E+03  0.84933350404E+03  0.17300000000E+03 0. -1.
</event>
<event>
 4    1  0.5959403E+000  0.1000000E+03  0.7546771E-02  0.1280296E+00
         21   -1    0    0  501  502  0.00000000000E+00  0.00000000000E+00  0.11177182515E+04  0.11177182515E+04  0.00000000000E+00 0.  1.
         21   -1    0    0  502  503 -0.00000000000E+00 -0.00000000000E+00 -0.16142112194E+03  0.16142112194E+03  0.00000000000E+00 0.  1.
          6    1    1    2  501    0  0.27252220104E+02  0.18893710103E+03  0.98665632436E+03  0.10197350705E+04  0.17300000000E+03 0.  1.
         -6    1    1    2    0  503 -0.27252220104E+02 -0.18893710103E+03 -0.30359194829E+02  0.25940430289E+03  0.17300000000E+03 0.  1.
</event>
<event>
 4    1  0.5959403E+000  0.1000000E+03  0.7546771E-02  0.1280296E+00
         21   -1    0    0  501  502  0.00000000000E+00  0.00000000000E+00  0.28168315672E+03  0.28168315672E+03  0.00000000000E+00 0.  1.
         21   -1    0    0  502  503 -0.00000000000E+00 -0.00000000000E+00 -0.15065490596E+03  0.15065490596E+03  0.00000000000E+00 0.  1.
          6    1    1    2  501    0  0.33481971887E+02  0.10626557786E+03  0.55311417966E+02  0.21307690733E+03  0.17300000000E+03 0.  1.
         -6    1    1    2    0  503 -0.33481971887E+02 -0.10626557786E+03  0.75716832797E+02  0.21926115535E+03  0.17300000000E+03 0.  1.
</event>
<event>
 4    1  0.5959403E+000  0.1000000E+03  0.7546771E-02  0.1280296E+00
         21   -1    0    0  503  502  0.00000000000E+00  0.00000000000E+00  0.34905030229E+03  0.34905030229E+03  0.00000000000E+00 0.  1.
         21   -1    0    0  501  503 -0.00000000000E+00 -0.00000000000E+00 -0.39345385682E+03  0.39345385682E+03  0.00000000000E+00 0.  1.
          6    1    1    2  501    0 -0.46725884157E+01  0.12773414282E+02 -0.35023535669E+03  0.39086928540E+03  0.17300000000E+03 0.  1.
         -6    1    1    2    0  502  0.46725884157E+01 -0.12773414282E+02  0.30583180216E+03  0.35163487371E+03  0.17300000000E+03 0.  1.
</event>
<event>
 4    1  0.5959403E+000  0.1000000E+03  0.7546771E-02  0.1280296E+00
         21   -1    0    0  503  502  0.00000000000E+00  0.00000000000E+00  0.26731283101E+03  0.26731283101E+03  0.00000000000E+00 0.  1.
         21   -1    0    0  501  503 -0.00000000000E+00 -0.00000000000E+00 -0.20544978458E+03  0.20544978458E+03  0.00000000000E+00 0.  1.
          6    1    1    2  501    0  0.76056352416E+01 -0.10777835767E+03 -0.85465769082E+02  0.22115021536E+03  0.17300000000E+03 0.  1.
         -6    1    1    2    0  502 -0.76056352416E+01  0.10777835767E+03  0.14732881551E+03  0.25161240023E+03  0.17300000000E+03 0.  1.
</event>
<event>
 4    1  0.5959403E+000  0.1000000E+03  0.7546771E-02  0.1280296E+00
         21   -1    0    0  503  502  0.00000000000E+00  0.00000000000E+00  0.69904565398E+03  0.69904565398E+03  0.00000000000E+00 0.  1.
         21   -1    0    0  501  503 -0.00000000000E+00 -0.00000000000E+00 -0.29881484045E+03  0.29881484045E+03  0.00000000000E+00 0.  1.
          6    1    1    2  501    0  0.33896940037E+02  0.24497766476E+03 -0.17455208465E+03  0.34865525815E+03  0.17300000000E+03 0.  1.
         -6    1    1    2    0  502 -0.33896940037E+02 -0.24497766476E+03  0.57478289819E+03  0.64920523629E+03  0.17300000000E+03 0.  1.
</event>
<event>
 4    1  0.5959403E+000  0.1000000E+03  0.7546771E-02  0.1280296E+00
         21   -1    0    0  501  502  0.00000000000E+00  0.00000000000E+00  0.43336080027E+03  0.43336080027E+03  0.00000000000E+00 0.  1.
         21   -1    0    0  502  503 -0.00000000000E+00 -0.00000000000E+00 -0.20506149736E+03  0.20506149736E+03  0.00000000000E+00 0. -1.
          6    1    1    2  501    0 -0.20126653083E+03 -0.73483006125E+02  0.23637486888E+03  0.36291878879E+03  0.17300000000E+03 0. -1.
         -6    1    1    2    0  503  0.20126653083E+03  0.73483006125E+02 -0.80755659638E+01  0.27550350885E+03  0.17300000000E+03 0.  1.
</event>
<event>
 4    1  0.5959403E+000  0.1000000E+03  0.7546771E-02  0.1280296E+00
         21   -1    0    0  501  502  0.00000000000E+00  0.00000000000E+00  0.41212304853E+02  0.41212304853E+02  0.00000000000E+00 0.  1.
         21   -1    0    0  502  503 -0.00000000000E+00 -0.00000000000E+00 -0.21087775908E+04  0.21087775908E+04  0.00000000000E+00 0.  1.
          6    1    1    2  501    0  0.15454929130E+03 -0.40915809171E+02 -0.38742372074E+03  0.45341562200E+03  0.17300000000E+03 0.  1.
         -6    1    1    2    0  503 -0.15454929130E+03  0.40915809171E+02 -0.16801415653E+04  0.16965742737E+04  0.17300000000E+03 0.  1.
</event>
<event>
 4    1  0.5959403E+000  0.1000000E+03  0.7546771E-02  0.1280296E+00
         21   -1    0    0  501  502  0.00000000000E+00  0.00000000000E+00  0.17056201870E+03  0.17056201870E+03  0.00000000000E+00 0.  1.
         21   -1    0    0  502  503 -0.00000000000E+00 -0.00000000000E+00 -0.67181138448E+03  0.67181138448E+03  0.00000000000E+00 0.  1.
          6    1    1    2  501    0 -0.10863452765E+03 -0.14804545922E+03  0.30195936225E+02  0.25408603495E+03  0.17300000000E+03 0.  1.
         -6    1    1    2    0  503  0.10863452765E+03  0.14804545922E+03 -0.53144530201E+03  0.58828736823E+03  0.17300000000E+03 0.  1.
</event>
<event>
 4    1  0.5959403E+000  0.1000000E+03  0.7546771E-02  0.1280296E+00
         21   -1    0    0  501  502  0.00000000000E+00  0.00000000000E+00  0.20886547155E+03  0.20886547155E+03  0.00000000000E+00 0.  1.
         21   -1    0    0  502  503 -0.00000000000E+00 -0.00000000000E+00 -0.92332655729E+03  0.92332655729E+03  0.00000000000E+00 0.  1.
          6    1    1    2  501    0  0.14477321135E+02 -0.72254004575E+02  0.15434301118E+03  0.24327145148E+03  0.17300000000E+03 0.  1.
         -6    1    1    2    0  503 -0.14477321135E+02  0.72254004575E+02 -0.86880409693E+03  0.88892057736E+03  0.17300000000E+03 0.  1.
</event>
<event>
 4    1  0.5959403E+000  0.1000000E+03  0.7546771E-02  0.1280296E+00
         21   -1    0    0  503  502  0.00000000000E+00  0.00000000000E+00  0.28423958289E+03  0.28423958289E+03  0.00000000000E+00 0.  1.
         21   -1    0    0  501  503 -0.00000000000E+00 -0.00000000000E+00 -0.21541097182E+03  0.21541097182E+03  0.00000000000E+00 0. -1.
          6    1    1    2  501    0  0.12972894012E+03  0.18654394597E+02 -0.85564435925E+02  0.23329778618E+03  0.17300000000E+03 0. -1.
         -6    1    1    2    0  502 -0.12972894012E+03 -0.18654394597E+02  0.15439304700E+03  0.26635276853E+03  0.17300000000E+03 0.  1.
</event>
<event>
 4    1  0.5959403E+000  0.1000000E+03  0.7546771E-02  0.1280296E+00
         21   -1    0    0  503  502  0.00000000000E+00  0.00000000000E+00  0.10204371756E+03  0.10204371756E+03  0.00000000000E+00 0. -1.
         21   -1    0    0  501  503 -0.00000000000E+00 -0.00000000000E+00 -0.39213281853E+03  0.39213281853E+03  0.00000000000E+00 0.  1.
          6    1    1    2  501    0 -0.65659901560E+01 -0.90556810987E+02 -0.19805874869E+03  0.27820840422E+03  0.17300000000E+03 0.  1.
         -6    1    1    2    0  502  0.65659901560E+01  0.90556810987E+02 -0.92030352278E+02  0.21596813187E+03  0.17300000000E+03 0. -1.
</event>
<event>
 4    1  0.5959403E+000  0.1000000E+03  0.7546771E-02  0.1280296E+00
         21   -1    0    0  503  502  0.00000000000E+00  0.00000000000E+00  0.57682554366E+03  0.57682554366E+03  0.00000000000E+00 0. -1.
         21   -1    0    0  501  503 -0.00000000000E+00 -0.00000000000E+00 -0.91553776634E+02  0.91553776634E+02  0.00000000000E+00 0.  1.
          6    1    1    2  501    0  0.95063947289E+02 -0.33456631816E+02  0.78591072451E+02  0.21508616170E+03  0.17300000000E+03 0.  1.
         -6    1    1    2    0  502 -0.95063947289E+02  0.33456631816E+02  0.40668069457E+03  0.45329315859E+03  0.17300000000E+03 0. -1.
</event>
<event>
 4    1  0.5959403E+000  0.1000000E+03  0.7546771E-02  0.1280296E+00
         21   -1    0    0  503  502  0.00000000000E+00  0.00000000000E+00  0.20652556012E+04  0.20652556012E+04  0.00000000000E+00 0. -1.
         21   -1    0    0  501  503 -0.00000000000E+00 -0.00000000000E+00 -0.34542995436E+02  0.34542995436E+02  0.00000000000E+00 0.  1.
          6    1    1    2  501    0  0.10298361154E+03  0.13194969409E+03  0.56042234607E+03  0.60993323569E+03  0.17300000000E+03 0.  1.
         -6    1    1    2    0  502 -0.10298361154E+03 -0.13194969409E+03  0.14702902597E+04  0.14898653610E+04  0.17300000000E+03 0. -1.
</event>
<event>
 4    1  0.5959403E+000  0.1000000E+03  0.7546771E-02  0.1280296E+00
         21   -1    0    0  503  502  0.00000000000E+00  0.00000000000E+00  0.60190869739E+03  0.60190869739E+03  0.00000000000E+00 0. -1.
         21   -1    0    0  501  503 -0.00000000000E+00 -0.00000000000E+00 -0.15729969522E+03  0.15729969522E+03  0.00000000000E+00 0.  1.
          6    1    1    2  501    0  0.52376370909E+02 -0.19344879566E+02 -0.83969641245E+02  0.20024337504E+03  0.17300000000E+03 0.  1.
         -6    1    1    2    0  502 -0.52376370909E+02  0.19344879566E+02  0.52857864342E+03  0.55896501758E+03  0.17300000000E+03 0. -1.
</event>
<event>
 4    1  0.5959403E+000  0.1000000E+03  0.7546771E-02  0.1280296E+00
         21   -1    0    0  503  502  0.00000000000E+00  0.00000000000E+00  0.42689616283E+03  0.42689616283E+03  0.00000000000E+00 0. -1.
         21   -1    0    0  501  503 -0.00000000000E+00 -0.00000000000E+00 -0.10510976015E+03  0.10510976015E+03  0.00000000000E+00 0.  1.
          6    1    1    2  501    0 -0.71034679329E+02  0.75008519296E+02  0.78838205178E+02  0.21637159294E+03  0.17300000000E+03 0.  1.
         -6    1    1    2    0  502  0.71034679329E+02 -0.75008519296E+02  0.24294819750E+03  0.31563433004E+03  0.17300000000E+03 0. -1.
</event>
<event>
 4    1  0.5959403E+000  0.1000000E+03  0.7546771E-02  0.1280296E+00
         21   -1    0    0  503  502  0.00000000000E+00  0.00000000000E+00  0.13174197533E+04  0.13174197533E+04  0.00000000000E+00 0. -1.
         21   -1    0    0  501  503 -0.00000000000E+00 -0.00000000000E+00 -0.62551787352E+02  0.62551787352E+02  0.00000000000E+00 0.  1.
          6    1    1    2  501    0  0.16592363494E+03 -0.15749927407E+03  0.65600384937E+03  0.71596558880E+03  0.17300000000E+03 0.  1.
         -6    1    1    2    0  502 -0.16592363494E+03  0.15749927407E+03  0.59886411656E+03  0.66400595183E+03  0.17300000000E+03 0. -1.
</event>
<event>
 4    1  0.5959403E+000  0.1000000E+03  0.7546771E-02  0.1280296E+00
         21   -1    0    0  503  502  0.00000000000E+00  0.00000000000E+00  0.32464569171E+03  0.32464569171E+03  0.00000000000E+00 0. -1.
         21   -1    0    0  501  503 -0.00000000000E+00 -0.00000000000E+00 -0.28280216887E+03  0.28280216887E+03  0.00000000000E+00 0.  1.
          6    1    1    2  501    0 -0.11732360324E+03  0.34991104840E+02 -0.19614013386E+03  0.28877180853E+03  0.17300000000E+03 0.  1.
         -6    1    1    2    0  502  0.11732360324E+03 -0.34991104840E+02  0.23798365670E+03  0.31867605205E+03  0.17300000000E+03 0. -1.
</event>
<event>
 4    1  0.5959403E+000  0.1000000E+03  0.7546771E-02  0.1280296E+00
         21   -1    0    0  503  502  0.00000000000E+00  0.00000000000E+00  0.64587705082E+03  0.64587705082E+03  0.00000000000E+00 0. -1.
         21   -1    0    0  501  503 -0.00000000000E+00 -0.00000000000E+00 -0.98812498854E+02  0.98812498854E+02  0.00000000000E+00 0.  1.
          6    1    1    2  501    0 -0.24035967202E+02  0.71206852106E+02  0.25833259448E+02  0.19037988549E+03  0.17300000000E+03 0.  1.
         -6    1    1    2    0  502  0.24035967202E+02 -0.71206852106E+02  0.52123129251E+03  0.55430966418E+03  0.17300000000E+03 0. -1.
</event>
<event>
 4    1  0.5959403E+000  0.1000000E+03  0.7546771E-02  0.1280296E+00
         21   -1    0    0  503  502  0.00000000000E+00  0.00000000000E+00  0.16618535064E+04  0.16618535064E+04  0.00000000000E+00 0.  1.
         21   -1    0    0  501  503 -0.00000000000E+00 -0.00000000000E+00 -0.45920734596E+02  0.45920734596E+02  0.00000000000E+00 0.  1.
          6    1    1    2  501    0 -0.18730800758E+03  0.38319575640E+01  0.47959807303E+03  0.54317794990E+03  0.17300000000E+03 0.  1.
         -6    1    1    2    0  502  0.18730800758E+03 -0.38319575640E+01  0.11363346988E+04  0.11645962911E+04  0.17300000000E+03 0.  1.
</event>
<event>
 4    1  0.5959403E+000  0.1000000E+03  0.7546771E-02  0.1280296E+00
         21   -1    0    0  503  502  0.00000000000E+00  0.00000000000E+00  0.14658315976E+04  0.14658315976E+04  0.00000000000E+00 0.  1.
         21   -1    0    0  501  503 -0.00000000000E+00 -0.00000000000E+00 -0.44253248736E+02  0.44253248736E+02  0.00000000000E+00 0.  1.
          6    1    1    2  501    0  0.66796515764E+02  0.38356545656E+01  0.19337508813E+03  0.26795412195E+03  0.17300000000E+03 0.  1.
         -6    1    1    2    0  502 -0.66796515764E+02 -0.38356545656E+01  0.12282032607E+04  0.12421307243E+04  0.17300000000E+03 0.  1.
</event>
<event>
 4    1  0.5959403E+000  0.1000000E+03  0.7546771E-02  0.1280296E+00
         21   -1    0    0  503  502  0.00000000000E+00  0.00000000000E+00  0.23960826002E+03  0.23960826002E+03  0.00000000000E+00 0.  1.
         21   -1    0    0  501  503 -0.00000000000E+00 -0.00000000000E+00 -0.34278483944E+03  0.34278483944E+03  0.00000000000E+00 0.  1.
          6    1    1    2  501    0 -0.36936116477E+01  0.19107463553E+02 -0.28290116305E+03  0.33217586605E+03  0.17300000000E+03 0.  1.
         -6    1    1    2    0  502  0.36936116477E+01 -0.19107463553E+02  0.17972458363E+03  0.25021723340E+03  0.17300000000E+03 0.  1.
</event>
<event>
 4    1  0.5959403E+000  0.1000000E+03  0.7546771E-02  0.1280296E+00
         21   -1    0    0  503  502  0.00000000000E+00  0.00000000000E+00  0.36465115302E+03  0.36465115302E+03  0.00000000000E+00 0.  1.
         21   -1    0    0  501  503 -0.00000000000E+00 -0.00000000000E+00 -0.17987979513E+03  0.17987979513E+03  0.00000000000E+00 0.  1.
          6    1    1    2  501    0 -0.94479901996E+01  0.13490968635E+02 -0.10761059756E+03  0.20440232744E+03  0.17300000000E+03 0.  1.
         -6    1    1    2    0  502  0.94479901996E+01 -0.13490968635E+02  0.29238195545E+03  0.34012862071E+03  0.17300000000E+03 0.  1.
</event>
<event>
 4    1  0.5959403E+000  0.1000000E+03  0.7546771E-02  0.1280296E+00
         21   -1    0    0  503  502  0.00000000000E+00  0.00000000000E+00  0.84123973622E+02  0.84123973622E+02  0.00000000000E+00 0.  1.
         21   -1    0    0  501  503 -0.00000000000E+00 -0.00000000000E+00 -0.67112126472E+03  0.67112126472E+03  0.00000000000E+00 0.  1.
          6    1    1    2  501    0 -0.81698400864E+02  0.14064164332E+03 -0.30714111988E+03  0.38822592399E+03  0.17300000000E+03 0.  1.
         -6    1    1    2    0  502  0.81698400864E+02 -0.14064164332E+03 -0.27985617122E+03  0.36701931435E+03  0.17300000000E+03 0.  1.
</event>
<event>
 4    1  0.5959403E+000  0.1000000E+03  0.7546771E-02  0.1280296E+00
         21   -1    0    0  501  502  0.00000000000E+00  0.00000000000E+00  0.99434822488E+02  0.99434822488E+02  0.00000000000E+00 0.  1.
         21   -1    0    0  502  503 -0.00000000000E+00 -0.00000000000E+00 -0.54327913269E+03  0.54327913269E+03  0.00000000000E+00 0.  1.
          6    1    1    2  501    0 -0.19356516392E+02 -0.83351476043E+02 -0.42873984851E+02  0.19771019666E+03  0.17300000000E+03 0.  1.
         -6    1    1    2    0  503  0.19356516392E+02  0.83351476043E+02 -0.40097032536E+03  0.44500375852E+03  0.17300000000E+03 0.  1.
</event>
<event>
 4    1  0.5959403E+000  0.1000000E+03  0.7546771E-02  0.1280296E+00
         21   -1    0    0  501  502  0.00000000000E+00  0.00000000000E+00  0.43869838467E+03  0.43869838467E+03  0.00000000000E+00 0.  1.
         21   -1    0    0  502  503 -0.00000000000E+00 -0.00000000000E+00 -0.19825174453E+03  0.19825174453E+03  0.00000000000E+00 0.  1.
          6    1    1    2  501    0  0.71955190452E+02 -0.10231187086E+03  0.33994654140E+03  0.40141987913E+03  0.17300000000E+03 0.  1.
         -6    1    1    2    0  503 -0.71955190452E+02  0.10231187086E+03 -0.99499901259E+02  0.23553025008E+03  0.17300000000E+03 0.  1.
</event>
<event>
 4    1  0.5959403E+000  0.1000000E+03  0.7546771E-02  0.1280296E+00
         21   -1    0    0  501  502  0.00000000000E+00  0.00000000000E+00  0.91321489549E+03  0.91321489549E+03  0.00000000000E+00 0.  1.
         21   -1    0    0  502  503 -0.00000000000E+00 -0.00000000000E+00 -0.49561512962E+02  0.49561512962E+02  0.00000000000E+00 0. -1.
          6    1    1    2  501    0  0.39346074294E+02 -0.11734758620E+03  0.43990389613E+03  0.48863381727E+03  0.17300000000E+03 0.  1.
         -6    1    1    2    0  503 -0.39346074294E+02  0.11734758620E+03  0.42374948640E+03  0.47414259118E+03  0.17300000000E+03 0.  1.
</event>
<event>
 4    1  0.5959403E+000  0.1000000E+03  0.7546771E-02  0.1280296E+00
         21   -1    0    0  501  502  0.00000000000E+00  0.00000000000E+00  0.72391313658E+02  0.72391313658E+02  0.00000000000E+00 0.  1.
         21   -1    0    0  502  503 -0.00000000000E+00 -0.00000000000E+00 -0.14152079254E+04  0.14152079254E+04  0.00000000000E+00 0. -1.
          6    1    1    2  501    0 -0.10077338144E+03 -0.18038629672E+03 -0.27008462059E+03  0.38153530994E+03  0.17300000000E+03 0.  1.
         -6    1    1    2    0  503  0.10077338144E+03  0.18038629672E+03 -0.10727319911E+04  0.11060639291E+04  0.17300000000E+03 0. -1.
</event>
<event>
 4    1  0.5959403E+000  0.1000000E+03  0.7546771E-02  0.1280296E+00
         21   -1    0    0  501  502  0.00000000000E+00  0.00000000000E+00  0.15318610417E+03  0.15318610417E+03  0.00000000000E+00 0.  1.
         21   -1    0    0  502  503 -0.00000000000E+00 -0.00000000000E+00 -0.26084038302E+03  0.26084038302E+03  0.00000000000E+00 0. -1.
          6    1    1    2  501    0 -0.84808996101E+02  0.22288604028E+02 -0.37435789943E+01  0.19399062367E+03  0.17300000000E+03 0.  1.
         -6    1    1    2    0  503  0.84808996101E+02 -0.22288604028E+02 -0.10391069986E+03  0.22003586352E+03  0.17300000000E+03 0. -1.
</event>
<event>
 4    1  0.5959403E+000  0.1000000E+03  0.7546771E-02  0.1280296E+00
         21   -1    0    0  501  502  0.00000000000E+00  0.00000000000E+00  0.16927132949E+04  0.16927132949E+04  0.00000000000E+00 0.  1.
         21   -1    0    0  502  503 -0.00000000000E+00 -0.00000000000E+00 -0.19370561366E+02  0.19370561366E+02  0.00000000000E+00 0. -1.
          6    1    1    2  501    0 -0.50065534987E+02 -0.18415798784E+02  0.85442774692E+03  0.87339651600E+03  0.17300000000E+03 0.  1.
         -6    1    1    2    0  503  0.50065534987E+02  0.18415798784E+02  0.81891498662E+03  0.83868734028E+03  0.17300000000E+03 0. -1.
</event>
<event>
 4    1  0.5959403E+000  0.1000000E+03  0.7546771E-02  0.1280296E+00
         21   -1    0    0  501  502  0.00000000000E+00  0.00000000000E+00  0.69767229434E+03  0.69767229434E+03  0.00000000000E+00 0.  1.
         21   -1    0    0  502  503 -0.00000000000E+00 -0.00000000000E+00 -0.17438932608E+03  0.17438932608E+03  0.00000000000E+00 0. -1.
          6    1    1    2  501    0  0.22219848104E+03  0.13431502342E+03  0.45660669216E+03  0.55302021827E+03  0.17300000000E+03 0.  1.
         -6    1    1    2    0  503 -0.22219848104E+03 -0.13431502342E+03  0.66676276100E+02  0.31904140215E+03  0.17300000000E+03 0. -1.
</event>
<event>
 4    1  0.5959403E+000  0.1000000E+03  0.7546771E-02  0.1280296E+00
         21   -1    0    0  501  502  0.00000000000E+00  0.00000000000E+00  0.99154220277E+02  0.99154220277E+02  0.00000000000E+00 0. -1.
         21   -1    0    0  502  503 -0.00000000000E+00 -0.00000000000E+00 -0.14786117811E+04  0.14786117811E+04  0.00000000000E+00 0. -1.
          6    1    1    2  501    0 -0.10563319247E+03 -0.29536330265E+02 -0.23227086225E+02  0.20615349546E+03  0.17300000000E+03 0. -1.
         -6    1    1    2    0  503  0.10563319247E+03  0.29536330265E+02 -0.13562304746E+04  0.13716125060E+04  0.17300000000E+03 0. -1.
</event>
<event>
 4    1  0.5959403E+000  0.1000000E+03  0.7546771E-02  0.1280296E+00
         21   -1    0    0  501  502  0.00000000000E+00  0.00000000000E+00  0.18423539363E+03  0.18423539363E+03  0.00000000000E+00 0. -1.
         21   -1    0    0  502  503 -0.00000000000E+00 -0.00000000000E+00 -0.60732911359E+03  0.60732911359E+03  0.00000000000E+00 0.  1.
          6    1    1    2  501    0  0.48524710760E+02 -0.70246727437E+02  0.11177890425E+03  0.22296361521E+03  0.17300000000E+03 0. -1.
         -6    1    1    2    0  503 -0.48524710760E+02  0.70246727437E+02 -0.53487262421E+03  0.56860089201E+03  0.17300000000E+03 0.  1.
</event>
<event>
 4    1  0.5959403E+000  0.1000000E+03  0.7546771E-02  0.1280296E+00
         21   -1    0    0  501  502  0.00000000000E+00  0.00000000000E+00  0.65898419375E+03  0.65898419375E+03  0.00000000000E+00 0. -1.
         21   -1    0    0  502  503 -0.00000000000E+00 -0.00000000000E+00 -0.40505230177E+03  0.40505230177E+03  0.00000000000E+00 0.  1.
          6    1    1    2  501    0  0.59154712944E+01 -0.15803333585E+02  0.62796990999E+03  0.65158264710E+03  0.17300000000E+03 0. -1.
         -6    1    1    2    0  503 -0.59154712944E+01  0.15803333585E+02 -0.37403801802E+03  0.41245384842E+03  0.17300000000E+03 0.  1.
</event>
<event>
 4    1  0.5959403E+000  0.1000000E+03  0.7546771E-02  0.1280296E+00
         21   -1    0    0  501  502  0.00000000000E+00  0.00000000000E+00  0.71275665156E+03  0.71275665156E+03  0.00000000000E+00 0. -1.
         21   -1    0    0  502  503 -0.00000000000E+00 -0.00000000000E+00 -0.25065796151E+03  0.25065796151E+03  0.00000000000E+00 0.  1.
          6    1    1    2  501    0 -0.11877287548E+03 -0.17039032164E+03  0.60137324350E+03  0.65933196165E+03  0.17300000000E+03 0. -1.
         -6    1    1    2    0  503  0.11877287548E+03  0.17039032164E+03 -0.13927455344E+03  0.30408265142E+03  0.17300000000E+03 0.  1.
</event>
<event>
 4    1  0.5959403E+000  0.1000000E+03  0.7546771E-02  0.1280296E+00
         21   -1    0    0  501  502  0.00000000000E+00  0.00000000000E+00  0.23645403581E+03  0.23645403581E+03  0.00000000000E+00 0. -1.
         21   -1    0    0  502  503 -0.00000000000E+00 -0.00000000000E+00 -0.25491478870E+03  0.25491478870E+03  0.00000000000E+00 0. -1.
          6    1    1    2  501    0  0.11833811192E+03  0.10660055982E+03  0.61381806549E+02  0.24303150878E+03  0.17300000000E+03 0. -1.
         -6    1    1    2    0  503 -0.11833811192E+03 -0.10660055982E+03 -0.79842559433E+02  0.24833731573E+03  0.17300000000E+03 0. -1.
</event>
<event>
 4    1  0.5959403E+000  0.1000000E+03  0.7546771E-02  0.1280296E+00
         21   -1    0    0  501  502  0.00000000000E+00  0.00000000000E+00  0.39820174713E+03  0.39820174713E+03  0.00000000000E+00 0. -1.
         21   -1    0    0  502  503 -0.00000000000E+00 -0.00000000000E+00 -0.22115098659E+03  0.22115098659E+03  0.00000000000E+00 0. -1.
          6    1    1    2  501    0  0.84653596156E+02  0.18998068922E+03  0.21579883638E+03  0.34605928886E+03  0.17300000000E+03 0. -1.
         -6    1    1    2    0  503 -0.84653596156E+02 -0.18998068922E+03 -0.38748075841E+02  0.27329344486E+03  0.17300000000E+03 0. -1.
</event>
<event>
 4    1  0.5959403E+000  0.1000000E+03  0.7546771E-02  0.1280296E+00
         21   -1    0    0  501  502  0.00000000000E+00  0.00000000000E+00  0.18130820724E+03  0.18130820724E+03  0.00000000000E+00 0. -1.
         21   -1    0    0  502  503 -0.00000000000E+00 -0.00000000000E+00 -0.49981208508E+03  0.49981208508E+03  0.00000000000E+00 0. -1.
          6    1    1    2  501    0  0.13120054308E+03  0.84421974072E+02  0.56441134246E+02  0.23969825583E+03  0.17300000000E+03 0. -1.
         -6    1    1    2    0  503 -0.13120054308E+03 -0.84421974072E+02 -0.37494501208E+03  0.44142203649E+03  0.17300000000E+03 0. -1.
</event>
<event>
 4    1  0.5959403E+000  0.1000000E+03  0.7546771E-02  0.1280296E+00
         21   -1    0    0  501  502  0.00000000000E+00  0.00000000000E+00  0.26581742668E+03  0.26581742668E+03  0.00000000000E+00 0. -1.
         21   -1    0    0  502  503 -0.00000000000E+00 -0.00000000000E+00 -0.18506606760E+03  0.18506606760E+03  0.00000000000E+00 0. -1.
          6    1    1    2  501    0  0.54017827904E+02  0.11734288053E+03  0.91979193102E+02  0.23468372186E+03  0.17300000000E+03 0. -1.
         -6    1    1    2    0  503 -0.54017827904E+02 -0.11734288053E+03 -0.11227834022E+02  0.21619977243E+03  0.17300000000E+03 0. -1.
</event>
<event>
 4    1  0.5959403E+000  0.1000000E+03  0.7546771E-02  0.1280296E+00
         21   -1    0    0  501  502  0.00000000000E+00  0.00000000000E+00  0.19414831134E+03  0.19414831134E+03  0.00000000000E+00 0. -1.
         21   -1    0    0  502  503 -0.00000000000E+00 -0.00000000000E+00 -0.18305678110E+03  0.18305678110E+03  0.00000000000E+00 0. -1.
          6    1    1    2  501    0 -0.16468572955E+02  0.67050088816E+02  0.34614084731E+02  0.18945728586E+03  0.17300000000E+03 0. -1.
         -6    1    1    2    0  503  0.16468572955E+02 -0.67050088816E+02 -0.23522554490E+02  0.18774780658E+03  0.17300000000E+03 0. -1.
</event>
<event>
 4    1  0.5959403E+000  0.1000000E+03  0.7546771E-02  0.1280296E+00
         21   -1    0    0  501  502  0.00000000000E+00  0.00000000000E+00  0.30301353775E+02  0.30301353775E+02  0.00000000000E+00 0. -1.
         21   -1    0    0  502  503 -0.00000000000E+00 -0.00000000000E+00 -0.14182180925E+04  0.14182180925E+04  0.00000000000E+00 0. -1.
          6    1    1    2  501    0  0.10398986513E+03  0.46412861825E+02 -0.72459247181E+03  0.75361216551E+03  0.17300000000E+03 0. -1.
         -6    1    1    2    0  503 -0.10398986513E+03 -0.46412861825E+02 -0.66332426693E+03  0.69490728079E+03  0.17300000000E+03 0. -1.
</event>
<event>
 4    1  0.5959403E+000  0.1000000E+03  0.7546771E-02  0.1280296E+00
         21   -1    0    0  501  502  0.00000000000E+00  0.00000000000E+00  0.86541647918E+03  0.86541647918E+03  0.00000000000E+00 0. -1.
         21   -1    0    0  502  503 -0.00000000000E+00 -0.00000000000E+00 -0.14681150310E+03  0.14681150310E+03  0.00000000000E+00 0. -1.
          6    1    1    2  501    0  0.13268724806E+03  0.26478966797E+02  0.75792866588E+03  0.78910829678E+03  0.17300000000E+03 0. -1.
         -6    1    1    2    0  503 -0.13268724806E+03 -0.26478966797E+02 -0.39323689802E+02  0.22311968551E+03  0.17300000000E+03 0. -1.
</event>
<event>
 4    1  0.5959403E+000  0.1000000E+03  0.7546771E-02  0.1280296E+00
         21   -1    0    0  501  502  0.00000000000E+00  0.00000000000E+00  0.90891553333E+03  0.90891553333E+03  0.00000000000E+00 0. -1.
         21   -1    0    0  502  503 -0.00000000000E+00 -0.00000000000E+00 -0.22770382887E+03  0.22770382887E+03  0.00000000000E+00 0. -1.
          6    1    1    2  501    0 -0.40476077102E+03 -0.10375885451E+03  0.27893237332E+03  0.53134682697E+03  0.17300000000E+03 0. -1.
         -6    1    1    2    0  503  0.40476077102E+03  0.10375885451E+03  0.40227933114E+03  0.60527253523E+03  0.17300000000E+03 0. -1.
</event>
<event>
 4    1  0.5959403E+000  0.1000000E+03  0.7546771E-02  0.1280296E+00
         21   -1    0    0  503  502  0.00000000000E+00  0.00000000000E+00  0.61849529133E+03  0.61849529133E+03  0.00000000000E+00 0.  1.
         21   -1    0    0  501  503 -0.00000000000E+00 -0.00000000000E+00 -0.10043780970E+03  0.10043780970E+03  0.00000000000E+00 0.  1.
          6    1    1    2  501    0  0.51490241630E+02  0.52645755804E+02  0.23060464638E+02  0.18942968515E+03  0.17300000000E+03 0.  1.
         -6    1    1    2    0  502 -0.51490241630E+02 -0.52645755804E+02  0.49499701699E+03  0.52950341587E+03  0.17300000000E+03 0.  1.
</event>
<event>
 4    1  0.5959403E+000  0.1000000E+03  0.7546771E-02  0.1280296E+00
         21   -1    0    0  501  502  0.00000000000E+00  0.00000000000E+00  0.90502887049E+03  0.90502887049E+03  0.00000000000E+00 0. -1.
         21   -1    0    0  502  503 -0.00000000000E+00 -0.00000000000E+00 -0.97266072994E+03  0.97266072994E+03  0.00000000000E+00 0. -1.
          6    1    1    2  501    0 -0.16493028997E+03  0.24626959290E+03  0.83996713643E+03  0.90737230683E+03  0.17300000000E+03 0. -1.
         -6    1    1    2    0  503  0.16493028997E+03 -0.24626959290E+03 -0.90759899587E+03  0.97031729359E+03  0.17300000000E+03 0. -1.
</event>
<event>
 4    1  0.5959403E+000  0.1000000E+03  0.7546771E-02  0.1280296E+00
         21   -1    0    0  501  502  0.00000000000E+00  0.00000000000E+00  0.17533299984E+02  0.17533299984E+02  0.00000000000E+00 0.  1.
         21   -1    0    0  502  503 -0.00000000000E+00 -0.00000000000E+00 -0.29784893597E+04  0.29784893597E+04  0.00000000000E+00 0.  1.
          6    1    1    2  501    0  0.12641713388E+03  0.51416243825E+02 -0.10834247641E+04  0.11056053280E+04  0.17300000000E+03 0.  1.
         -6    1    1    2    0  503 -0.12641713388E+03 -0.51416243825E+02 -0.18775312957E+04  0.18904173317E+04  0.17300000000E+03 0.  1.
</event>
<event>
 4    1  0.5959403E+000  0.1000000E+03  0.7546771E-02  0.1280296E+00
         21   -1    0    0  503  502  0.00000000000E+00  0.00000000000E+00  0.19175912064E+03  0.19175912064E+03  0.00000000000E+00 0. -1.
         21   -1    0    0  501  503 -0.00000000000E+00 -0.00000000000E+00 -0.22050376753E+03  0.22050376753E+03  0.00000000000E+00 0. -1.
          6    1    1    2  501    0 -0.64202134031E+02  0.12800812296E+02 -0.10441815387E+03  0.21240980596E+03  0.17300000000E+03 0. -1.
         -6    1    1    2    0  502  0.64202134031E+02 -0.12800812296E+02  0.75673506977E+02  0.19985308221E+03  0.17300000000E+03 0. -1.
</event>
<event>
 4    1  0.5959403E+000  0.1000000E+03  0.7546771E-02  0.1280296E+00
         21   -1    0    0  503  502  0.00000000000E+00  0.00000000000E+00  0.10373660026E+03  0.10373660026E+03  0.00000000000E+00 0. -1.
         21   -1    0    0  501  503 -0.00000000000E+00 -0.00000000000E+00 -0.38474263074E+03  0.38474263074E+03  0.00000000000E+00 0. -1.
          6    1    1    2  501    0  0.30064756627E+02  0.37232275137E+02 -0.24773048430E+03  0.30592405063E+03  0.17300000000E+03 0. -1.
         -6    1    1    2    0  502 -0.30064756627E+02 -0.37232275137E+02 -0.33275546180E+02  0.18255518036E+03  0.17300000000E+03 0. -1.
</event>
<event>
 4    1  0.5959403E+000  0.1000000E+03  0.7546771E-02  0.1280296E+00
         21   -1    0    0  503  502  0.00000000000E+00  0.00000000000E+00  0.38460725684E+03  0.38460725684E+03  0.00000000000E+00 0. -1.
         21   -1    0    0  501  503 -0.00000000000E+00 -0.00000000000E+00 -0.36041885248E+03  0.36041885248E+03  0.00000000000E+00 0. -1.
          6    1    1    2  501    0  0.21301456098E+02  0.42007462796E+02 -0.31437888312E+03  0.36191361002E+03  0.17300000000E+03 0. -1.
         -6    1    1    2    0  502 -0.21301456098E+02 -0.42007462796E+02  0.33856728748E+03  0.38311249929E+03  0.17300000000E+03 0. -1.
</event>
<event>
 4    1  0.5959403E+000  0.1000000E+03  0.7546771E-02  0.1280296E+00
         21   -1    0    0  501  502  0.00000000000E+00  0.00000000000E+00  0.57846333309E+03  0.57846333309E+03  0.00000000000E+00 0. -1.
         21   -1    0    0  502  503 -0.00000000000E+00 -0.00000000000E+00 -0.93465700467E+02  0.93465700467E+02  0.00000000000E+00 0. -1.
          6    1    1    2  501    0 -0.12743741737E+03 -0.38212593982E+02  0.35842206405E+03  0.41963778868E+03  0.17300000000E+03 0. -1.
         -6    1    1    2    0  503  0.12743741737E+03  0.38212593982E+02  0.12657556857E+03  0.25229124488E+03  0.17300000000E+03 0. -1.
</event>
<event>
 4    1  0.5959403E+000  0.1000000E+03  0.7546771E-02  0.1280296E+00
         21   -1    0    0  503  502  0.00000000000E+00  0.00000000000E+00  0.22889095963E+04  0.22889095963E+04  0.00000000000E+00 0.  1.
         21   -1    0    0  501  503 -0.00000000000E+00 -0.00000000000E+00 -0.26848579768E+02  0.26848579768E+02  0.00000000000E+00 0.  1.
          6    1    1    2  501    0  0.11936960310E+03  0.34376088631E+02  0.53848417967E+03  0.57907255968E+03  0.17300000000E+03 0.  1.
         -6    1    1    2    0  502 -0.11936960310E+03 -0.34376088631E+02  0.17235768369E+04  0.17366856164E+04  0.17300000000E+03 0.  1.
</event>
<event>
 4    1  0.5959403E+000  0.1000000E+03  0.7546771E-02  0.1280296E+00
         21   -1    0    0  503  502  0.00000000000E+00  0.00000000000E+00  0.13981913007E+03  0.13981913007E+03  0.00000000000E+00 0.  1.
         21   -1    0    0  501  503 -0.00000000000E+00 -0.00000000000E+00 -0.45660051575E+03  0.45660051575E+03  0.00000000000E+00 0.  1.
          6    1    1    2  501    0  0.14927383300E+03  0.69429630461E+02 -0.25578259175E+03  0.34993840179E+03  0.17300000000E+03 0.  1.
         -6    1    1    2    0  502 -0.14927383300E+03 -0.69429630461E+02 -0.60998793930E+02  0.24648124404E+03  0.17300000000E+03 0.  1.
</event>
<event>
 4    1  0.5959403E+000  0.1000000E+03  0.7546771E-02  0.1280296E+00
         21   -1    0    0  501  502  0.00000000000E+00  0.00000000000E+00  0.27577963207E+03  0.27577963207E+03  0.00000000000E+00 0. -1.
         21   -1    0    0  502  503 -0.00000000000E+00 -0.00000000000E+00 -0.20074557385E+03  0.20074557385E+03  0.00000000000E+00 0. -1.
          6    1    1    2  501    0  0.15690223664E+03  0.14573757401E+02  0.62359239799E+02  0.24217427827E+03  0.17300000000E+03 0.  1.
         -6    1    1    2    0  503 -0.15690223664E+03 -0.14573757401E+02  0.12674818422E+02  0.23435092765E+03  0.17300000000E+03 0.  1.
</event>
<event>
 4    1  0.5959403E+000  0.1000000E+03  0.7546771E-02  0.1280296E+00
         21   -1    0    0  501  502  0.00000000000E+00  0.00000000000E+00  0.18791041991E+03  0.18791041991E+03  0.00000000000E+00 0. -1.
         21   -1    0    0  502  503 -0.00000000000E+00 -0.00000000000E+00 -0.29376890592E+03  0.29376890592E+03  0.00000000000E+00 0. -1.
          6    1    1    2  501    0 -0.17078432125E+02  0.57092307704E+01  0.10898161691E+03  0.20525657354E+03  0.17300000000E+03 0.  1.
         -6    1    1    2    0  503  0.17078432125E+02 -0.57092307704E+01 -0.21484010291E+03  0.27642275228E+03  0.17300000000E+03 0.  1.
</event>
<event>
 4    1  0.5959403E+000  0.1000000E+03  0.7546771E-02  0.1280296E+00
         21   -1    0    0  503  502  0.00000000000E+00  0.00000000000E+00  0.22209776339E+02  0.22209776339E+02  0.00000000000E+00 0.  1.
         21   -1    0    0  501  503 -0.00000000000E+00 -0.00000000000E+00 -0.24094134905E+04  0.24094134905E+04  0.00000000000E+00 0. -1.
          6    1    1    2  501    0 -0.10057445630E+03  0.57190828169E+02 -0.17243468094E+04  0.17368612297E+04  0.17300000000E+03 0. -1.
         -6    1    1    2    0  502  0.10057445630E+03 -0.57190828169E+02 -0.66285690481E+03  0.69476203720E+03  0.17300000000E+03 0.  1.
</event>
<event>
 4    1  0.5959403E+000  0.1000000E+03  0.7546771E-02  0.1280296E+00
         21   -1    0    0  503  502  0.00000000000E+00  0.00000000000E+00  0.18060573528E+03  0.18060573528E+03  0.00000000000E+00 0.  1.
         21   -1    0    0  501  503 -0.00000000000E+00 -0.00000000000E+00 -0.24217355107E+03  0.24217355107E+03  0.00000000000E+00 0. -1.
          6    1    1    2  501    0 -0.28863997228E+02  0.65329221043E+02 -0.12510550995E+03  0.22512535637E+03  0.17300000000E+03 0. -1.
         -6    1    1    2    0  502  0.28863997228E+02 -0.65329221043E+02  0.63537694158E+02  0.19765392998E+03  0.17300000000E+03 0.  1.
</event>
<event>
 4    1  0.5959403E+000  0.1000000E+03  0.7546771E-02  0.1280296E+00
         21   -1    0    0  503  502  0.00000000000E+00  0.00000000000E+00  0.14662543423E+04  0.14662543423E+04  0.00000000000E+00 0.  1.
         21   -1    0    0  501  503 -0.00000000000E+00 -0.00000000000E+00 -0.40699366573E+02  0.40699366573E+02  0.00000000000E+00 0. -1.
          6    1    1    2  501    0 -0.17957099007E+01  0.76873701357E+02  0.23660052996E+03  0.30302079353E+03  0.17300000000E+03 0. -1.
         -6    1    1    2    0  502  0.17957099007E+01 -0.76873701357E+02  0.11889544458E+04  0.12039329154E+04  0.17300000000E+03 0.  1.
</event>
<event>
 4    1  0.5959403E+000  0.1000000E+03  0.7546771E-02  0.1280296E+00
         21   -1    0    0  503  502  0.00000000000E+00  0.00000000000E+00  0.10540986819E+03  0.10540986819E+03  0.00000000000E+00 0. -1.
         21   -1    0    0  501  503 -0.00000000000E+00 -0.00000000000E+00 -0.44094828770E+03  0.44094828770E+03  0.00000000000E+00 0.  1.
          6    1    1    2  501    0 -0.46171970584E+02 -0.92250726846E+02 -0.26517376706E+03  0.33299876007E+03  0.17300000000E+03 0.  1.
         -6    1    1    2    0  502  0.46171970584E+02  0.92250726846E+02 -0.70364652446E+02  0.21335939582E+03  0.17300000000E+03 0. -1.
</event>
<event>
 4    1  0.5959403E+000  0.1000000E+03  0.7546771E-02  0.1280296E+00
         21   -1    0    0  503  502  0.00000000000E+00  0.00000000000E+00  0.63446002124E+03  0.63446002124E+03  0.00000000000E+00 0. -1.
         21   -1    0    0  501  503 -0.00000000000E+00 -0.00000000000E+00 -0.82574990607E+02  0.82574990607E+02  0.00000000000E+00 0.  1.
          6    1    1    2  501    0 -0.44589076589E+02 -0.47003415456E+02  0.64261359716E+02  0.19559148542E+03  0.17300000000E+03 0.  1.
         -6    1    1    2    0  502  0.44589076589E+02  0.47003415456E+02  0.48762367091E+03  0.52144352643E+03  0.17300000000E+03 0. -1.
</event>
<event>
 4    1  0.5959403E+000  0.1000000E+03  0.7546771E-02  0.1280296E+00
         21   -1    0    0  503  502  0.00000000000E+00  0.00000000000E+00  0.91315090352E+03  0.91315090352E+03  0.00000000000E+00 0.  1.
         21   -1    0    0  501  503 -0.00000000000E+00 -0.00000000000E+00 -0.47101957308E+02  0.47101957308E+02  0.00000000000E+00 0.  1.
          6    1    1    2  501    0 -0.36709730938E+02 -0.10828108247E+03  0.42577799349E+03  0.47359085391E+03  0.17300000000E+03 0.  1.
         -6    1    1    2    0  502  0.36709730938E+02  0.10828108247E+03  0.44027095272E+03  0.48666200692E+03  0.17300000000E+03 0.  1.
</event>
<event>
 4    1  0.5959403E+000  0.1000000E+03  0.7546771E-02  0.1280296E+00
         21   -1    0    0  501  502  0.00000000000E+00  0.00000000000E+00  0.99729584742E+03  0.99729584742E+03  0.00000000000E+00 0. -1.
         21   -1    0    0  502  503 -0.00000000000E+00 -0.00000000000E+00 -0.95627627781E+02  0.95627627781E+02  0.00000000000E+00 0. -1.
          6    1    1    2  501    0 -0.15838072271E+03  0.11161470371E+03  0.74639065314E+03  0.79029760375E+03  0.17300000000E+03 0. -1.
         -6    1    1    2    0  503  0.15838072271E+03 -0.11161470371E+03  0.15527756650E+03  0.30262587145E+03  0.17300000000E+03 0. -1.
</event>
<event>
 4    1  0.5959403E+000  0.1000000E+03  0.7546771E-02  0.1280296E+00
         21   -1    0    0  503  502  0.00000000000E+00  0.00000000000E+00  0.11684403323E+04  0.11684403323E+04  0.00000000000E+00 0. -1.
         21   -1    0    0  501  503 -0.00000000000E+00 -0.00000000000E+00 -0.11059980907E+03  0.11059980907E+03  0.00000000000E+00 0. -1.
          6    1    1    2  501    0  0.18923671167E+02  0.10474278160E+03  0.12728814588E+01  0.20312502518E+03  0.17300000000E+03 0. -1.
         -6    1    1    2    0  502 -0.18923671167E+02 -0.10474278160E+03  0.10565676418E+04  0.10759151162E+04  0.17300000000E+03 0. -1.
</event>
<event>
 4    1  0.5959403E+000  0.1000000E+03  0.7546771E-02  0.1280296E+00
         21   -1    0    0  503  502  0.00000000000E+00  0.00000000000E+00  0.88313755648E+02  0.88313755648E+02  0.00000000000E+00 0. -1.
         21   -1    0    0  501  503 -0.00000000000E+00 -0.00000000000E+00 -0.35625547112E+03  0.35625547112E+03  0.00000000000E+00 0. -1.
          6    1    1    2  501    0 -0.28368735694E+02 -0.73574074293E+01 -0.10142808426E+03  0.20267109534E+03  0.17300000000E+03 0. -1.
         -6    1    1    2    0  502  0.28368735694E+02  0.73574074293E+01 -0.16651363121E+03  0.24189813143E+03  0.17300000000E+03 0. -1.
</event>
<event>
 4    1  0.5959403E+000  0.1000000E+03  0.7546771E-02  0.1280296E+00
         21   -1    0    0  503  502  0.00000000000E+00  0.00000000000E+00  0.10699749622E+03  0.10699749622E+03  0.00000000000E+00 0. -1.
         21   -1    0    0  501  503 -0.00000000000E+00 -0.00000000000E+00 -0.83469164553E+03  0.83469164553E+03  0.00000000000E+00 0.  1.
          6    1    1    2  501    0  0.44385659356E+02 -0.17722106822E+03 -0.61791147557E+03  0.66717387945E+03  0.17300000000E+03 0. -1.
         -6    1    1    2    0  502 -0.44385659356E+02  0.17722106822E+03 -0.10978267374E+03  0.27451526229E+03  0.17300000000E+03 0.  1.
</event>
<event>
 4    1  0.5959403E+000  0.1000000E+03  0.7546771E-02  0.1280296E+00
         21   -1    0    0  503  502  0.00000000000E+00  0.00000000000E+00  0.11373957461E+04  0.11373957461E+04  0.00000000000E+00 0.  1.
         21   -1    0    0  501  503 -0.00000000000E+00 -0.00000000000E+00 -0.75330828268E+02  0.75330828268E+02  0.00000000000E+00 0.  1.
          6    1    1    2  501    0 -0.98969952239E+02  0.21042260725E+03  0.61592058039E+03  0.68070543294E+03  0.17300000000E+03 0.  1.
         -6    1    1    2    0  502  0.98969952239E+02 -0.21042260725E+03  0.44614433740E+03  0.53202114139E+03  0.17300000000E+03 0.  1.
</event>
<event>
 4    1  0.5959403E+000  0.1000000E+03  0.7546771E-02  0.1280296E+00
         21   -1    0    0  503  502  0.00000000000E+00  0.00000000000E+00  0.22390485573E+02  0.22390485573E+02  0.00000000000E+00 0. -1.
         21   -1    0    0  501  503 -0.00000000000E+00 -0.00000000000E+00 -0.27529571301E+04  0.27529571301E+04  0.00000000000E+00 0.  1.
          6    1    1    2  501    0  0.54065978398E+02  0.13619999543E+03 -0.79975754629E+03  0.83127294051E+03  0.17300000000E+03 0.  1.
         -6    1    1    2    0  502 -0.54065978398E+02 -0.13619999543E+03 -0.19308090983E+04  0.19440746752E+04  0.17300000000E+03 0. -1.
</event>
<event>
 4    1  0.5959403E+000  0.1000000E+03  0.7546771E-02  0.1280296E+00
         21   -1    0    0  503  502  0.00000000000E+00  0.00000000000E+00  0.24735986736E+03  0.24735986736E+03  0.00000000000E+00 0. -1.
         21   -1    0    0  501  503 -0.00000000000E+00 -0.00000000000E+00 -0.57477369011E+03  0.57477369011E+03  0.00000000000E+00 0.  1.
          6    1    1    2  501    0 -0.17003682749E+03  0.11212573005E+02 -0.47818014498E+03  0.53630541257E+03  0.17300000000E+03 0.  1.
         -6    1    1    2    0  502  0.17003682749E+03 -0.11212573005E+02  0.15076632223E+03  0.28582814490E+03  0.17300000000E+03 0. -1.
</event>
<event>
 4    1  0.5959403E+000  0.1000000E+03  0.7546771E-02  0.1280296E+00
         21   -1    0    0  503  502  0.00000000000E+00  0.00000000000E+00  0.29116394572E+03  0.29116394572E+03  0.00000000000E+00 0. -1.
         21   -1    0    0  501  503 -0.00000000000E+00 -0.00000000000E+00 -0.34626853880E+03  0.34626853880E+03  0.00000000000E+00 0.  1.
          6    1    1    2  501    0  0.15316599495E+03  0.37816151640E+02 -0.24283908682E+03  0.33732729718E+03  0.17300000000E+03 0.  1.
         -6    1    1    2    0  502 -0.15316599495E+03 -0.37816151640E+02  0.18773449374E+03  0.30010518735E+03  0.17300000000E+03 0. -1.
</event>
<event>
 4    1  0.5959403E+000  0.1000000E+03  0.7546771E-02  0.1280296E+00
         21   -1    0    0  501  502  0.00000000000E+00  0.00000000000E+00  0.30993640548E+02  0.30993640548E+02  0.00000000000E+00 0. -1.
         21   -1    0    0  502  503 -0.00000000000E+00 -0.00000000000E+00 -0.25302873961E+04  0.25302873961E+04  0.00000000000E+00 0. -1.
          6    1    1    2  501    0 -0.64207712552E+02  0.29392243114E+02 -0.29578168503E+03  0.34986045719E+03  0.17300000000E+03 0.  1.
         -6    1    1    2    0  503  0.64207712552E+02 -0.29392243114E+02 -0.22035120705E+04  0.22114205795E+04  0.17300000000E+03 0.  1.
</event>
<event>
 4    1  0.5959403E+000  0.1000000E+03  0.7546771E-02  0.1280296E+00
         21   -1    0    0  501  502  0.00000000000E+00  0.00000000000E+00  0.19768526939E+02  0.19768526939E+02  0.00000000000E+00 0. -1.
         21   -1    0    0  502  503 -0.00000000000E+00 -0.00000000000E+00 -0.21262071382E+04  0.21262071382E+04  0.00000000000E+00 0. -1.
          6    1    1    2  501    0 -0.28045822575E+02 -0.37419711008E+02 -0.53205212283E+03  0.56142253637E+03  0.17300000000E+03 0.  1.
         -6    1    1    2    0  503  0.28045822575E+02  0.37419711008E+02 -0.15743864884E+04  0.15845531288E+04  0.17300000000E+03 0.  1.
</event>
<event>
 4    1  0.5959403E+000  0.1000000E+03  0.7546771E-02  0.1280296E+00
         21   -1    0    0  501  502  0.00000000000E+00  0.00000000000E+00  0.23971696169E+03  0.23971696169E+03  0.00000000000E+00 0. -1.
         21   -1    0    0  502  503 -0.00000000000E+00 -0.00000000000E+00 -0.50685266934E+03  0.50685266934E+03  0.00000000000E+00 0. -1.
          6    1    1    2  501    0  0.14419057588E+03  0.16685166183E+03  0.88348908536E+02  0.29387910587E+03  0.17300000000E+03 0.  1.
         -6    1    1    2    0  503 -0.14419057588E+03 -0.16685166183E+03 -0.35548461619E+03  0.45269052517E+03  0.17300000000E+03 0.  1.
</event>
<event>
 4    1  0.5959403E+000  0.1000000E+03  0.7546771E-02  0.1280296E+00
         21   -1    0    0  503  502  0.00000000000E+00  0.00000000000E+00  0.37407066078E+03  0.37407066078E+03  0.00000000000E+00 0.  1.
         21   -1    0    0  501  503 -0.00000000000E+00 -0.00000000000E+00 -0.85952088089E+03  0.85952088089E+03  0.00000000000E+00 0.  1.
          6    1    1    2  501    0 -0.62755775659E+02  0.42423402088E+03 -0.59967181014E+03  0.75726354179E+03  0.17300000000E+03 0.  1.
         -6    1    1    2    0  502  0.62755775659E+02 -0.42423402088E+03  0.11422159003E+03  0.47632799989E+03  0.17300000000E+03 0.  1.
</event>
<event>
 4    1  0.5959403E+000  0.1000000E+03  0.7546771E-02  0.1280296E+00
         21   -1    0    0  501  502  0.00000000000E+00  0.00000000000E+00  0.53083014609E+03  0.53083014609E+03  0.00000000000E+00 0.  1.
         21   -1    0    0  502  503 -0.00000000000E+00 -0.00000000000E+00 -0.63230451393E+02  0.63230451393E+02  0.00000000000E+00 0. -1.
          6    1    1    2  501    0  0.76109855586E+01  0.23765136105E+02  0.32279240541E+03  0.36707852809E+03  0.17300000000E+03 0.  1.
         -6    1    1    2    0  503 -0.76109855586E+01 -0.23765136105E+02  0.14480728929E+03  0.22698206940E+03  0.17300000000E+03 0. -1.
</event>
<event>
 4    1  0.5959403E+000  0.1000000E+03  0.7546771E-02  0.1280296E+00
         21   -1    0    0  501  502  0.00000000000E+00  0.00000000000E+00  0.15028921157E+03  0.15028921157E+03  0.00000000000E+00 0.  1.
         21   -1    0    0  502  503 -0.00000000000E+00 -0.00000000000E+00 -0.28482184899E+03  0.28482184899E+03  0.00000000000E+00 0. -1.
          6    1    1    2  501    0 -0.62298335947E+02  0.74539148199E+02 -0.55974174285E+01  0.19848803077E+03  0.17300000000E+03 0.  1.
         -6    1    1    2    0  503  0.62298335947E+02 -0.74539148199E+02 -0.12893521999E+03  0.23662302980E+03  0.17300000000E+03 0. -1.
</event>
<event>
 4    1  0.5959403E+000  0.1000000E+03  0.7546771E-02  0.1280296E+00
         21   -1    0    0  501  502  0.00000000000E+00  0.00000000000E+00  0.13831726653E+03  0.13831726653E+03  0.00000000000E+00 0. -1.
         21   -1    0    0  502  503 -0.00000000000E+00 -0.00000000000E+00 -0.45555326225E+03  0.45555326225E+03  0.00000000000E+00 0.  1.
          6    1    1    2  501    0 -0.86745504442E+02  0.12761033449E+03 -0.44709231144E+02  0.23608705038E+03  0.17300000000E+03 0. -1.
         -6    1    1    2    0  503  0.86745504442E+02 -0.12761033449E+03 -0.27252676458E+03  0.35778347840E+03  0.17300000000E+03 0. -1.
</event>
<event>
 4    1  0.5959403E+000  0.1000000E+03  0.7546771E-02  0.1280296E+00
         21   -1    0    0  501  502  0.00000000000E+00  0.00000000000E+00  0.87316559706E+02  0.87316559706E+02  0.00000000000E+00 0. -1.
         21   -1    0    0  502  503 -0.00000000000E+00 -0.00000000000E+00 -0.47971146483E+03  0.47971146483E+03  0.00000000000E+00 0.  1.
          6    1    1    2  501    0  0.19906303624E+02  0.86112234325E+02 -0.10699843176E+03  0.22178647890E+03  0.17300000000E+03 0. -1.
         -6    1    1    2    0  503 -0.19906303624E+02 -0.86112234325E+02 -0.28539647336E+03  0.34524154563E+03  0.17300000000E+03 0. -1.
</event>
<event>
 4    1  0.5959403E+000  0.1000000E+03  0.7546771E-02  0.1280296E+00
         21   -1    0    0  501  502  0.00000000000E+00  0.00000000000E+00  0.25592931206E+03  0.25592931206E+03  0.00000000000E+00 0. -1.
         21   -1    0    0  502  503 -0.00000000000E+00 -0.00000000000E+00 -0.32072179005E+03  0.32072179005E+03  0.00000000000E+00 0.  1.
          6    1    1    2  501    0 -0.17326252145E+03  0.66435379159E+02  0.10156685813E+03  0.27327346672E+03  0.17300000000E+03 0. -1.
         -6    1    1    2    0  503  0.17326252145E+03 -0.66435379159E+02 -0.16635933612E+03  0.30337763539E+03  0.17300000000E+03 0. -1.
</event>
<event>
 4    1  0.5959403E+000  0.1000000E+03  0.7546771E-02  0.1280296E+00
         21   -1    0    0  503  502  0.00000000000E+00  0.00000000000E+00  0.70890113454E+03  0.70890113454E+03  0.00000000000E+00 0. -1.
         21   -1    0    0  501  503 -0.00000000000E+00 -0.00000000000E+00 -0.89523799709E+02  0.89523799709E+02  0.00000000000E+00 0.  1.
          6    1    1    2  501    0 -0.10397316491E+03  0.15490358679E+02  0.54730717935E+03  0.58354478732E+03  0.17300000000E+03 0.  1.
         -6    1    1    2    0  502  0.10397316491E+03 -0.15490358679E+02  0.72070155475E+02  0.21488014693E+03  0.17300000000E+03 0. -1.
</event>
<event>
 4    1  0.5959403E+000  0.1000000E+03  0.7546771E-02  0.1280296E+00
         21   -1    0    0  501  502  0.00000000000E+00  0.00000000000E+00  0.15443864477E+03  0.15443864477E+03  0.00000000000E+00 0.  1.
         21   -1    0    0  502  503 -0.00000000000E+00 -0.00000000000E+00 -0.11590042458E+04  0.11590042458E+04  0.00000000000E+00 0.  1.
          6    1    1    2  501    0 -0.17969297830E+03 -0.14551084177E+03 -0.22332109623E+02  0.28963890388E+03  0.17300000000E+03 0.  1.
         -6    1    1    2    0  503  0.17969297830E+03  0.14551084177E+03 -0.98223349141E+03  0.10238039867E+04  0.17300000000E+03 0.  1.
</event>
<event>
 4    1  0.5959403E+000  0.1000000E+03  0.7546771E-02  0.1280296E+00
         21   -1    0    0  501  502  0.00000000000E+00  0.00000000000E+00  0.84026888919E+02  0.84026888919E+02  0.00000000000E+00 0.  1.
         21   -1    0    0  502  503 -0.00000000000E+00 -0.00000000000E+00 -0.44898436428E+03  0.44898436428E+03  0.00000000000E+00 0.  1.
          6    1    1    2  501    0  0.48962690126E+02 -0.63254103299E+02 -0.13115218187E+03  0.23136188411E+03  0.17300000000E+03 0.  1.
         -6    1    1    2    0  503 -0.48962690126E+02  0.63254103299E+02 -0.23380529350E+03  0.30164936910E+03  0.17300000000E+03 0.  1.
</event>
<event>
 4    1  0.5959403E+000  0.1000000E+03  0.7546771E-02  0.1280296E+00
         21   -1    0    0  501  502  0.00000000000E+00  0.00000000000E+00  0.92146224593E+03  0.92146224593E+03  0.00000000000E+00 0.  1.
         21   -1    0    0  502  503 -0.00000000000E+00 -0.00000000000E+00 -0.53202437774E+02  0.53202437774E+02  0.00000000000E+00 0.  1.
          6    1    1    2  501    0 -0.76378487152E+02  0.69225387208E+02  0.63668452381E+03  0.66777392162E+03  0.17300000000E+03 0.  1.
         -6    1    1    2    0  503  0.76378487152E+02 -0.69225387208E+02  0.23157528435E+03  0.30689076209E+03  0.17300000000E+03 0.  1.
</event>
<event>
 4    1  0.5959403E+000  0.1000000E+03  0.7546771E-02  0.1280296E+00
         21   -1    0    0  501  502  0.00000000000E+00  0.00000000000E+00  0.47256019604E+02  0.47256019604E+02  0.00000000000E+00 0.  1.
         21   -1    0    0  502  503 -0.00000000000E+00 -0.00000000000E+00 -0.85150470187E+03  0.85150470187E+03  0.00000000000E+00 0.  1.
          6    1    1    2  501    0 -0.66427542360E+02  0.40822668453E+02 -0.54783580047E+03  0.57976906861E+03  0.17300000000E+03 0.  1.
         -6    1    1    2    0  503  0.66427542360E+02 -0.40822668453E+02 -0.25641288180E+03  0.31899165286E+03  0.17300000000E+03 0.  1.
</event>
<event>
 4    1  0.5959403E+000  0.1000000E+03  0.7546771E-02  0.1280296E+00
         21   -1    0    0  501  502  0.00000000000E+00  0.00000000000E+00  0.30566266037E+03  0.30566266037E+03  0.00000000000E+00 0.  1.
         21   -1    0    0  502  503 -0.00000000000E+00 -0.00000000000E+00 -0.14956850181E+03  0.14956850181E+03  0.00000000000E+00 0.  1.
          6    1    1    2  501    0  0.11529893352E+03 -0.45349639401E+02  0.10032802504E+03  0.23525549191E+03  0.17300000000E+03 0.  1.
         -6    1    1    2    0  503 -0.11529893352E+03  0.45349639401E+02  0.55766133519E+02  0.21997567027E+03  0.17300000000E+03 0.  1.
</event>
<event>
 4    1  0.5959403E+000  0.1000000E+03  0.7546771E-02  0.1280296E+00
         21   -1    0    0  503  502  0.00000000000E+00  0.00000000000E+00  0.50753951388E+03  0.50753951388E+03  0.00000000000E+00 0. -1.
         21   -1    0    0  501  503 -0.00000000000E+00 -0.00000000000E+00 -0.15640515541E+03  0.15640515541E+03  0.00000000000E+00 0. -1.
          6    1    1    2  501    0  0.65021150939E+02 -0.44607538524E+02 -0.69429522286E+02  0.20240316482E+03  0.17300000000E+03 0. -1.
         -6    1    1    2    0  502 -0.65021150939E+02  0.44607538524E+02  0.42056388075E+03  0.46154150448E+03  0.17300000000E+03 0. -1.
</event>
<event>
 4    1  0.5959403E+000  0.1000000E+03  0.7546771E-02  0.1280296E+00
         21   -1    0    0  501  502  0.00000000000E+00  0.00000000000E+00  0.10223828136E+04  0.10223828136E+04  0.00000000000E+00 0. -1.
         21   -1    0    0  502  503 -0.00000000000E+00 -0.00000000000E+00 -0.12487586024E+03  0.12487586024E+03  0.00000000000E+00 0. -1.
          6    1    1    2  501    0  0.13866190643E+01  0.58525945167E+02  0.94178545357E+03  0.95933104272E+03  0.17300000000E+03 0. -1.
         -6    1    1    2    0  503 -0.13866190643E+01 -0.58525945167E+02 -0.44278500187E+02  0.18792763115E+03  0.17300000000E+03 0. -1.
</event>
<event>
 4    1  0.5959403E+000  0.1000000E+03  0.7546771E-02  0.1280296E+00
         21   -1    0    0  501  502  0.00000000000E+00  0.00000000000E+00  0.48507442179E+02  0.48507442179E+02  0.00000000000E+00 0. -1.
         21   -1    0    0  502  503 -0.00000000000E+00 -0.00000000000E+00 -0.99453764852E+03  0.99453764852E+03  0.00000000000E+00 0. -1.
          6    1    1    2  501    0  0.46546706456E+02  0.50647952984E+02 -0.19629875565E+03  0.27054391971E+03  0.17300000000E+03 0. -1.
         -6    1    1    2    0  503 -0.46546706456E+02 -0.50647952984E+02 -0.74973145069E+03  0.77250117098E+03  0.17300000000E+03 0. -1.
</event>
<event>
 4    1  0.5959403E+000  0.1000000E+03  0.7546771E-02  0.1280296E+00
         21   -1    0    0  501  502  0.00000000000E+00  0.00000000000E+00  0.14031340525E+03  0.14031340525E+03  0.00000000000E+00 0. -1.
         21   -1    0    0  502  503 -0.00000000000E+00 -0.00000000000E+00 -0.36275121815E+03  0.36275121815E+03  0.00000000000E+00 0. -1.
          6    1    1    2  501    0  0.86935475268E+02  0.99486250227E+02 -0.45122823130E+02  0.22230690500E+03  0.17300000000E+03 0. -1.
         -6    1    1    2    0  503 -0.86935475268E+02 -0.99486250227E+02 -0.17731498977E+03  0.28075771840E+03  0.17300000000E+03 0. -1.
</event>
<event>
 4    1  0.5959403E+000  0.1000000E+03  0.7546771E-02  0.1280296E+00
         21   -1    0    0  503  502  0.00000000000E+00  0.00000000000E+00  0.13181490650E+03  0.13181490650E+03  0.00000000000E+00 0.  1.
         21   -1    0    0  501  503 -0.00000000000E+00 -0.00000000000E+00 -0.71755199184E+03  0.71755199184E+03  0.00000000000E+00 0.  1.
          6    1    1    2  501    0  0.22168017608E+03  0.77092145204E+02 -0.42795339995E+03  0.51784014121E+03  0.17300000000E+03 0.  1.
         -6    1    1    2    0  502 -0.22168017608E+03 -0.77092145204E+02 -0.15778368538E+03  0.33152675713E+03  0.17300000000E+03 0.  1.
</event>
<event>
 4    1  0.5959403E+000  0.1000000E+03  0.7546771E-02  0.1280296E+00
         21   -1    0    0  503  502  0.00000000000E+00  0.00000000000E+00  0.94809846458E+03  0.94809846458E+03  0.00000000000E+00 0.  1.
         21   -1    0    0  501  503 -0.00000000000E+00 -0.00000000000E+00 -0.14102644260E+03  0.14102644260E+03  0.00000000000E+00 0.  1.
          6    1    1    2  501    0  0.40783021515E+02 -0.26823977470E+03  0.14489246591E+03  0.35290035173E+03  0.17300000000E+03 0.  1.
         -6    1    1    2    0  502 -0.40783021515E+02  0.26823977470E+03  0.66217955607E+03  0.73622455545E+03  0.17300000000E+03 0.  1.
</event>
<event>
 4    1  0.5959403E+000  0.1000000E+03  0.7546771E-02  0.1280296E+00
         21   -1    0    0  503  502  0.00000000000E+00  0.00000000000E+00  0.45736920308E+03  0.45736920308E+03  0.00000000000E+00 0. -1.
         21   -1    0    0  501  503 -0.00000000000E+00 -0.00000000000E+00 -0.10493449169E+03  0.10493449169E+03  0.00000000000E+00 0. -1.
          6    1    1    2  501    0 -0.15222511235E+02 -0.12582325701E+03  0.11880099069E+03  0.24516503062E+03  0.17300000000E+03 0. -1.
         -6    1    1    2    0  502  0.15222511235E+02  0.12582325701E+03  0.23363372070E+03  0.31713866415E+03  0.17300000000E+03 0. -1.
</event>
<event>
 4    1  0.5959403E+000  0.1000000E+03  0.7546771E-02  0.1280296E+00
         21   -1    0    0  503  502  0.00000000000E+00  0.00000000000E+00  0.55586087499E+03  0.55586087499E+03  0.00000000000E+00 0. -1.
         21   -1    0    0  501  503 -0.00000000000E+00 -0.00000000000E+00 -0.59756363780E+02  0.59756363780E+02  0.00000000000E+00 0. -1.
          6    1    1    2  501    0 -0.47112305876E+02  0.30814693805E+02  0.22969748917E+03  0.29301715180E+03  0.17300000000E+03 0. -1.
         -6    1    1    2    0  502  0.47112305876E+02 -0.30814693805E+02  0.26640702205E+03  0.32260008697E+03  0.17300000000E+03 0. -1.
</event>
<event>
 4    1  0.5959403E+000  0.1000000E+03  0.7546771E-02  0.1280296E+00
         21   -1    0    0  503  502  0.00000000000E+00  0.00000000000E+00  0.55397146252E+02  0.55397146252E+02  0.00000000000E+00 0.  1.
         21   -1    0    0  501  503 -0.00000000000E+00 -0.00000000000E+00 -0.57176306727E+03  0.57176306727E+03  0.00000000000E+00 0.  1.
          6    1    1    2  501    0 -0.28300397399E+02  0.59799153777E+01 -0.31128708333E+03  0.35730284092E+03  0.17300000000E+03 0.  1.
         -6    1    1    2    0  502  0.28300397399E+02 -0.59799153777E+01 -0.20507883769E+03  0.26985737260E+03  0.17300000000E+03 0.  1.
</event>
<event>
 4    1  0.5959403E+000  0.1000000E+03  0.7546771E-02  0.1280296E+00
         21   -1    0    0  501  502  0.00000000000E+00  0.00000000000E+00  0.10191273974E+03  0.10191273974E+03  0.00000000000E+00 0.  1.
         21   -1    0    0  502  503 -0.00000000000E+00 -0.00000000000E+00 -0.15590422916E+04  0.15590422916E+04  0.00000000000E+00 0.  1.
          6    1    1    2  501    0 -0.63792283044E+02  0.43556848331E+01  0.76622193520E+01  0.18459722905E+03  0.17300000000E+03 0. -1.
         -6    1    1    2    0  503  0.63792283044E+02 -0.43556848331E+01 -0.14647917712E+04  0.14763578023E+04  0.17300000000E+03 0. -1.
</event>
<event>
 4    1  0.5959403E+000  0.1000000E+03  0.7546771E-02  0.1280296E+00
         21   -1    0    0  501  502  0.00000000000E+00  0.00000000000E+00  0.12557718859E+04  0.12557718859E+04  0.00000000000E+00 0. -1.
         21   -1    0    0  502  503 -0.00000000000E+00 -0.00000000000E+00 -0.64722914687E+02  0.64722914687E+02  0.00000000000E+00 0.  1.
          6    1    1    2  501    0 -0.10364472998E+03 -0.19468195178E+03  0.71597255447E+03  0.76888815256E+03  0.17300000000E+03 0. -1.
         -6    1    1    2    0  503  0.10364472998E+03  0.19468195178E+03  0.47507641677E+03  0.55160664805E+03  0.17300000000E+03 0.  1.
</event>
<event>
 4    1  0.5959403E+000  0.1000000E+03  0.7546771E-02  0.1280296E+00
         21   -1    0    0  501  502  0.00000000000E+00  0.00000000000E+00  0.42050915140E+03  0.42050915140E+03  0.00000000000E+00 0. -1.
         21   -1    0    0  502  503 -0.00000000000E+00 -0.00000000000E+00 -0.37539658642E+03  0.37539658642E+03  0.00000000000E+00 0.  1.
          6    1    1    2  501    0  0.18946617723E+01  0.12830219910E+03  0.35695561075E+03  0.41690688658E+03  0.17300000000E+03 0. -1.
         -6    1    1    2    0  503 -0.18946617723E+01 -0.12830219910E+03 -0.31184304577E+03  0.37899885123E+03  0.17300000000E+03 0.  1.
</event>
<event>
 4    1  0.5959403E+000  0.1000000E+03  0.7546771E-02  0.1280296E+00
         21   -1    0    0  501  502  0.00000000000E+00  0.00000000000E+00  0.28232036755E+03  0.28232036755E+03  0.00000000000E+00 0. -1.
         21   -1    0    0  502  503 -0.00000000000E+00 -0.00000000000E+00 -0.48320152186E+03  0.48320152186E+03  0.00000000000E+00 0.  1.
          6    1    1    2  501    0  0.27479583457E+03  0.16068334747E+03 -0.26022218952E+02  0.36323276935E+03  0.17300000000E+03 0. -1.
         -6    1    1    2    0  503 -0.27479583457E+03 -0.16068334747E+03 -0.17485893536E+03  0.40228912007E+03  0.17300000000E+03 0.  1.
</event>
<event>
 4    1  0.5959403E+000  0.1000000E+03  0.7546771E-02  0.1280296E+00
         21   -1    0    0  501  502  0.00000000000E+00  0.00000000000E+00  0.61993544096E+03  0.61993544096E+03  0.00000000000E+00 0.  1.
         21   -1    0    0  502  503 -0.00000000000E+00 -0.00000000000E+00 -0.16366297245E+03  0.16366297245E+03  0.00000000000E+00 0. -1.
          6    1    1    2  501    0  0.95581812907E+02  0.17338419362E+03  0.44931405019E+03  0.52058628224E+03  0.17300000000E+03 0.  1.
         -6    1    1    2    0  503 -0.95581812907E+02 -0.17338419362E+03  0.69584183196E+01  0.26301213117E+03  0.17300000000E+03 0. -1.
</event>
<event>
 4    1  0.5959403E+000  0.1000000E+03  0.7546771E-02  0.1280296E+00
         21   -1    0    0  501  502  0.00000000000E+00  0.00000000000E+00  0.29075123951E+02  0.29075123951E+02  0.00000000000E+00 0.  1.
         21   -1    0    0  502  503 -0.00000000000E+00 -0.00000000000E+00 -0.15486420286E+04  0.15486420286E+04  0.00000000000E+00 0. -1.
          6    1    1    2  501    0 -0.52585389119E+02 -0.21112472026E+02 -0.35446258610E+03  0.39847670518E+03  0.17300000000E+03 0.  1.
         -6    1    1    2    0  503  0.52585389119E+02  0.21112472026E+02 -0.11651043186E+04  0.11792404474E+04  0.17300000000E+03 0. -1.
</event>
<event>
 4    1  0.5959403E+000  0.1000000E+03  0.7546771E-02  0.1280296E+00
         21   -1    0    0  501  502  0.00000000000E+00  0.00000000000E+00  0.14671869244E+03  0.14671869244E+03  0.00000000000E+00 0.  1.
         21   -1    0    0  502  503 -0.00000000000E+00 -0.00000000000E+00 -0.25767280956E+03  0.25767280956E+03  0.00000000000E+00 0.  1.
          6    1    1    2  501    0 -0.10265810857E+02  0.89292476162E+00  0.36189734887E+02  0.17704485618E+03  0.17300000000E+03 0.  1.
         -6    1    1    2    0  503  0.10265810857E+02 -0.89292476162E+00 -0.14714385200E+03  0.22734664583E+03  0.17300000000E+03 0.  1.
</event>
<event>
 4    1  0.5959403E+000  0.1000000E+03  0.7546771E-02  0.1280296E+00
         21   -1    0    0  503  502  0.00000000000E+00  0.00000000000E+00  0.59152365099E+02  0.59152365099E+02  0.00000000000E+00 0. -1.
         21   -1    0    0  501  503 -0.00000000000E+00 -0.00000000000E+00 -0.57159166024E+03  0.57159166024E+03  0.00000000000E+00 0.  1.
          6    1    1    2  501    0  0.20077934136E+02  0.15535560432E+01 -0.35734565689E+03  0.39753044597E+03  0.17300000000E+03 0. -1.
         -6    1    1    2    0  502 -0.20077934136E+02 -0.15535560432E+01 -0.15509363825E+03  0.23321357937E+03  0.17300000000E+03 0. -1.
</event>
<event>
 4    1  0.5959403E+000  0.1000000E+03  0.7546771E-02  0.1280296E+00
         21   -1    0    0  503  502  0.00000000000E+00  0.00000000000E+00  0.24939616792E+04  0.24939616792E+04  0.00000000000E+00 0. -1.
         21   -1    0    0  501  503 -0.00000000000E+00 -0.00000000000E+00 -0.14922353435E+02  0.14922353435E+02  0.00000000000E+00 0.  1.
          6    1    1    2  501    0 -0.75838664231E+02  0.24984609583E+02  0.10432484076E+04  0.10605055274E+04  0.17300000000E+03 0.  1.
         -6    1    1    2    0  502  0.75838664231E+02 -0.24984609583E+02  0.14357909182E+04  0.14483785052E+04  0.17300000000E+03 0. -1.
</event>
<event>
 4    1  0.5959403E+000  0.1000000E+03  0.7546771E-02  0.1280296E+00
         21   -1    0    0  501  502  0.00000000000E+00  0.00000000000E+00  0.36707652164E+03  0.36707652164E+03  0.00000000000E+00 0.  1.
         21   -1    0    0  502  503 -0.00000000000E+00 -0.00000000000E+00 -0.11936315371E+03  0.11936315371E+03  0.00000000000E+00 0.  1.
          6    1    1    2  501    0  0.60537882401E+01  0.24590215768E+01  0.26057033789E+03  0.31283956931E+03  0.17300000000E+03 0.  1.
         -6    1    1    2    0  503 -0.60537882401E+01 -0.24590215768E+01 -0.12856969961E+02  0.17360010604E+03  0.17300000000E+03 0.  1.
</event>
<event>
 4    1  0.5959403E+000  0.1000000E+03  0.7546771E-02  0.1280296E+00
         21   -1    0    0  501  502  0.00000000000E+00  0.00000000000E+00  0.22728562175E+03  0.22728562175E+03  0.00000000000E+00 0.  1.
         21   -1    0    0  502  503 -0.00000000000E+00 -0.00000000000E+00 -0.17431639965E+03  0.17431639965E+03  0.00000000000E+00 0.  1.
          6    1    1    2  501    0  0.32384977523E+02 -0.35977768576E+02  0.11295717986E+03  0.21220629369E+03  0.17300000000E+03 0.  1.
         -6    1    1    2    0  503 -0.32384977523E+02  0.35977768576E+02 -0.59987957755E+02  0.18939572771E+03  0.17300000000E+03 0.  1.
</event>
<event>
 4    1  0.5959403E+000  0.1000000E+03  0.7546771E-02  0.1280296E+00
         21   -1    0    0  503  502  0.00000000000E+00  0.00000000000E+00  0.37003268704E+03  0.37003268704E+03  0.00000000000E+00 0.  1.
         21   -1    0    0  501  503 -0.00000000000E+00 -0.00000000000E+00 -0.33564216592E+03  0.33564216592E+03  0.00000000000E+00 0. -1.
          6    1    1    2  501    0 -0.49467273978E+02 -0.12973844589E+03 -0.25697444115E+03  0.33947597697E+03  0.17300000000E+03 0.  1.
         -6    1    1    2    0  502  0.49467273978E+02  0.12973844589E+03  0.29136496227E+03  0.36619887599E+03  0.17300000000E+03 0. -1.
</event>
<event>
 4    1  0.5959403E+000  0.1000000E+03  0.7546771E-02  0.1280296E+00
         21   -1    0    0  503  502  0.00000000000E+00  0.00000000000E+00  0.67646548703E+03  0.67646548703E+03  0.00000000000E+00 0.  1.
         21   -1    0    0  501  503 -0.00000000000E+00 -0.00000000000E+00 -0.18544830892E+03  0.18544830892E+03  0.00000000000E+00 0. -1.
          6    1    1    2  501    0  0.20536234404E+03  0.23067801214E+03  0.25961144456E+03  0.43899104750E+03  0.17300000000E+03 0.  1.
         -6    1    1    2    0  502 -0.20536234404E+03 -0.23067801214E+03  0.23140573356E+03  0.42292274845E+03  0.17300000000E+03 0. -1.
</event>
<event>
 4    1  0.5959403E+000  0.1000000E+03  0.7546771E-02  0.1280296E+00
         21   -1    0    0  503  502  0.00000000000E+00  0.00000000000E+00  0.44297251665E+03  0.44297251665E+03  0.00000000000E+00 0.  1.
         21   -1    0    0  501  503 -0.00000000000E+00 -0.00000000000E+00 -0.95945782023E+02  0.95945782023E+02  0.00000000000E+00 0.  1.
          6    1    1    2  501    0 -0.13236783405E+02 -0.10240264752E+03  0.11637831745E+03  0.23266806276E+03  0.17300000000E+03 0.  1.
         -6    1    1    2    0  502  0.13236783405E+02  0.10240264752E+03  0.23064841718E+03  0.30625023592E+03  0.17300000000E+03 0.  1.
</event>
<event>
 4    1  0.5959403E+000  0.1000000E+03  0.7546771E-02  0.1280296E+00
         21   -1    0    0  503  502  0.00000000000E+00  0.00000000000E+00  0.77463313846E+02  0.77463313846E+02  0.00000000000E+00 0.  1.
         21   -1    0    0  501  503 -0.00000000000E+00 -0.00000000000E+00 -0.50508086251E+03  0.50508086251E+03  0.00000000000E+00 0.  1.
          6    1    1    2  501    0 -0.16581282125E+02  0.39692981862E+02 -0.34001736322E+03  0.38391571863E+03  0.17300000000E+03 0.  1.
         -6    1    1    2    0  502  0.16581282125E+02 -0.39692981862E+02 -0.87600185445E+02  0.19862845772E+03  0.17300000000E+03 0.  1.
</event>
<event>
 4    1  0.5959403E+000  0.1000000E+03  0.7546771E-02  0.1280296E+00
         21   -1    0    0  503  502  0.00000000000E+00  0.00000000000E+00  0.53182103899E+02  0.53182103899E+02  0.00000000000E+00 0.  1.
         21   -1    0    0  501  503 -0.00000000000E+00 -0.00000000000E+00 -0.64558567696E+03  0.64558567696E+03  0.00000000000E+00 0.  1.
          6    1    1    2  501    0  0.64048434447E+02 -0.14986396033E+02 -0.31283447119E+03  0.36348480076E+03  0.17300000000E+03 0.  1.
         -6    1    1    2    0  502 -0.64048434447E+02  0.14986396033E+02 -0.27956910187E+03  0.33528298010E+03  0.17300000000E+03 0.  1.
</event>
<event>
 4    1  0.5959403E+000  0.1000000E+03  0.7546771E-02  0.1280296E+00
         21   -1    0    0  503  502  0.00000000000E+00  0.00000000000E+00  0.86075383257E+03  0.86075383257E+03  0.00000000000E+00 0.  1.
         21   -1    0    0  501  503 -0.00000000000E+00 -0.00000000000E+00 -0.51418096022E+02  0.51418096022E+02  0.00000000000E+00 0.  1.
          6    1    1    2  501    0 -0.34685079624E+02  0.10986933008E+03  0.33425124312E+03  0.39360794957E+03  0.17300000000E+03 0.  1.
         -6    1    1    2    0  502  0.34685079624E+02 -0.10986933008E+03  0.47508449344E+03  0.51856397903E+03  0.17300000000E+03 0.  1.
</event>
<event>
 4    1  0.5959403E+000  0.1000000E+03  0.7546771E-02  0.1280296E+00
         21   -1    0    0  501  502  0.00000000000E+00  0.00000000000E+00  0.50825629740E+03  0.50825629740E+03  0.00000000000E+00 0.  1.
         21   -1    0    0  502  503 -0.00000000000E+00 -0.00000000000E+00 -0.79868394755E+02  0.79868394755E+02  0.00000000000E+00 0.  1.
          6    1    1    2  501    0  0.29619939800E+02 -0.93125698189E+02  0.26292707485E+03  0.32955937733E+03  0.17300000000E+03 0.  1.
         -6    1    1    2    0  503 -0.29619939800E+02  0.93125698189E+02  0.16546082780E+03  0.25856531483E+03  0.17300000000E+03 0.  1.
</event>
<event>
 4    1  0.5959403E+000  0.1000000E+03  0.7546771E-02  0.1280296E+00
         21   -1    0    0  501  502  0.00000000000E+00  0.00000000000E+00  0.31387966977E+03  0.31387966977E+03  0.00000000000E+00 0.  1.
         21   -1    0    0  502  503 -0.00000000000E+00 -0.00000000000E+00 -0.10918673147E+03  0.10918673147E+03  0.00000000000E+00 0.  1.
          6    1    1    2  501    0  0.59766723980E+02  0.84514383332E+01  0.13255661429E+03  0.22614982666E+03  0.17300000000E+03 0.  1.
         -6    1    1    2    0  503 -0.59766723980E+02 -0.84514383332E+01  0.72136324013E+02  0.19691657459E+03  0.17300000000E+03 0.  1.
</event>
<event>
 4    1  0.5959403E+000  0.1000000E+03  0.7546771E-02  0.1280296E+00
         21   -1    0    0  501  502  0.00000000000E+00  0.00000000000E+00  0.23514090462E+03  0.23514090462E+03  0.00000000000E+00 0.  1.
         21   -1    0    0  502  503 -0.00000000000E+00 -0.00000000000E+00 -0.24025226678E+03  0.24025226678E+03  0.00000000000E+00 0.  1.
          6    1    1    2  501    0 -0.34089674010E+02  0.37834637292E+02  0.15227758755E+03  0.23603183964E+03  0.17300000000E+03 0.  1.
         -6    1    1    2    0  503  0.34089674010E+02 -0.37834637292E+02 -0.15738894971E+03  0.23936133176E+03  0.17300000000E+03 0.  1.
</event>
<event>
 4    1  0.5959403E+000  0.1000000E+03  0.7546771E-02  0.1280296E+00
         21   -1    0    0  503  502  0.00000000000E+00  0.00000000000E+00  0.94955465901E+02  0.94955465901E+02  0.00000000000E+00 0. -1.
         21   -1    0    0  501  503 -0.00000000000E+00 -0.00000000000E+00 -0.65670529823E+03  0.65670529823E+03  0.00000000000E+00 0. -1.
          6    1    1    2  501    0 -0.12321306449E+03 -0.15627748709E+02 -0.47712521864E+03  0.52249704310E+03  0.17300000000E+03 0.  1.
         -6    1    1    2    0  502  0.12321306449E+03  0.15627748709E+02 -0.84624613686E+02  0.22916372102E+03  0.17300000000E+03 0.  1.
</event>
<event>
 4    1  0.5959403E+000  0.1000000E+03  0.7546771E-02  0.1280296E+00
         21   -1    0    0  503  502  0.00000000000E+00  0.00000000000E+00  0.43742209525E+02  0.43742209525E+02  0.00000000000E+00 0. -1.
         21   -1    0    0  501  503 -0.00000000000E+00 -0.00000000000E+00 -0.10227455961E+04  0.10227455961E+04  0.00000000000E+00 0. -1.
          6    1    1    2  501    0 -0.10708303558E+03 -0.27912916781E+02 -0.61711678443E+03  0.65039067725E+03  0.17300000000E+03 0.  1.
         -6    1    1    2    0  502  0.10708303558E+03  0.27912916781E+02 -0.36188660218E+03  0.41609712840E+03  0.17300000000E+03 0.  1.
</event>
<event>
 4    1  0.5959403E+000  0.1000000E+03  0.7546771E-02  0.1280296E+00
         21   -1    0    0  503  502  0.00000000000E+00  0.00000000000E+00  0.13063814998E+03  0.13063814998E+03  0.00000000000E+00 0.  1.
         21   -1    0    0  501  503 -0.00000000000E+00 -0.00000000000E+00 -0.62181499490E+03  0.62181499490E+03  0.00000000000E+00 0.  1.
          6    1    1    2  501    0  0.10751262704E+03 -0.55943746919E+02 -0.49817712918E+03  0.54110823301E+03  0.17300000000E+03 0.  1.
         -6    1    1    2    0  502 -0.10751262704E+03  0.55943746919E+02  0.70002842568E+01  0.21134491187E+03  0.17300000000E+03 0.  1.
</event>
<event>
 4    1  0.5959403E+000  0.1000000E+03  0.7546771E-02  0.1280296E+00
         21   -1    0    0  503  502  0.00000000000E+00  0.00000000000E+00  0.77602254109E+02  0.77602254109E+02  0.00000000000E+00 0.  1.
         21   -1    0    0  501  503 -0.00000000000E+00 -0.00000000000E+00 -0.50802070811E+03  0.50802070811E+03  0.00000000000E+00 0.  1.
          6    1    1    2  501    0  0.51946676083E+02  0.62985048349E+02 -0.29364696437E+03  0.35046128624E+03  0.17300000000E+03 0.  1.
         -6    1    1    2    0  502 -0.51946676083E+02 -0.62985048349E+02 -0.13677148963E+03  0.23516167598E+03  0.17300000000E+03 0.  1.
</event>
<event>
 4    1  0.5959403E+000  0.1000000E+03  0.7546771E-02  0.1280296E+00
         21   -1    0    0  501  502  0.00000000000E+00  0.00000000000E+00  0.66157599160E+02  0.66157599160E+02  0.00000000000E+00 0. -1.
         21   -1    0    0  502  503 -0.00000000000E+00 -0.00000000000E+00 -0.99677773906E+03  0.99677773906E+03  0.00000000000E+00 0.  1.
          6    1    1    2  501    0 -0.15463822513E+03  0.91531423596E+02 -0.33900572111E+03  0.42088580532E+03  0.17300000000E+03 0. -1.
         -6    1    1    2    0  503  0.15463822513E+03 -0.91531423596E+02 -0.59161441879E+03  0.64204953290E+03  0.17300000000E+03 0.  1.
</event>
<event>
 4    1  0.5959403E+000  0.1000000E+03  0.7546771E-02  0.1280296E+00
         21   -1    0    0  501  502  0.00000000000E+00  0.00000000000E+00  0.86991501793E+03  0.86991501793E+03  0.00000000000E+00 0. -1.
         21   -1    0    0  502  503 -0.00000000000E+00 -0.00000000000E+00 -0.23497632796E+03  0.23497632796E+03  0.00000000000E+00 0.  1.
          6    1    1    2  501    0 -0.64102677078E+02  0.45225058701E+02  0.81878893775E+03  0.84053482005E+03  0.17300000000E+03 0. -1.
         -6    1    1    2    0  503  0.64102677078E+02 -0.45225058701E+02 -0.18385024777E+03  0.26435652583E+03  0.17300000000E+03 0.  1.
</event>
<event>
 4    1  0.5959403E+000  0.1000000E+03  0.7546771E-02  0.1280296E+00
         21   -1    0    0  501  502  0.00000000000E+00  0.00000000000E+00  0.13380126080E+03  0.13380126080E+03  0.00000000000E+00 0. -1.
         21   -1    0    0  502  503 -0.00000000000E+00 -0.00000000000E+00 -0.15325277289E+04  0.15325277289E+04  0.00000000000E+00 0.  1.
          6    1    1    2  501    0  0.40696059689E+02  0.16458902425E+03  0.45781552392E+01  0.24227190445E+03  0.17300000000E+03 0. -1.
         -6    1    1    2    0  503 -0.40696059689E+02 -0.16458902425E+03 -0.14033046233E+04  0.14240570853E+04  0.17300000000E+03 0.  1.
</event>
<event>
 4    1  0.5959403E+000  0.1000000E+03  0.7546771E-02  0.1280296E+00
         21   -1    0    0  501  502  0.00000000000E+00  0.00000000000E+00  0.14495032402E+04  0.14495032402E+04  0.00000000000E+00 0.  1.
         21   -1    0    0  502  503 -0.00000000000E+00 -0.00000000000E+00 -0.92907469012E+03  0.92907469012E+03  0.00000000000E+00 0. -1.
          6    1    1    2  501    0  0.21102279287E+03 -0.15779296031E+03  0.14047903127E+04  0.14397201325E+04  0.17300000000E+03 0.  1.
         -6    1    1    2    0  503 -0.21102279287E+03  0.15779296031E+03 -0.88436176257E+03  0.93885779782E+03  0.17300000000E+03 0. -1.
</event>
<event>
 4    1  0.5959403E+000  0.1000000E+03  0.7546771E-02  0.1280296E+00
         21   -1    0    0  501  502  0.00000000000E+00  0.00000000000E+00  0.11307352107E+03  0.11307352107E+03  0.00000000000E+00 0.  1.
         21   -1    0    0  502  503 -0.00000000000E+00 -0.00000000000E+00 -0.41751130697E+03  0.41751130697E+03  0.00000000000E+00 0. -1.
          6    1    1    2  501    0  0.14771048064E+02 -0.56482241184E+02 -0.84117311640E+01  0.18277905966E+03  0.17300000000E+03 0.  1.
         -6    1    1    2    0  503 -0.14771048064E+02  0.56482241184E+02 -0.29602605474E+03  0.34780576837E+03  0.17300000000E+03 0. -1.
</event>
<event>
 4    1  0.5959403E+000  0.1000000E+03  0.7546771E-02  0.1280296E+00
         21   -1    0    0  501  502  0.00000000000E+00  0.00000000000E+00  0.89953481284E+02  0.89953481284E+02  0.00000000000E+00 0.  1.
         21   -1    0    0  502  503 -0.00000000000E+00 -0.00000000000E+00 -0.54058694691E+03  0.54058694691E+03  0.00000000000E+00 0. -1.
          6    1    1    2  501    0  0.10457283318E+03  0.21367895059E+02 -0.10310884392E+03  0.22793090636E+03  0.17300000000E+03 0.  1.
         -6    1    1    2    0  503 -0.10457283318E+03 -0.21367895059E+02 -0.34752462170E+03  0.40260952183E+03  0.17300000000E+03 0. -1.
</event>
<event>
 4    1  0.5959403E+000  0.1000000E+03  0.7546771E-02  0.1280296E+00
         21   -1    0    0  503  502  0.00000000000E+00  0.00000000000E+00  0.10113249151E+03  0.10113249151E+03  0.00000000000E+00 0. -1.
         21   -1    0    0  501  503 -0.00000000000E+00 -0.00000000000E+00 -0.50924771464E+03  0.50924771464E+03  0.00000000000E+00 0. -1.
          6    1    1    2  501    0 -0.14071594236E+03  0.39481055424E+02 -0.18444183332E+03  0.29207451112E+03  0.17300000000E+03 0. -1.
         -6    1    1    2    0  502  0.14071594236E+03 -0.39481055424E+02 -0.22367338981E+03  0.31830569502E+03  0.17300000000E+03 0. -1.
</event>
<event>
 4    1  0.5959403E+000  0.1000000E+03  0.7546771E-02  0.1280296E+00
         21   -1    0    0  503  502  0.00000000000E+00  0.00000000000E+00  0.22487498386E+03  0.22487498386E+03  0.00000000000E+00 0.  1.
         21   -1    0    0  501  503 -0.00000000000E+00 -0.00000000000E+00 -0.54164533592E+03  0.54164533592E+03  0.00000000000E+00 0.  1.
          6    1    1    2  501    0  0.18936714172E+03  0.76615943143E+02 -0.40429349513E+03  0.48488364306E+03  0.17300000000E+03 0.  1.
         -6    1    1    2    0  502 -0.18936714172E+03 -0.76615943143E+02  0.87523143067E+02  0.28163667673E+03  0.17300000000E+03 0.  1.
</event>
<event>
 4    1  0.5959403E+000  0.1000000E+03  0.7546771E-02  0.1280296E+00
         21   -1    0    0  501  502  0.00000000000E+00  0.00000000000E+00  0.63777703385E+03  0.63777703385E+03  0.00000000000E+00 0.  1.
         21   -1    0    0  502  503 -0.00000000000E+00 -0.00000000000E+00 -0.30923598875E+03  0.30923598875E+03  0.00000000000E+00 0.  1.
          6    1    1    2  501    0  0.35466955085E+03  0.10877036267E+03  0.34793627321E+03  0.53722447106E+03  0.17300000000E+03 0.  1.
         -6    1    1    2    0  503 -0.35466955085E+03 -0.10877036267E+03 -0.19395228101E+02  0.40978855154E+03  0.17300000000E+03 0.  1.
</event>
<event>
 4    1  0.5959403E+000  0.1000000E+03  0.7546771E-02  0.1280296E+00
         21   -1    0    0  501  502  0.00000000000E+00  0.00000000000E+00  0.81355946365E+03  0.81355946365E+03  0.00000000000E+00 0.  1.
         21   -1    0    0  502  503 -0.00000000000E+00 -0.00000000000E+00 -0.71094099985E+02  0.71094099985E+02  0.00000000000E+00 0. -1.
          6    1    1    2  501    0 -0.44782669229E+02  0.13117745941E+02  0.66626840968E+03  0.68994213994E+03  0.17300000000E+03 0. -1.
         -6    1    1    2    0  503  0.44782669229E+02 -0.13117745941E+02  0.76196953983E+02  0.19471142370E+03  0.17300000000E+03 0.  1.
</event>
<event>
 4    1  0.5959403E+000  0.1000000E+03  0.7546771E-02  0.1280296E+00
         21   -1    0    0  503  502  0.00000000000E+00  0.00000000000E+00  0.96986902892E+03  0.96986902892E+03  0.00000000000E+00 0.  1.
         21   -1    0    0  501  503 -0.00000000000E+00 -0.00000000000E+00 -0.34403780466E+02  0.34403780466E+02  0.00000000000E+00 0.  1.
          6    1    1    2  501    0 -0.17654549700E+02 -0.34288590324E+02  0.34631962705E+03  0.38904199597E+03  0.17300000000E+03 0.  1.
         -6    1    1    2    0  502  0.17654549700E+02  0.34288590324E+02  0.58914562141E+03  0.61523081341E+03  0.17300000000E+03 0.  1.
</event>
<event>
 4    1  0.5959403E+000  0.1000000E+03  0.7546771E-02  0.1280296E+00
         21   -1    0    0  503  502  0.00000000000E+00  0.00000000000E+00  0.17074848663E+04  0.17074848663E+04  0.00000000000E+00 0.  1.
         21   -1    0    0  501  503 -0.00000000000E+00 -0.00000000000E+00 -0.22903423676E+02  0.22903423676E+02  0.00000000000E+00 0.  1.
          6    1    1    2  501    0  0.19042917667E+02  0.31297738461E+02  0.45500272247E+03  0.48815843596E+03  0.17300000000E+03 0.  1.
         -6    1    1    2    0  502 -0.19042917667E+02 -0.31297738461E+02  0.12295787201E+04  0.12422298540E+04  0.17300000000E+03 0.  1.
</event>
<event>
 4    1  0.5959403E+000  0.1000000E+03  0.7546771E-02  0.1280296E+00
         21   -1    0    0  501  502  0.00000000000E+00  0.00000000000E+00  0.12538779957E+03  0.12538779957E+03  0.00000000000E+00 0. -1.
         21   -1    0    0  502  503 -0.00000000000E+00 -0.00000000000E+00 -0.31937556736E+03  0.31937556736E+03  0.00000000000E+00 0. -1.
          6    1    1    2  501    0  0.98502322981E+02 -0.15997757241E+02 -0.11096959823E+03  0.22847732404E+03  0.17300000000E+03 0. -1.
         -6    1    1    2    0  503 -0.98502322981E+02  0.15997757241E+02 -0.83018169563E+02  0.21628604289E+03  0.17300000000E+03 0. -1.
</event>
<event>
 4    1  0.5959403E+000  0.1000000E+03  0.7546771E-02  0.1280296E+00
         21   -1    0    0  503  502  0.00000000000E+00  0.00000000000E+00  0.14371131374E+03  0.14371131374E+03  0.00000000000E+00 0. -1.
         21   -1    0    0  501  503 -0.00000000000E+00 -0.00000000000E+00 -0.64079099971E+03  0.64079099971E+03  0.00000000000E+00 0. -1.
          6    1    1    2  501    0  0.70133275526E+02  0.20963320673E+03 -0.39758137789E+03  0.48668748674E+03  0.17300000000E+03 0. -1.
         -6    1    1    2    0  502 -0.70133275526E+02 -0.20963320673E+03 -0.99498308085E+02  0.29781482671E+03  0.17300000000E+03 0. -1.
</event>
<event>
 4    1  0.5959403E+000  0.1000000E+03  0.7546771E-02  0.1280296E+00
         21   -1    0    0  503  502  0.00000000000E+00  0.00000000000E+00  0.18442380811E+04  0.18442380811E+04  0.00000000000E+00 0. -1.
         21   -1    0    0  501  503 -0.00000000000E+00 -0.00000000000E+00 -0.17721629719E+03  0.17721629719E+03  0.00000000000E+00 0. -1.
          6    1    1    2  501    0  0.35431689485E+03  0.19189475145E+03  0.18503645563E+03  0.47595330393E+03  0.17300000000E+03 0. -1.
         -6    1    1    2    0  502 -0.35431689485E+03 -0.19189475145E+03  0.14819853282E+04  0.15455010743E+04  0.17300000000E+03 0. -1.
</event>
<event>
 4    1  0.5959403E+000  0.1000000E+03  0.7546771E-02  0.1280296E+00
         21   -1    0    0  503  502  0.00000000000E+00  0.00000000000E+00  0.70303926435E+03  0.70303926435E+03  0.00000000000E+00 0.  1.
         21   -1    0    0  501  503 -0.00000000000E+00 -0.00000000000E+00 -0.10796526145E+03  0.10796526145E+03  0.00000000000E+00 0. -1.
          6    1    1    2  501    0  0.16466974144E+03  0.22423182589E+02  0.98125935418E+02  0.25918453284E+03  0.17300000000E+03 0.  1.
         -6    1    1    2    0  502 -0.16466974144E+03 -0.22423182589E+02  0.49694806748E+03  0.55181999296E+03  0.17300000000E+03 0. -1.
</event>
<event>
 4    1  0.5959403E+000  0.1000000E+03  0.7546771E-02  0.1280296E+00
         21   -1    0    0  503  502  0.00000000000E+00  0.00000000000E+00  0.55622212376E+03  0.55622212376E+03  0.00000000000E+00 0.  1.
         21   -1    0    0  501  503 -0.00000000000E+00 -0.00000000000E+00 -0.20357354937E+03  0.20357354937E+03  0.00000000000E+00 0. -1.
          6    1    1    2  501    0 -0.18512236265E+03 -0.79802650117E+02 -0.56868242313E+02  0.27166477339E+03  0.17300000000E+03 0.  1.
         -6    1    1    2    0  502  0.18512236265E+03  0.79802650117E+02  0.40951681669E+03  0.48813089973E+03  0.17300000000E+03 0. -1.
</event>
<event>
 4    1  0.5959403E+000  0.1000000E+03  0.7546771E-02  0.1280296E+00
         21   -1    0    0  503  502  0.00000000000E+00  0.00000000000E+00  0.35573822237E+03  0.35573822237E+03  0.00000000000E+00 0.  1.
         21   -1    0    0  501  503 -0.00000000000E+00 -0.00000000000E+00 -0.92450175924E+02  0.92450175924E+02  0.00000000000E+00 0. -1.
          6    1    1    2  501    0  0.25427179036E+02 -0.34377771377E+02  0.90092878468E+02  0.19968500031E+03  0.17300000000E+03 0.  1.
         -6    1    1    2    0  502 -0.25427179036E+02  0.34377771377E+02  0.17319516798E+03  0.24850339799E+03  0.17300000000E+03 0. -1.
</event>
<event>
 4    1  0.5959403E+000  0.1000000E+03  0.7546771E-02  0.1280296E+00
         21   -1    0    0  503  502  0.00000000000E+00  0.00000000000E+00  0.20867122886E+03  0.20867122886E+03  0.00000000000E+00 0.  1.
         21   -1    0    0  501  503 -0.00000000000E+00 -0.00000000000E+00 -0.24081312532E+03  0.24081312532E+03  0.00000000000E+00 0. -1.
          6    1    1    2  501    0 -0.92689472266E+02  0.73709140594E+02 -0.95630749757E+02  0.23043136934E+03  0.17300000000E+03 0.  1.
         -6    1    1    2    0  502  0.92689472266E+02 -0.73709140594E+02  0.63488853302E+02  0.21905298485E+03  0.17300000000E+03 0. -1.
</event>
<event>
 4    1  0.5959403E+000  0.1000000E+03  0.7546771E-02  0.1280296E+00
         21   -1    0    0  503  502  0.00000000000E+00  0.00000000000E+00  0.24526495100E+03  0.24526495100E+03  0.00000000000E+00 0.  1.
         21   -1    0    0  501  503 -0.00000000000E+00 -0.00000000000E+00 -0.84050869953E+03  0.84050869953E+03  0.00000000000E+00 0.  1.
          6    1    1    2  501    0 -0.13785569171E+03  0.31332627910E+03 -0.58815555043E+03  0.70216344281E+03  0.17300000000E+03 0.  1.
         -6    1    1    2    0  502  0.13785569171E+03 -0.31332627910E+03 -0.70881981025E+01  0.38361020772E+03  0.17300000000E+03 0.  1.
</event>
<event>
 4    1  0.5959403E+000  0.1000000E+03  0.7546771E-02  0.1280296E+00
         21   -1    0    0  503  502  0.00000000000E+00  0.00000000000E+00  0.61506933905E+03  0.61506933905E+03  0.00000000000E+00 0.  1.
         21   -1    0    0  501  503 -0.00000000000E+00 -0.00000000000E+00 -0.11709422368E+03  0.11709422368E+03  0.00000000000E+00 0.  1.
          6    1    1    2  501    0  0.16930559610E+03  0.94608583032E+02  0.34025942522E+03  0.42815960260E+03  0.17300000000E+03 0.  1.
         -6    1    1    2    0  502 -0.16930559610E+03 -0.94608583032E+02  0.15771569016E+03  0.30400396013E+03  0.17300000000E+03 0.  1.
</event>
<event>
 4    1  0.5959403E+000  0.1000000E+03  0.7546771E-02  0.1280296E+00
         21   -1    0    0  503  502  0.00000000000E+00  0.00000000000E+00  0.65379482185E+03  0.65379482185E+03  0.00000000000E+00 0.  1.
         21   -1    0    0  501  503 -0.00000000000E+00 -0.00000000000E+00 -0.17336524164E+03  0.17336524164E+03  0.00000000000E+00 0.  1.
          6    1    1    2  501    0  0.24853389337E+03 -0.40560179683E+02  0.66476592139E+02  0.31266973252E+03  0.17300000000E+03 0.  1.
         -6    1    1    2    0  502 -0.24853389337E+03  0.40560179683E+02  0.41395298807E+03  0.51449033097E+03  0.17300000000E+03 0.  1.
</event>
<event>
 4    1  0.5959403E+000  0.1000000E+03  0.7546771E-02  0.1280296E+00
         21   -1    0    0  503  502  0.00000000000E+00  0.00000000000E+00  0.46726162594E+03  0.46726162594E+03  0.00000000000E+00 0. -1.
         21   -1    0    0  501  503 -0.00000000000E+00 -0.00000000000E+00 -0.95475196043E+02  0.95475196043E+02  0.00000000000E+00 0. -1.
          6    1    1    2  501    0  0.66740296817E+02 -0.97753750936E+02  0.22044761969E+03  0.30419765954E+03  0.17300000000E+03 0. -1.
         -6    1    1    2    0  502 -0.66740296817E+02  0.97753750936E+02  0.15133881020E+03  0.25853916244E+03  0.17300000000E+03 0. -1.
</event>
<event>
 4    1  0.5959403E+000  0.1000000E+03  0.7546771E-02  0.1280296E+00
         21   -1    0    0  501  502  0.00000000000E+00  0.00000000000E+00  0.41097945590E+03  0.41097945590E+03  0.00000000000E+00 0. -1.
         21   -1    0    0  502  503 -0.00000000000E+00 -0.00000000000E+00 -0.20029131615E+03  0.20029131615E+03  0.00000000000E+00 0. -1.
          6    1    1    2  501    0  0.10019987061E+03  0.11815333524E+02  0.32419820670E+03  0.38106835791E+03  0.17300000000E+03 0. -1.
         -6    1    1    2    0  503 -0.10019987061E+03 -0.11815333524E+02 -0.11351006694E+03  0.23020241414E+03  0.17300000000E+03 0. -1.
</event>
<event>
 4    1  0.5959403E+000  0.1000000E+03  0.7546771E-02  0.1280296E+00
         21   -1    0    0  501  502  0.00000000000E+00  0.00000000000E+00  0.16659054936E+04  0.16659054936E+04  0.00000000000E+00 0. -1.
         21   -1    0    0  502  503 -0.00000000000E+00 -0.00000000000E+00 -0.38298044167E+02  0.38298044167E+02  0.00000000000E+00 0. -1.
          6    1    1    2  501    0  0.27289287071E+02  0.86837819930E+02  0.13534170509E+04  0.13674619650E+04  0.17300000000E+03 0. -1.
         -6    1    1    2    0  503 -0.27289287071E+02 -0.86837819930E+02  0.27419039856E+03  0.33674157275E+03  0.17300000000E+03 0. -1.
</event>
<event>
 4    1  0.5959403E+000  0.1000000E+03  0.7546771E-02  0.1280296E+00
         21   -1    0    0  501  502  0.00000000000E+00  0.00000000000E+00  0.19248402945E+03  0.19248402945E+03  0.00000000000E+00 0. -1.
         21   -1    0    0  502  503 -0.00000000000E+00 -0.00000000000E+00 -0.18545416278E+03  0.18545416278E+03  0.00000000000E+00 0. -1.
          6    1    1    2  501    0  0.11620389795E+01 -0.72992735529E+02 -0.17433254648E+02  0.18857944783E+03  0.17300000000E+03 0. -1.
         -6    1    1    2    0  503 -0.11620389795E+01  0.72992735529E+02  0.24463121320E+02  0.18935874440E+03  0.17300000000E+03 0. -1.
</event>
<event>
 4    1  0.5959403E+000  0.1000000E+03  0.7546771E-02  0.1280296E+00
         21   -1    0    0  501  502  0.00000000000E+00  0.00000000000E+00  0.22722675833E+03  0.22722675833E+03  0.00000000000E+00 0. -1.
         21   -1    0    0  502  503 -0.00000000000E+00 -0.00000000000E+00 -0.23936275286E+03  0.23936275286E+03  0.00000000000E+00 0.  1.
          6    1    1    2  501    0 -0.55683350061E+00  0.13888763877E+03  0.65862778284E+02  0.23142383591E+03  0.17300000000E+03 0. -1.
         -6    1    1    2    0  503  0.55683350061E+00 -0.13888763877E+03 -0.77998772811E+02  0.23516567527E+03  0.17300000000E+03 0. -1.
</event>
<event>
 4    1  0.5959403E+000  0.1000000E+03  0.7546771E-02  0.1280296E+00
         21   -1    0    0  501  502  0.00000000000E+00  0.00000000000E+00  0.18195246141E+03  0.18195246141E+03  0.00000000000E+00 0. -1.
         21   -1    0    0  502  503 -0.00000000000E+00 -0.00000000000E+00 -0.39136395888E+03  0.39136395888E+03  0.00000000000E+00 0.  1.
          6    1    1    2  501    0  0.15139625725E+03 -0.12609724113E+03 -0.51433590766E+02  0.26719984130E+03  0.17300000000E+03 0. -1.
         -6    1    1    2    0  503 -0.15139625725E+03  0.12609724113E+03 -0.15797790670E+03  0.30611657900E+03  0.17300000000E+03 0. -1.
</event>
<event>
 4    1  0.5959403E+000  0.1000000E+03  0.7546771E-02  0.1280296E+00
         21   -1    0    0  501  502  0.00000000000E+00  0.00000000000E+00  0.89914407664E+03  0.89914407664E+03  0.00000000000E+00 0. -1.
         21   -1    0    0  502  503 -0.00000000000E+00 -0.00000000000E+00 -0.60615511920E+03  0.60615511920E+03  0.00000000000E+00 0.  1.
          6    1    1    2  501    0  0.31327182647E+02 -0.89041156108E+02  0.87183122225E+03  0.89382794762E+03  0.17300000000E+03 0. -1.
         -6    1    1    2    0  503 -0.31327182647E+02  0.89041156108E+02 -0.57884226482E+03  0.61147124821E+03  0.17300000000E+03 0. -1.
</event>
<event>
 4    1  0.5959403E+000  0.1000000E+03  0.7546771E-02  0.1280296E+00
         21   -1    0    0  501  502  0.00000000000E+00  0.00000000000E+00  0.98816906143E+02  0.98816906143E+02  0.00000000000E+00 0. -1.
         21   -1    0    0  502  503 -0.00000000000E+00 -0.00000000000E+00 -0.67384115352E+03  0.67384115352E+03  0.00000000000E+00 0.  1.
          6    1    1    2  501    0  0.15997270846E+03  0.10001576490E+03 -0.23868883027E+03  0.34999396906E+03  0.17300000000E+03 0. -1.
         -6    1    1    2    0  503 -0.15997270846E+03 -0.10001576490E+03 -0.33633541711E+03  0.42266409060E+03  0.17300000000E+03 0. -1.
</event>
<event>
 4    1  0.5959403E+000  0.1000000E+03  0.7546771E-02  0.1280296E+00
         21   -1    0    0  503  502  0.00000000000E+00  0.00000000000E+00  0.69303247574E+02  0.69303247574E+02  0.00000000000E+00 0.  1.
         21   -1    0    0  501  503 -0.00000000000E+00 -0.00000000000E+00 -0.62948740134E+03  0.62948740134E+03  0.00000000000E+00 0. -1.
          6    1    1    2  501    0 -0.59253080622E+02  0.63520023884E+02 -0.41128565753E+03  0.45456640119E+03  0.17300000000E+03 0. -1.
         -6    1    1    2    0  502  0.59253080622E+02 -0.63520023884E+02 -0.14889849624E+03  0.24422424773E+03  0.17300000000E+03 0.  1.
</event>
<event>
 4    1  0.5959403E+000  0.1000000E+03  0.7546771E-02  0.1280296E+00
         21   -1    0    0  503  502  0.00000000000E+00  0.00000000000E+00  0.22688048392E+03  0.22688048392E+03  0.00000000000E+00 0. -1.
         21   -1    0    0  501  503 -0.00000000000E+00 -0.00000000000E+00 -0.42411261093E+03  0.42411261093E+03  0.00000000000E+00 0. -1.
          6    1    1    2  501    0 -0.14339443028E+03  0.19276221807E+03 -0.19578224750E+03  0.35493509799E+03  0.17300000000E+03 0.  1.
         -6    1    1    2    0  502  0.14339443028E+03 -0.19276221807E+03 -0.14498795073E+01  0.29605799685E+03  0.17300000000E+03 0.  1.
</event>
<event>
 4    1  0.5959403E+000  0.1000000E+03  0.7546771E-02  0.1280296E+00
         21   -1    0    0  503  502  0.00000000000E+00  0.00000000000E+00  0.19505048454E+03  0.19505048454E+03  0.00000000000E+00 0.  1.
         21   -1    0    0  501  503 -0.00000000000E+00 -0.00000000000E+00 -0.46679260795E+03  0.46679260795E+03  0.00000000000E+00 0. -1.
          6    1    1    2  501    0 -0.52140979376E+02 -0.50692220056E+01 -0.40084431848E+03  0.43971530153E+03  0.17300000000E+03 0.  1.
         -6    1    1    2    0  502  0.52140979376E+02  0.50692220056E+01  0.12910219508E+03  0.22212779096E+03  0.17300000000E+03 0. -1.
</event>
<event>
 4    1  0.5959403E+000  0.1000000E+03  0.7546771E-02  0.1280296E+00
         21   -1    0    0  503  502  0.00000000000E+00  0.00000000000E+00  0.99154049224E+02  0.99154049224E+02  0.00000000000E+00 0.  1.
         21   -1    0    0  501  503 -0.00000000000E+00 -0.00000000000E+00 -0.36623371475E+03  0.36623371475E+03  0.00000000000E+00 0. -1.
          6    1    1    2  501    0  0.18473571411E+02 -0.75548942847E+02 -0.15591094338E+03  0.24553235606E+03  0.17300000000E+03 0.  1.
         -6    1    1    2    0  502 -0.18473571411E+02  0.75548942847E+02 -0.11116872215E+03  0.21985540792E+03  0.17300000000E+03 0. -1.
</event>
<event>
 4    1  0.5959403E+000  0.1000000E+03  0.7546771E-02  0.1280296E+00
         21   -1    0    0  503  502  0.00000000000E+00  0.00000000000E+00  0.82670391795E+03  0.82670391795E+03  0.00000000000E+00 0.  1.
         21   -1    0    0  501  503 -0.00000000000E+00 -0.00000000000E+00 -0.56120560197E+02  0.56120560197E+02  0.00000000000E+00 0. -1.
          6    1    1    2  501    0 -0.11922956639E+03 -0.30942399803E+02  0.31160282137E+03  0.37709208410E+03  0.17300000000E+03 0.  1.
         -6    1    1    2    0  502  0.11922956639E+03  0.30942399803E+02  0.45898053639E+03  0.50573239405E+03  0.17300000000E+03 0. -1.
</event>
<event>
 4    1  0.5959403E+000  0.1000000E+03  0.7546771E-02  0.1280296E+00
         21   -1    0    0  503  502  0.00000000000E+00  0.00000000000E+00  0.56417260649E+03  0.56417260649E+03  0.00000000000E+00 0.  1.
         21   -1    0    0  501  503 -0.00000000000E+00 -0.00000000000E+00 -0.98360579228E+03  0.98360579228E+03  0.00000000000E+00 0.  1.
          6    1    1    2  501    0  0.38279111134E+03 -0.23235109603E+03 -0.80148957018E+03  0.93425403283E+03  0.17300000000E+03 0.  1.
         -6    1    1    2    0  502 -0.38279111134E+03  0.23235109603E+03  0.38205638439E+03  0.61352436594E+03  0.17300000000E+03 0.  1.
</event>
<event>
 4    1  0.5959403E+000  0.1000000E+03  0.7546771E-02  0.1280296E+00
         21   -1    0    0  503  502  0.00000000000E+00  0.00000000000E+00  0.66045954463E+03  0.66045954463E+03  0.00000000000E+00 0.  1.
         21   -1    0    0  501  503 -0.00000000000E+00 -0.00000000000E+00 -0.24345115991E+03  0.24345115991E+03  0.00000000000E+00 0.  1.
          6    1    1    2  501    0  0.27264556028E+03 -0.17543061987E+03  0.27641975682E+02  0.36851673333E+03  0.17300000000E+03 0.  1.
         -6    1    1    2    0  502 -0.27264556028E+03  0.17543061987E+03  0.38936640903E+03  0.53539397121E+03  0.17300000000E+03 0.  1.
</event>
<event>
 4    1  0.5959403E+000  0.1000000E+03  0.7546771E-02  0.1280296E+00
         21   -1    0    0  503  502  0.00000000000E+00  0.00000000000E+00  0.65447725387E+03  0.65447725387E+03  0.00000000000E+00 0.  1.
         21   -1    0    0  501  503 -0.00000000000E+00 -0.00000000000E+00 -0.52591535933E+02  0.52591535933E+02  0.00000000000E+00 0.  1.
          6    1    1    2  501    0 -0.23729719244E+02  0.62317570563E+02  0.31363818284E+03  0.36434117103E+03  0.17300000000E+03 0.  1.
         -6    1    1    2    0  502  0.23729719244E+02 -0.62317570563E+02  0.28824753510E+03  0.34272761877E+03  0.17300000000E+03 0.  1.
</event>
<event>
 4    1  0.5959403E+000  0.1000000E+03  0.7546771E-02  0.1280296E+00
         21   -1    0    0  503  502  0.00000000000E+00  0.00000000000E+00  0.10728236371E+03  0.10728236371E+03  0.00000000000E+00 0.  1.
         21   -1    0    0  501  503 -0.00000000000E+00 -0.00000000000E+00 -0.51495641665E+03  0.51495641665E+03  0.00000000000E+00 0.  1.
          6    1    1    2  501    0  0.31004460766E+02 -0.15798864243E+02 -0.40934988407E+03  0.44576586712E+03  0.17300000000E+03 0.  1.
         -6    1    1    2    0  502 -0.31004460766E+02  0.15798864243E+02  0.16758311364E+01  0.17647291324E+03  0.17300000000E+03 0.  1.
</event>
<event>
 4    1  0.5959403E+000  0.1000000E+03  0.7546771E-02  0.1280296E+00
         21   -1    0    0  503  502  0.00000000000E+00  0.00000000000E+00  0.14276512039E+03  0.14276512039E+03  0.00000000000E+00 0.  1.
         21   -1    0    0  501  503 -0.00000000000E+00 -0.00000000000E+00 -0.24369784599E+03  0.24369784599E+03  0.00000000000E+00 0.  1.
          6    1    1    2  501    0  0.40232282280E+02 -0.25756931183E+02 -0.10309142266E+03  0.20697559631E+03  0.17300000000E+03 0.  1.
         -6    1    1    2    0  502 -0.40232282280E+02  0.25756931183E+02  0.21586970576E+01  0.17948737007E+03  0.17300000000E+03 0.  1.
</event>
<event>
 4    1  0.5959403E+000  0.1000000E+03  0.7546771E-02  0.1280296E+00
         21   -1    0    0  501  502  0.00000000000E+00  0.00000000000E+00  0.20345985725E+03  0.20345985725E+03  0.00000000000E+00 0.  1.
         21   -1    0    0  502  503 -0.00000000000E+00 -0.00000000000E+00 -0.25572730883E+03  0.25572730883E+03  0.00000000000E+00 0. -1.
          6    1    1    2  501    0 -0.13645238101E+03 -0.53895813184E+02 -0.19509267446E+01  0.22684095106E+03  0.17300000000E+03 0.  1.
         -6    1    1    2    0  503  0.13645238101E+03  0.53895813184E+02 -0.50316524838E+02  0.23234621502E+03  0.17300000000E+03 0. -1.
</event>
<event>
 4    1  0.5959403E+000  0.1000000E+03  0.7546771E-02  0.1280296E+00
         21   -1    0    0  501  502  0.00000000000E+00  0.00000000000E+00  0.27963220256E+03  0.27963220256E+03  0.00000000000E+00 0.  1.
         21   -1    0    0  502  503 -0.00000000000E+00 -0.00000000000E+00 -0.14035561424E+03  0.14035561424E+03  0.00000000000E+00 0. -1.
          6    1    1    2  501    0 -0.23883493161E+02  0.91784851312E+02  0.50556587891E+02  0.20366602258E+03  0.17300000000E+03 0.  1.
         -6    1    1    2    0  503  0.23883493161E+02 -0.91784851312E+02  0.88720000437E+02  0.21632179422E+03  0.17300000000E+03 0. -1.
</event>
<event>
 4    1  0.5959403E+000  0.1000000E+03  0.7546771E-02  0.1280296E+00
         21   -1    0    0  503  502  0.00000000000E+00  0.00000000000E+00  0.96381115665E+02  0.96381115665E+02  0.00000000000E+00 0.  1.
         21   -1    0    0  501  503 -0.00000000000E+00 -0.00000000000E+00 -0.53949112945E+03  0.53949112945E+03  0.00000000000E+00 0.  1.
          6    1    1    2  501    0 -0.36870024974E+01  0.14770272407E+03 -0.24306808216E+03  0.33292759160E+03  0.17300000000E+03 0.  1.
         -6    1    1    2    0  502  0.36870024974E+01 -0.14770272407E+03 -0.20004193163E+03  0.30294465351E+03  0.17300000000E+03 0.  1.
</event>
<event>
 4    1  0.5959403E+000  0.1000000E+03  0.7546771E-02  0.1280296E+00
         21   -1    0    0  503  502  0.00000000000E+00  0.00000000000E+00  0.68658121470E+03  0.68658121470E+03  0.00000000000E+00 0.  1.
         21   -1    0    0  501  503 -0.00000000000E+00 -0.00000000000E+00 -0.47035310514E+02  0.47035310514E+02  0.00000000000E+00 0.  1.
          6    1    1    2  501    0  0.14086479111E+02 -0.32328239224E+02  0.38811487300E+03  0.42638679458E+03  0.17300000000E+03 0.  1.
         -6    1    1    2    0  502 -0.14086479111E+02  0.32328239224E+02  0.25143103119E+03  0.30722973064E+03  0.17300000000E+03 0.  1.
</event>
<event>
 4    1  0.5959403E+000  0.1000000E+03  0.7546771E-02  0.1280296E+00
         21   -1    0    0  503  502  0.00000000000E+00  0.00000000000E+00  0.48795849696E+03  0.48795849696E+03  0.00000000000E+00 0.  1.
         21   -1    0    0  501  503 -0.00000000000E+00 -0.00000000000E+00 -0.38571336209E+03  0.38571336209E+03  0.00000000000E+00 0.  1.
          6    1    1    2  501    0 -0.33608639267E+03 -0.18631094911E+03 -0.52630558134E+02  0.42469378233E+03  0.17300000000E+03 0.  1.
         -6    1    1    2    0  502  0.33608639267E+03  0.18631094911E+03  0.15487569300E+03  0.44897807673E+03  0.17300000000E+03 0.  1.
</event>
<event>
 4    1  0.5959403E+000  0.1000000E+03  0.7546771E-02  0.1280296E+00
         21   -1    0    0  503  502  0.00000000000E+00  0.00000000000E+00  0.30958900621E+02  0.30958900621E+02  0.00000000000E+00 0.  1.
         21   -1    0    0  501  503 -0.00000000000E+00 -0.00000000000E+00 -0.11073153224E+04  0.11073153224E+04  0.00000000000E+00 0.  1.
          6    1    1    2  501    0 -0.53784375264E+02  0.27272396268E+01 -0.65531194482E+03  0.67989921451E+03  0.17300000000E+03 0.  1.
         -6    1    1    2    0  502  0.53784375264E+02 -0.27272396268E+01 -0.42104447699E+03  0.45837500855E+03  0.17300000000E+03 0.  1.
</event>
<event>
 4    1  0.5959403E+000  0.1000000E+03  0.7546771E-02  0.1280296E+00
         21   -1    0    0  501  502  0.00000000000E+00  0.00000000000E+00  0.91629103578E+03  0.91629103578E+03  0.00000000000E+00 0.  1.
         21   -1    0    0  502  503 -0.00000000000E+00 -0.00000000000E+00 -0.59112657204E+02  0.59112657204E+02  0.00000000000E+00 0. -1.
          6    1    1    2  501    0 -0.12361333767E+02  0.42523874326E+02  0.74134084879E+03  0.76254595700E+03  0.17300000000E+03 0.  1.
         -6    1    1    2    0  503  0.12361333767E+02 -0.42523874326E+02  0.11583752979E+03  0.21285773599E+03  0.17300000000E+03 0. -1.
</event>
<event>
 4    1  0.5959403E+000  0.1000000E+03  0.7546771E-02  0.1280296E+00
         21   -1    0    0  503  502  0.00000000000E+00  0.00000000000E+00  0.28576163831E+03  0.28576163831E+03  0.00000000000E+00 0. -1.
         21   -1    0    0  501  503 -0.00000000000E+00 -0.00000000000E+00 -0.63186329228E+03  0.63186329228E+03  0.00000000000E+00 0. -1.
          6    1    1    2  501    0 -0.18678483872E+01 -0.16214912646E+03 -0.55378572008E+03  0.60241468427E+03  0.17300000000E+03 0. -1.
         -6    1    1    2    0  502  0.18678483872E+01  0.16214912646E+03  0.20768406611E+03  0.31521024632E+03  0.17300000000E+03 0. -1.
</event>
<event>
 4    1  0.5959403E+000  0.1000000E+03  0.7546771E-02  0.1280296E+00
         21   -1    0    0  503  502  0.00000000000E+00  0.00000000000E+00  0.63130855870E+03  0.63130855870E+03  0.00000000000E+00 0. -1.
         21   -1    0    0  501  503 -0.00000000000E+00 -0.00000000000E+00 -0.65814625065E+02  0.65814625065E+02  0.00000000000E+00 0. -1.
          6    1    1    2  501    0 -0.82104773975E+02  0.50592518186E+02  0.20039037758E+03  0.28175539078E+03  0.17300000000E+03 0. -1.
         -6    1    1    2    0  502  0.82104773975E+02 -0.50592518186E+02  0.36510355606E+03  0.41536779299E+03  0.17300000000E+03 0. -1.
</event>
<event>
 4    1  0.5959403E+000  0.1000000E+03  0.7546771E-02  0.1280296E+00
         21   -1    0    0  503  502  0.00000000000E+00  0.00000000000E+00  0.40824040074E+03  0.40824040074E+03  0.00000000000E+00 0. -1.
         21   -1    0    0  501  503 -0.00000000000E+00 -0.00000000000E+00 -0.11149041279E+03  0.11149041279E+03  0.00000000000E+00 0. -1.
          6    1    1    2  501    0 -0.11043462727E+03  0.10267798023E+02  0.78565148216E+02  0.22000617512E+03  0.17300000000E+03 0. -1.
         -6    1    1    2    0  502  0.11043462727E+03 -0.10267798023E+02  0.21818483974E+03  0.29972463841E+03  0.17300000000E+03 0. -1.
</event>
<event>
 4    1  0.5959403E+000  0.1000000E+03  0.7546771E-02  0.1280296E+00
         21   -1    0    0  503  502  0.00000000000E+00  0.00000000000E+00  0.17890173351E+03  0.17890173351E+03  0.00000000000E+00 0.  1.
         21   -1    0    0  501  503 -0.00000000000E+00 -0.00000000000E+00 -0.57082966517E+03  0.57082966517E+03  0.00000000000E+00 0. -1.
          6    1    1    2  501    0  0.15593802695E+03 -0.21737397887E+03 -0.16663073045E+03  0.35953152194E+03  0.17300000000E+03 0.  1.
         -6    1    1    2    0  502 -0.15593802695E+03  0.21737397887E+03 -0.22529720121E+03  0.39019987674E+03  0.17300000000E+03 0. -1.
</event>
<event>
 4    1  0.5959403E+000  0.1000000E+03  0.7546771E-02  0.1280296E+00
         21   -1    0    0  503  502  0.00000000000E+00  0.00000000000E+00  0.12863308146E+03  0.12863308146E+03  0.00000000000E+00 0.  1.
         21   -1    0    0  501  503 -0.00000000000E+00 -0.00000000000E+00 -0.86015729036E+03  0.86015729036E+03  0.00000000000E+00 0. -1.
          6    1    1    2  501    0  0.37304150994E+02 -0.12059707997E+03 -0.74405733318E+03  0.77426453518E+03  0.17300000000E+03 0.  1.
         -6    1    1    2    0  502 -0.37304150994E+02  0.12059707997E+03  0.12533124286E+02  0.21452583664E+03  0.17300000000E+03 0. -1.
</event>
<event>
 4    1  0.5959403E+000  0.1000000E+03  0.7546771E-02  0.1280296E+00
         21   -1    0    0  501  502  0.00000000000E+00  0.00000000000E+00  0.38848431375E+03  0.38848431375E+03  0.00000000000E+00 0.  1.
         21   -1    0    0  502  503 -0.00000000000E+00 -0.00000000000E+00 -0.43823753392E+03  0.43823753392E+03  0.00000000000E+00 0.  1.
          6    1    1    2  501    0  0.75971819793E+02 -0.13342486857E+03  0.31742422190E+03  0.39276080457E+03  0.17300000000E+03 0.  1.
         -6    1    1    2    0  503 -0.75971819793E+02  0.13342486857E+03 -0.36717744207E+03  0.43396104309E+03  0.17300000000E+03 0.  1.
</event>
<event>
 4    1  0.5959403E+000  0.1000000E+03  0.7546771E-02  0.1280296E+00
         21   -1    0    0  501  502  0.00000000000E+00  0.00000000000E+00  0.26312676847E+04  0.26312676847E+04  0.00000000000E+00 0.  1.
         21   -1    0    0  502  503 -0.00000000000E+00 -0.00000000000E+00 -0.23351971080E+02  0.23351971080E+02  0.00000000000E+00 0.  1.
          6    1    1    2  501    0  0.72283024700E+02 -0.78272228680E+02  0.20643299337E+04  0.20743043298E+04  0.17300000000E+03 0.  1.
         -6    1    1    2    0  503 -0.72283024700E+02  0.78272228680E+02  0.54358577994E+03  0.58031532600E+03  0.17300000000E+03 0.  1.
</event>
<event>
 4    1  0.5959403E+000  0.1000000E+03  0.7546771E-02  0.1280296E+00
         21   -1    0    0  501  502  0.00000000000E+00  0.00000000000E+00  0.12181562499E+03  0.12181562499E+03  0.00000000000E+00 0.  1.
         21   -1    0    0  502  503 -0.00000000000E+00 -0.00000000000E+00 -0.41394274624E+03  0.41394274624E+03  0.00000000000E+00 0.  1.
          6    1    1    2  501    0 -0.39751261129E+02 -0.71338008136E+02 -0.57911669185E+01  0.19139438806E+03  0.17300000000E+03 0.  1.
         -6    1    1    2    0  503  0.39751261129E+02  0.71338008136E+02 -0.28633595433E+03  0.34436398317E+03  0.17300000000E+03 0.  1.
</event>
<event>
 4    1  0.5959403E+000  0.1000000E+03  0.7546771E-02  0.1280296E+00
         21   -1    0    0  501  502  0.00000000000E+00  0.00000000000E+00  0.64789392362E+03  0.64789392362E+03  0.00000000000E+00 0.  1.
         21   -1    0    0  502  503 -0.00000000000E+00 -0.00000000000E+00 -0.99881231492E+02  0.99881231492E+02  0.00000000000E+00 0.  1.
          6    1    1    2  501    0  0.62045705673E+02  0.70903703751E+01  0.53229801283E+03  0.56317858394E+03  0.17300000000E+03 0.  1.
         -6    1    1    2    0  503 -0.62045705673E+02 -0.70903703751E+01  0.15714679301E+02  0.18459657118E+03  0.17300000000E+03 0.  1.
</event>
<event>
 4    1  0.5959403E+000  0.1000000E+03  0.7546771E-02  0.1280296E+00
         21   -1    0    0  501  502  0.00000000000E+00  0.00000000000E+00  0.27830206147E+02  0.27830206147E+02  0.00000000000E+00 0.  1.
         21   -1    0    0  502  503 -0.00000000000E+00 -0.00000000000E+00 -0.18494608879E+04  0.18494608879E+04  0.00000000000E+00 0.  1.
          6    1    1    2  501    0 -0.10897919968E+03 -0.50025622114E+02 -0.56065759892E+03  0.59886974549E+03  0.17300000000E+03 0.  1.
         -6    1    1    2    0  503  0.10897919968E+03  0.50025622114E+02 -0.12609730828E+04  0.12784213486E+04  0.17300000000E+03 0.  1.
</event>
<event>
 4    1  0.5959403E+000  0.1000000E+03  0.7546771E-02  0.1280296E+00
         21   -1    0    0  503  502  0.00000000000E+00  0.00000000000E+00  0.27340325385E+03  0.27340325385E+03  0.00000000000E+00 0.  1.
         21   -1    0    0  501  503 -0.00000000000E+00 -0.00000000000E+00 -0.32137512789E+03  0.32137512789E+03  0.00000000000E+00 0.  1.
          6    1    1    2  501    0  0.97839127193E+02 -0.14072451095E+03 -0.19353572240E+03  0.31106423555E+03  0.17300000000E+03 0.  1.
         -6    1    1    2    0  502 -0.97839127193E+02  0.14072451095E+03  0.14556384836E+03  0.28371414618E+03  0.17300000000E+03 0.  1.
</event>
<event>
 4    1  0.5959403E+000  0.1000000E+03  0.7546771E-02  0.1280296E+00
         21   -1    0    0  503  502  0.00000000000E+00  0.00000000000E+00  0.61502654212E+03  0.61502654212E+03  0.00000000000E+00 0.  1.
         21   -1    0    0  501  503 -0.00000000000E+00 -0.00000000000E+00 -0.14917904536E+03  0.14917904536E+03  0.00000000000E+00 0.  1.
          6    1    1    2  501    0 -0.64623676896E+02 -0.17671338758E+02 -0.69124494988E+02  0.19797901817E+03  0.17300000000E+03 0.  1.
         -6    1    1    2    0  502  0.64623676896E+02  0.17671338758E+02  0.53497199175E+03  0.56622656930E+03  0.17300000000E+03 0.  1.
</event>
<event>
 4    1  0.5959403E+000  0.1000000E+03  0.7546771E-02  0.1280296E+00
         21   -1    0    0  501  502  0.00000000000E+00  0.00000000000E+00  0.34500760561E+03  0.34500760561E+03  0.00000000000E+00 0. -1.
         21   -1    0    0  502  503 -0.00000000000E+00 -0.00000000000E+00 -0.10765741991E+04  0.10765741991E+04  0.00000000000E+00 0. -1.
          6    1    1    2  501    0 -0.16319068078E+03 -0.69143194351E+02  0.28366732426E+03  0.37657420314E+03  0.17300000000E+03 0. -1.
         -6    1    1    2    0  503  0.16319068078E+03  0.69143194351E+02 -0.10152339177E+04  0.10450076016E+04  0.17300000000E+03 0. -1.
</event>
<event>
 4    1  0.5959403E+000  0.1000000E+03  0.7546771E-02  0.1280296E+00
         21   -1    0    0  501  502  0.00000000000E+00  0.00000000000E+00  0.34238448451E+02  0.34238448451E+02  0.00000000000E+00 0. -1.
         21   -1    0    0  502  503 -0.00000000000E+00 -0.00000000000E+00 -0.96112324768E+03  0.96112324768E+03  0.00000000000E+00 0. -1.
          6    1    1    2  501    0  0.39061011497E+02 -0.27076862127E+02 -0.38985481233E+03  0.42915579197E+03  0.17300000000E+03 0. -1.
         -6    1    1    2    0  503 -0.39061011497E+02  0.27076862127E+02 -0.53702998689E+03  0.56620590416E+03  0.17300000000E+03 0. -1.
</event>
<event>
 4    1  0.5959403E+000  0.1000000E+03  0.7546771E-02  0.1280296E+00
         21   -1    0    0  503  502  0.00000000000E+00  0.00000000000E+00  0.18921944365E+03  0.18921944365E+03  0.00000000000E+00 0. -1.
         21   -1    0    0  501  503 -0.00000000000E+00 -0.00000000000E+00 -0.23145438056E+03  0.23145438056E+03  0.00000000000E+00 0. -1.
          6    1    1    2  501    0  0.14257024332E+02 -0.22373502924E+02 -0.13642949172E+03  0.22191404324E+03  0.17300000000E+03 0. -1.
         -6    1    1    2    0  502 -0.14257024332E+02  0.22373502924E+02  0.94194554814E+02  0.19875978097E+03  0.17300000000E+03 0. -1.
</event>
<event>
 4    1  0.5959403E+000  0.1000000E+03  0.7546771E-02  0.1280296E+00
         21   -1    0    0  501  502  0.00000000000E+00  0.00000000000E+00  0.15154228905E+04  0.15154228905E+04  0.00000000000E+00 0.  1.
         21   -1    0    0  502  503 -0.00000000000E+00 -0.00000000000E+00 -0.99615063547E+02  0.99615063547E+02  0.00000000000E+00 0.  1.
          6    1    1    2  501    0 -0.12368138503E+03  0.18111243456E+03  0.12691842583E+04  0.12995601104E+04  0.17300000000E+03 0.  1.
         -6    1    1    2    0  503  0.12368138503E+03 -0.18111243456E+03  0.14662356863E+03  0.31547784365E+03  0.17300000000E+03 0.  1.
</event>
<event>
 4    1  0.5959403E+000  0.1000000E+03  0.7546771E-02  0.1280296E+00
         21   -1    0    0  501  502  0.00000000000E+00  0.00000000000E+00  0.40600692590E+03  0.40600692590E+03  0.00000000000E+00 0.  1.
         21   -1    0    0  502  503 -0.00000000000E+00 -0.00000000000E+00 -0.22258333992E+03  0.22258333992E+03  0.00000000000E+00 0.  1.
          6    1    1    2  501    0  0.18180814190E+03  0.15163516737E+03  0.22408747750E+02  0.29407239996E+03  0.17300000000E+03 0.  1.
         -6    1    1    2    0  503 -0.18180814190E+03 -0.15163516737E+03  0.16101483823E+03  0.33451786586E+03  0.17300000000E+03 0.  1.
</event>
<event>
 4    1  0.5959403E+000  0.1000000E+03  0.7546771E-02  0.1280296E+00
         21   -1    0    0  501  502  0.00000000000E+00  0.00000000000E+00  0.21713876610E+03  0.21713876610E+03  0.00000000000E+00 0.  1.
         21   -1    0    0  502  503 -0.00000000000E+00 -0.00000000000E+00 -0.33374166809E+03  0.33374166809E+03  0.00000000000E+00 0.  1.
          6    1    1    2  501    0  0.89999581689E+02  0.90022250079E+02  0.10774239502E+03  0.24029430684E+03  0.17300000000E+03 0.  1.
         -6    1    1    2    0  503 -0.89999581689E+02 -0.90022250079E+02 -0.22434529701E+03  0.31058612735E+03  0.17300000000E+03 0.  1.
</event>
<event>
 4    1  0.5959403E+000  0.1000000E+03  0.7546771E-02  0.1280296E+00
         21   -1    0    0  503  502  0.00000000000E+00  0.00000000000E+00  0.62958607563E+02  0.62958607563E+02  0.00000000000E+00 0. -1.
         21   -1    0    0  501  503 -0.00000000000E+00 -0.00000000000E+00 -0.11887495200E+04  0.11887495200E+04  0.00000000000E+00 0. -1.
          6    1    1    2  501    0 -0.64388514126E+02 -0.18575716495E+03 -0.74391955489E+03  0.78866780664E+03  0.17300000000E+03 0. -1.
         -6    1    1    2    0  502  0.64388514126E+02  0.18575716495E+03 -0.38187135752E+03  0.46304032090E+03  0.17300000000E+03 0. -1.
</event>
<event>
 4    1  0.5959403E+000  0.1000000E+03  0.7546771E-02  0.1280296E+00
         21   -1    0    0  503  502  0.00000000000E+00  0.00000000000E+00  0.34184883651E+03  0.34184883651E+03  0.00000000000E+00 0. -1.
         21   -1    0    0  501  503 -0.00000000000E+00 -0.00000000000E+00 -0.12459265264E+03  0.12459265264E+03  0.00000000000E+00 0. -1.
          6    1    1    2  501    0  0.82069647909E+01 -0.23161288017E+02 -0.15468691514E+02  0.17541972509E+03  0.17300000000E+03 0. -1.
         -6    1    1    2    0  502 -0.82069647909E+01  0.23161288017E+02  0.23272487539E+03  0.29102176406E+03  0.17300000000E+03 0. -1.
</event>
<event>
 4    1  0.5959403E+000  0.1000000E+03  0.7546771E-02  0.1280296E+00
         21   -1    0    0  503  502  0.00000000000E+00  0.00000000000E+00  0.40264221424E+02  0.40264221424E+02  0.00000000000E+00 0. -1.
         21   -1    0    0  501  503 -0.00000000000E+00 -0.00000000000E+00 -0.10593838366E+04  0.10593838366E+04  0.00000000000E+00 0. -1.
          6    1    1    2  501    0  0.32701139017E+02 -0.99942213345E+02 -0.40081848180E+03  0.44904595072E+03  0.17300000000E+03 0. -1.
         -6    1    1    2    0  502 -0.32701139017E+02  0.99942213345E+02 -0.61830113339E+03  0.65060210732E+03  0.17300000000E+03 0. -1.
</event>
<event>
 4    1  0.5959403E+000  0.1000000E+03  0.7546771E-02  0.1280296E+00
         21   -1    0    0  503  502  0.00000000000E+00  0.00000000000E+00  0.15738411594E+03  0.15738411594E+03  0.00000000000E+00 0. -1.
         21   -1    0    0  501  503 -0.00000000000E+00 -0.00000000000E+00 -0.29163400337E+03  0.29163400337E+03  0.00000000000E+00 0.  1.
          6    1    1    2  501    0  0.94205720087E+02  0.11630360640E+02 -0.15454795424E+03  0.25064726838E+03  0.17300000000E+03 0.  1.
         -6    1    1    2    0  502 -0.94205720087E+02 -0.11630360640E+02  0.20298066803E+02  0.19837085094E+03  0.17300000000E+03 0. -1.
</event>
<event>
 4    1  0.5959403E+000  0.1000000E+03  0.7546771E-02  0.1280296E+00
         21   -1    0    0  503  502  0.00000000000E+00  0.00000000000E+00  0.59509506470E+03  0.59509506470E+03  0.00000000000E+00 0. -1.
         21   -1    0    0  501  503 -0.00000000000E+00 -0.00000000000E+00 -0.15283935099E+03  0.15283935099E+03  0.00000000000E+00 0.  1.
          6    1    1    2  501    0  0.31104711955E+02  0.17590156975E+03  0.95407535011E+01  0.24885516133E+03  0.17300000000E+03 0.  1.
         -6    1    1    2    0  502 -0.31104711955E+02 -0.17590156975E+03  0.43271496020E+03  0.49907925435E+03  0.17300000000E+03 0. -1.
</event>
<event>
 4    1  0.5959403E+000  0.1000000E+03  0.7546771E-02  0.1280296E+00
         21   -1    0    0  503  502  0.00000000000E+00  0.00000000000E+00  0.12320253845E+04  0.12320253845E+04  0.00000000000E+00 0. -1.
         21   -1    0    0  501  503 -0.00000000000E+00 -0.00000000000E+00 -0.32359501881E+02  0.32359501881E+02  0.00000000000E+00 0.  1.
          6    1    1    2  501    0 -0.18709067380E+02 -0.82378359797E+02  0.76744748864E+03  0.79122744593E+03  0.17300000000E+03 0.  1.
         -6    1    1    2    0  502  0.18709067380E+02  0.82378359797E+02  0.43221839398E+03  0.47315744045E+03  0.17300000000E+03 0. -1.
</event>
<event>
 4    1  0.5959403E+000  0.1000000E+03  0.7546771E-02  0.1280296E+00
         21   -1    0    0  503  502  0.00000000000E+00  0.00000000000E+00  0.76135547024E+03  0.76135547024E+03  0.00000000000E+00 0. -1.
         21   -1    0    0  501  503 -0.00000000000E+00 -0.00000000000E+00 -0.69069377312E+02  0.69069377312E+02  0.00000000000E+00 0.  1.
          6    1    1    2  501    0  0.12850603203E+03  0.71280965094E+02  0.28712116970E+03  0.36600866430E+03  0.17300000000E+03 0.  1.
         -6    1    1    2    0  502 -0.12850603203E+03 -0.71280965094E+02  0.40516492323E+03  0.46441618325E+03  0.17300000000E+03 0. -1.
</event>
<event>
 4    1  0.5959403E+000  0.1000000E+03  0.7546771E-02  0.1280296E+00
         21   -1    0    0  503  502  0.00000000000E+00  0.00000000000E+00  0.41365318886E+03  0.41365318886E+03  0.00000000000E+00 0. -1.
         21   -1    0    0  501  503 -0.00000000000E+00 -0.00000000000E+00 -0.63519865442E+03  0.63519865442E+03  0.00000000000E+00 0.  1.
          6    1    1    2  501    0  0.22400462905E+03  0.35648790224E+03 -0.35192823965E+03  0.57536439249E+03  0.17300000000E+03 0.  1.
         -6    1    1    2    0  502 -0.22400462905E+03 -0.35648790224E+03  0.13038277409E+03  0.47348745080E+03  0.17300000000E+03 0. -1.
</event>
<event>
 4    1  0.5959403E+000  0.1000000E+03  0.7546771E-02  0.1280296E+00
         21   -1    0    0  503  502  0.00000000000E+00  0.00000000000E+00  0.69879682002E+02  0.69879682002E+02  0.00000000000E+00 0. -1.
         21   -1    0    0  501  503 -0.00000000000E+00 -0.00000000000E+00 -0.56479606630E+03  0.56479606630E+03  0.00000000000E+00 0.  1.
          6    1    1    2  501    0  0.62619535859E+02 -0.25880428474E+02 -0.35981650811E+03  0.40495422254E+03  0.17300000000E+03 0.  1.
         -6    1    1    2    0  502 -0.62619535859E+02  0.25880428474E+02 -0.13509987619E+03  0.22972152575E+03  0.17300000000E+03 0. -1.
</event>
<event>
 4    1  0.5959403E+000  0.1000000E+03  0.7546771E-02  0.1280296E+00
         21   -1    0    0  503  502  0.00000000000E+00  0.00000000000E+00  0.44134150256E+02  0.44134150256E+02  0.00000000000E+00 0.  1.
         21   -1    0    0  501  503 -0.00000000000E+00 -0.00000000000E+00 -0.15272465412E+04  0.15272465412E+04  0.00000000000E+00 0.  1.
          6    1    1    2  501    0  0.59310763008E+02  0.13561852743E+03 -0.11191093598E+04  0.11420354245E+04  0.17300000000E+03 0.  1.
         -6    1    1    2    0  502 -0.59310763008E+02 -0.13561852743E+03 -0.36400303117E+03  0.42934526699E+03  0.17300000000E+03 0.  1.
</event>
<event>
 4    1  0.5959403E+000  0.1000000E+03  0.7546771E-02  0.1280296E+00
         21   -1    0    0  503  502  0.00000000000E+00  0.00000000000E+00  0.17088830664E+03  0.17088830664E+03  0.00000000000E+00 0.  1.
         21   -1    0    0  501  503 -0.00000000000E+00 -0.00000000000E+00 -0.84680792090E+03  0.84680792090E+03  0.00000000000E+00 0.  1.
          6    1    1    2  501    0 -0.28077355964E+03 -0.18244180984E+03 -0.40697178380E+03  0.55468354814E+03  0.17300000000E+03 0.  1.
         -6    1    1    2    0  502  0.28077355964E+03  0.18244180984E+03 -0.26894783046E+03  0.46301267940E+03  0.17300000000E+03 0.  1.
</event>
<event>
 4    1  0.5959403E+000  0.1000000E+03  0.7546771E-02  0.1280296E+00
         21   -1    0    0  501  502  0.00000000000E+00  0.00000000000E+00  0.68286031340E+03  0.68286031340E+03  0.00000000000E+00 0.  1.
         21   -1    0    0  502  503 -0.00000000000E+00 -0.00000000000E+00 -0.45409393407E+02  0.45409393407E+02  0.00000000000E+00 0.  1.
          6    1    1    2  501    0 -0.34886569474E+01 -0.32554950061E+02  0.32430377465E+03  0.36901752499E+03  0.17300000000E+03 0.  1.
         -6    1    1    2    0  503  0.34886569474E+01  0.32554950061E+02  0.31314714535E+03  0.35925218182E+03  0.17300000000E+03 0.  1.
</event>
<event>
 4    1  0.5959403E+000  0.1000000E+03  0.7546771E-02  0.1280296E+00
         21   -1    0    0  501  502  0.00000000000E+00  0.00000000000E+00  0.14316671792E+03  0.14316671792E+03  0.00000000000E+00 0. -1.
         21   -1    0    0  502  503 -0.00000000000E+00 -0.00000000000E+00 -0.14396207913E+04  0.14396207913E+04  0.00000000000E+00 0.  1.
          6    1    1    2  501    0 -0.18955025218E+03 -0.21729726364E+03 -0.11653812443E+03  0.35588977694E+03  0.17300000000E+03 0. -1.
         -6    1    1    2    0  503  0.18955025218E+03  0.21729726364E+03 -0.11799159490E+04  0.12268977323E+04  0.17300000000E+03 0.  1.
</event>
<event>
 4    1  0.5959403E+000  0.1000000E+03  0.7546771E-02  0.1280296E+00
         21   -1    0    0  501  502  0.00000000000E+00  0.00000000000E+00  0.34066507787E+02  0.34066507787E+02  0.00000000000E+00 0. -1.
         21   -1    0    0  502  503 -0.00000000000E+00 -0.00000000000E+00 -0.21624829592E+04  0.21624829592E+04  0.00000000000E+00 0.  1.
          6    1    1    2  501    0  0.12093345593E+03 -0.15713189470E+03 -0.13333455643E+04  0.13590639157E+04  0.17300000000E+03 0. -1.
         -6    1    1    2    0  503 -0.12093345593E+03  0.15713189470E+03 -0.79507088709E+03  0.83748555127E+03  0.17300000000E+03 0.  1.
</event>
<event>
 4    1  0.5959403E+000  0.1000000E+03  0.7546771E-02  0.1280296E+00
         21   -1    0    0  501  502  0.00000000000E+00  0.00000000000E+00  0.16321624241E+03  0.16321624241E+03  0.00000000000E+00 0. -1.
         21   -1    0    0  502  503 -0.00000000000E+00 -0.00000000000E+00 -0.43370792139E+03  0.43370792139E+03  0.00000000000E+00 0.  1.
          6    1    1    2  501    0 -0.10008636472E+03  0.72217907541E+02  0.44332188617E+02  0.21708765400E+03  0.17300000000E+03 0. -1.
         -6    1    1    2    0  503  0.10008636472E+03 -0.72217907541E+02 -0.31482386759E+03  0.37983650980E+03  0.17300000000E+03 0.  1.
</event>
<event>
 4    1  0.5959403E+000  0.1000000E+03  0.7546771E-02  0.1280296E+00
         21   -1    0    0  503  502  0.00000000000E+00  0.00000000000E+00  0.71457936554E+02  0.71457936554E+02  0.00000000000E+00 0.  1.
         21   -1    0    0  501  503 -0.00000000000E+00 -0.00000000000E+00 -0.57947546012E+03  0.57947546012E+03  0.00000000000E+00 0.  1.
          6    1    1    2  501    0 -0.83062455334E+01 -0.78759700558E+02 -0.36942292572E+03  0.41554107161E+03  0.17300000000E+03 0.  1.
         -6    1    1    2    0  502  0.83062455334E+01  0.78759700558E+02 -0.13859459785E+03  0.23539232506E+03  0.17300000000E+03 0.  1.
</event>
<event>
 4    1  0.5959403E+000  0.1000000E+03  0.7546771E-02  0.1280296E+00
         21   -1    0    0  503  502  0.00000000000E+00  0.00000000000E+00  0.37076785679E+02  0.37076785679E+02  0.00000000000E+00 0.  1.
         21   -1    0    0  501  503 -0.00000000000E+00 -0.00000000000E+00 -0.10593306527E+04  0.10593306527E+04  0.00000000000E+00 0.  1.
          6    1    1    2  501    0 -0.14757067796E+02  0.60567425912E+01 -0.77490072406E+03  0.79413763752E+03  0.17300000000E+03 0.  1.
         -6    1    1    2    0  502  0.14757067796E+02 -0.60567425912E+01 -0.24735314300E+03  0.30226980089E+03  0.17300000000E+03 0.  1.
</event>
<event>
 4    1  0.5959403E+000  0.1000000E+03  0.7546771E-02  0.1280296E+00
         21   -1    0    0  503  502  0.00000000000E+00  0.00000000000E+00  0.25342580987E+03  0.25342580987E+03  0.00000000000E+00 0. -1.
         21   -1    0    0  501  503 -0.00000000000E+00 -0.00000000000E+00 -0.13946889038E+03  0.13946889038E+03  0.00000000000E+00 0. -1.
          6    1    1    2  501    0 -0.45125032267E+02  0.23513493018E+02  0.14220070833E+01  0.18033351046E+03  0.17300000000E+03 0. -1.
         -6    1    1    2    0  502  0.45125032267E+02 -0.23513493018E+02  0.11253491241E+03  0.21256118978E+03  0.17300000000E+03 0. -1.
</event>
<event>
 4    1  0.5959403E+000  0.1000000E+03  0.7546771E-02  0.1280296E+00
         21   -1    0    0  503  502  0.00000000000E+00  0.00000000000E+00  0.15429288892E+03  0.15429288892E+03  0.00000000000E+00 0. -1.
         21   -1    0    0  501  503 -0.00000000000E+00 -0.00000000000E+00 -0.37624523953E+03  0.37624523953E+03  0.00000000000E+00 0. -1.
          6    1    1    2  501    0 -0.56573297042E+01  0.16350033037E+03 -0.70395039859E+02  0.24829181430E+03  0.17300000000E+03 0. -1.
         -6    1    1    2    0  502  0.56573297042E+01 -0.16350033037E+03 -0.15155731075E+03  0.28224631415E+03  0.17300000000E+03 0. -1.
</event>
<event>
 4    1  0.5959403E+000  0.1000000E+03  0.7546771E-02  0.1280296E+00
         21   -1    0    0  503  502  0.00000000000E+00  0.00000000000E+00  0.53349866830E+03  0.53349866830E+03  0.00000000000E+00 0. -1.
         21   -1    0    0  501  503 -0.00000000000E+00 -0.00000000000E+00 -0.13181180918E+03  0.13181180918E+03  0.00000000000E+00 0. -1.
          6    1    1    2  501    0  0.13075510690E+02  0.17114190089E+03  0.69684316792E+02  0.25346680893E+03  0.17300000000E+03 0. -1.
         -6    1    1    2    0  502 -0.13075510690E+02 -0.17114190089E+03  0.33200254232E+03  0.41184366856E+03  0.17300000000E+03 0. -1.
</event>
<event>
 4    1  0.5959403E+000  0.1000000E+03  0.7546771E-02  0.1280296E+00
         21   -1    0    0  503  502  0.00000000000E+00  0.00000000000E+00  0.14644402771E+04  0.14644402771E+04  0.00000000000E+00 0. -1.
         21   -1    0    0  501  503 -0.00000000000E+00 -0.00000000000E+00 -0.30998608015E+02  0.30998608015E+02  0.00000000000E+00 0. -1.
          6    1    1    2  501    0  0.10809285787E+03 -0.61432593155E+02  0.72700082652E+03  0.75757325137E+03  0.17300000000E+03 0. -1.
         -6    1    1    2    0  502 -0.10809285787E+03  0.61432593155E+02  0.70644084255E+03  0.73786563373E+03  0.17300000000E+03 0. -1.
</event>
<event>
 4    1  0.5959403E+000  0.1000000E+03  0.7546771E-02  0.1280296E+00
         21   -1    0    0  503  502  0.00000000000E+00  0.00000000000E+00  0.11368736900E+03  0.11368736900E+03  0.00000000000E+00 0. -1.
         21   -1    0    0  501  503 -0.00000000000E+00 -0.00000000000E+00 -0.61504570552E+03  0.61504570552E+03  0.00000000000E+00 0. -1.
          6    1    1    2  501    0 -0.96908209183E+02 -0.52014785844E+02 -0.48082806929E+03  0.52270581704E+03  0.17300000000E+03 0. -1.
         -6    1    1    2    0  502  0.96908209183E+02  0.52014785844E+02 -0.20530267235E+02  0.20602725748E+03  0.17300000000E+03 0. -1.
</event>
<event>
 4    1  0.5959403E+000  0.1000000E+03  0.7546771E-02  0.1280296E+00
         21   -1    0    0  501  502  0.00000000000E+00  0.00000000000E+00  0.41315313078E+02  0.41315313078E+02  0.00000000000E+00 0.  1.
         21   -1    0    0  502  503 -0.00000000000E+00 -0.00000000000E+00 -0.12163265374E+04  0.12163265374E+04  0.00000000000E+00 0.  1.
          6    1    1    2  501    0 -0.84896670065E+02 -0.41087920558E+02 -0.28763339253E+03  0.34865115847E+03  0.17300000000E+03 0. -1.
         -6    1    1    2    0  503  0.84896670065E+02  0.41087920558E+02 -0.88737783178E+03  0.90899069200E+03  0.17300000000E+03 0. -1.
</event>
<event>
 4    1  0.5959403E+000  0.1000000E+03  0.7546771E-02  0.1280296E+00
         21   -1    0    0  501  502  0.00000000000E+00  0.00000000000E+00  0.19849854322E+04  0.19849854322E+04  0.00000000000E+00 0.  1.
         21   -1    0    0  502  503 -0.00000000000E+00 -0.00000000000E+00 -0.61862057775E+02  0.61862057775E+02  0.00000000000E+00 0.  1.
          6    1    1    2  501    0 -0.11511288166E+02 -0.65314957232E+02  0.18302362176E+04  0.18395902168E+04  0.17300000000E+03 0. -1.
         -6    1    1    2    0  503  0.11511288166E+02  0.65314957232E+02  0.92887156811E+02  0.20725727320E+03  0.17300000000E+03 0. -1.
</event>
<event>
 4    1  0.5959403E+000  0.1000000E+03  0.7546771E-02  0.1280296E+00
         21   -1    0    0  503  502  0.00000000000E+00  0.00000000000E+00  0.46427598748E+03  0.46427598748E+03  0.00000000000E+00 0. -1.
         21   -1    0    0  501  503 -0.00000000000E+00 -0.00000000000E+00 -0.32749792557E+03  0.32749792557E+03  0.00000000000E+00 0. -1.
          6    1    1    2  501    0 -0.26292022813E+03 -0.63561479126E+02  0.29302011736E+03  0.43469172660E+03  0.17300000000E+03 0. -1.
         -6    1    1    2    0  502  0.26292022813E+03  0.63561479126E+02 -0.15624205545E+03  0.35708218645E+03  0.17300000000E+03 0. -1.
</event>
<event>
 4    1  0.5959403E+000  0.1000000E+03  0.7546771E-02  0.1280296E+00
         21   -1    0    0  503  502  0.00000000000E+00  0.00000000000E+00  0.10919908938E+03  0.10919908938E+03  0.00000000000E+00 0. -1.
         21   -1    0    0  501  503 -0.00000000000E+00 -0.00000000000E+00 -0.80398236583E+03  0.80398236583E+03  0.00000000000E+00 0. -1.
          6    1    1    2  501    0  0.35361634806E+02  0.98477721137E+02 -0.68117038002E+03  0.71054232344E+03  0.17300000000E+03 0. -1.
         -6    1    1    2    0  502 -0.35361634806E+02 -0.98477721137E+02 -0.13612896424E+02  0.20263913177E+03  0.17300000000E+03 0. -1.
</event>
<event>
 4    1  0.5959403E+000  0.1000000E+03  0.7546771E-02  0.1280296E+00
         21   -1    0    0  503  502  0.00000000000E+00  0.00000000000E+00  0.49477249827E+03  0.49477249827E+03  0.00000000000E+00 0.  1.
         21   -1    0    0  501  503 -0.00000000000E+00 -0.00000000000E+00 -0.87182997635E+02  0.87182997635E+02  0.00000000000E+00 0.  1.
          6    1    1    2  501    0  0.50667264435E+02 -0.50257646726E+02  0.77596937099E+02  0.20259142970E+03  0.17300000000E+03 0.  1.
         -6    1    1    2    0  502 -0.50667264435E+02  0.50257646726E+02  0.32999256353E+03  0.37936406620E+03  0.17300000000E+03 0.  1.
</event>
<event>
 4    1  0.5959403E+000  0.1000000E+03  0.7546771E-02  0.1280296E+00
         21   -1    0    0  503  502  0.00000000000E+00  0.00000000000E+00  0.17087020861E+03  0.17087020861E+03  0.00000000000E+00 0.  1.
         21   -1    0    0  501  503 -0.00000000000E+00 -0.00000000000E+00 -0.83302038931E+03  0.83302038931E+03  0.00000000000E+00 0.  1.
          6    1    1    2  501    0  0.70564278457E+02 -0.23016922653E+02 -0.76607063102E+03  0.78886139963E+03  0.17300000000E+03 0.  1.
         -6    1    1    2    0  502 -0.70564278457E+02  0.23016922653E+02  0.10392045032E+03  0.21502919829E+03  0.17300000000E+03 0.  1.
</event>
<event>
 4    1  0.5959403E+000  0.1000000E+03  0.7546771E-02  0.1280296E+00
         21   -1    0    0  503  502  0.00000000000E+00  0.00000000000E+00  0.13702421175E+04  0.13702421175E+04  0.00000000000E+00 0.  1.
         21   -1    0    0  501  503 -0.00000000000E+00 -0.00000000000E+00 -0.38710866061E+02  0.38710866061E+02  0.00000000000E+00 0.  1.
          6    1    1    2  501    0 -0.11409332919E+03  0.92195137407E+02  0.54352722353E+03  0.58895506946E+03  0.17300000000E+03 0.  1.
         -6    1    1    2    0  502  0.11409332919E+03 -0.92195137407E+02  0.78800402795E+03  0.81999791414E+03  0.17300000000E+03 0.  1.
</event>
<event>
 4    1  0.5959403E+000  0.1000000E+03  0.7546771E-02  0.1280296E+00
         21   -1    0    0  503  502  0.00000000000E+00  0.00000000000E+00  0.55300476634E+03  0.55300476634E+03  0.00000000000E+00 0.  1.
         21   -1    0    0  501  503 -0.00000000000E+00 -0.00000000000E+00 -0.94777241774E+02  0.94777241774E+02  0.00000000000E+00 0.  1.
          6    1    1    2  501    0 -0.12203610205E+03  0.65272606155E+02  0.31075335391E+03  0.38164115381E+03  0.17300000000E+03 0.  1.
         -6    1    1    2    0  502  0.12203610205E+03 -0.65272606155E+02  0.14747417065E+03  0.26614085430E+03  0.17300000000E+03 0.  1.
</event>
<event>
 4    1  0.5959403E+000  0.1000000E+03  0.7546771E-02  0.1280296E+00
         21   -1    0    0  503  502  0.00000000000E+00  0.00000000000E+00  0.13446447558E+04  0.13446447558E+04  0.00000000000E+00 0.  1.
         21   -1    0    0  501  503 -0.00000000000E+00 -0.00000000000E+00 -0.60485530425E+02  0.60485530425E+02  0.00000000000E+00 0. -1.
          6    1    1    2  501    0 -0.11784066151E+03  0.15547787293E+03  0.35751563594E+03  0.44249996657E+03  0.17300000000E+03 0. -1.
         -6    1    1    2    0  502  0.11784066151E+03 -0.15547787293E+03  0.92664358941E+03  0.96263031963E+03  0.17300000000E+03 0.  1.
</event>
<event>
 4    1  0.5959403E+000  0.1000000E+03  0.7546771E-02  0.1280296E+00
         21   -1    0    0  501  502  0.00000000000E+00  0.00000000000E+00  0.74661901198E+03  0.74661901198E+03  0.00000000000E+00 0. -1.
         21   -1    0    0  502  503 -0.00000000000E+00 -0.00000000000E+00 -0.39984707782E+03  0.39984707782E+03  0.00000000000E+00 0.  1.
          6    1    1    2  501    0  0.59079308441E+02 -0.37084232655E+01  0.71356764906E+03  0.73662195655E+03  0.17300000000E+03 0.  1.
         -6    1    1    2    0  503 -0.59079308441E+02  0.37084232655E+01 -0.36679571490E+03  0.40984413325E+03  0.17300000000E+03 0. -1.
</event>
<event>
 4    1  0.5959403E+000  0.1000000E+03  0.7546771E-02  0.1280296E+00
         21   -1    0    0  503  502  0.00000000000E+00  0.00000000000E+00  0.10776611330E+04  0.10776611330E+04  0.00000000000E+00 0.  1.
         21   -1    0    0  501  503 -0.00000000000E+00 -0.00000000000E+00 -0.98970360072E+02  0.98970360072E+02  0.00000000000E+00 0.  1.
          6    1    1    2  501    0  0.20487841081E+03 -0.13472722181E+03  0.25724123774E+03  0.39525769051E+03  0.17300000000E+03 0.  1.
         -6    1    1    2    0  502 -0.20487841081E+03  0.13472722181E+03  0.72144953519E+03  0.78137380257E+03  0.17300000000E+03 0.  1.
</event>
<event>
 4    1  0.5959403E+000  0.1000000E+03  0.7546771E-02  0.1280296E+00
         21   -1    0    0  503  502  0.00000000000E+00  0.00000000000E+00  0.58954320318E+02  0.58954320318E+02  0.00000000000E+00 0.  1.
         21   -1    0    0  501  503 -0.00000000000E+00 -0.00000000000E+00 -0.60963765570E+03  0.60963765570E+03  0.00000000000E+00 0.  1.
          6    1    1    2  501    0  0.37851978925E+02  0.58699861386E+02 -0.21597875716E+03  0.28540194390E+03  0.17300000000E+03 0.  1.
         -6    1    1    2    0  502 -0.37851978925E+02 -0.58699861386E+02 -0.33470457822E+03  0.38319003212E+03  0.17300000000E+03 0.  1.
</event>
<event>
 4    1  0.5959403E+000  0.1000000E+03  0.7546771E-02  0.1280296E+00
         21   -1    0    0  501  502  0.00000000000E+00  0.00000000000E+00  0.25688456608E+03  0.25688456608E+03  0.00000000000E+00 0.  1.
         21   -1    0    0  502  503 -0.00000000000E+00 -0.00000000000E+00 -0.55071728315E+03  0.55071728315E+03  0.00000000000E+00 0.  1.
          6    1    1    2  501    0  0.12121604766E+03 -0.60303543016E+02  0.18085400539E+03  0.28454704141E+03  0.17300000000E+03 0.  1.
         -6    1    1    2    0  503 -0.12121604766E+03  0.60303543016E+02 -0.47468672245E+03  0.52305480782E+03  0.17300000000E+03 0.  1.
</event>
<event>
 4    1  0.5959403E+000  0.1000000E+03  0.7546771E-02  0.1280296E+00
         21   -1    0    0  501  502  0.00000000000E+00  0.00000000000E+00  0.65954841788E+03  0.65954841788E+03  0.00000000000E+00 0.  1.
         21   -1    0    0  502  503 -0.00000000000E+00 -0.00000000000E+00 -0.12567249213E+03  0.12567249213E+03  0.00000000000E+00 0.  1.
          6    1    1    2  501    0  0.21403558574E+03  0.65505857800E+02  0.33981415040E+03  0.44215936740E+03  0.17300000000E+03 0.  1.
         -6    1    1    2    0  503 -0.21403558574E+03 -0.65505857800E+02  0.19406177535E+03  0.34306154261E+03  0.17300000000E+03 0.  1.
</event>
<event>
 4    1  0.5959403E+000  0.1000000E+03  0.7546771E-02  0.1280296E+00
         21   -1    0    0  501  502  0.00000000000E+00  0.00000000000E+00  0.13076712730E+03  0.13076712730E+03  0.00000000000E+00 0.  1.
         21   -1    0    0  502  503 -0.00000000000E+00 -0.00000000000E+00 -0.23817000765E+03  0.23817000765E+03  0.00000000000E+00 0.  1.
          6    1    1    2  501    0  0.10941498107E+02  0.29606731818E+02 -0.38214015149E+02  0.17995995639E+03  0.17300000000E+03 0.  1.
         -6    1    1    2    0  503 -0.10941498107E+02 -0.29606731818E+02 -0.69188865207E+02  0.18897717856E+03  0.17300000000E+03 0.  1.
</event>
<event>
 4    1  0.5959403E+000  0.1000000E+03  0.7546771E-02  0.1280296E+00
         21   -1    0    0  503  502  0.00000000000E+00  0.00000000000E+00  0.18305659355E+04  0.18305659355E+04  0.00000000000E+00 0.  1.
         21   -1    0    0  501  503 -0.00000000000E+00 -0.00000000000E+00 -0.46942262504E+02  0.46942262504E+02  0.00000000000E+00 0. -1.
          6    1    1    2  501    0 -0.66136186022E+02 -0.10542548547E+03  0.24723249794E+03  0.32640685674E+03  0.17300000000E+03 0. -1.
         -6    1    1    2    0  502  0.66136186022E+02  0.10542548547E+03  0.15363911751E+04  0.15511013413E+04  0.17300000000E+03 0.  1.
</event>
<event>
 4    1  0.5959403E+000  0.1000000E+03  0.7546771E-02  0.1280296E+00
         21   -1    0    0  503  502  0.00000000000E+00  0.00000000000E+00  0.38936614889E+02  0.38936614889E+02  0.00000000000E+00 0.  1.
         21   -1    0    0  501  503 -0.00000000000E+00 -0.00000000000E+00 -0.16563794276E+04  0.16563794276E+04  0.00000000000E+00 0. -1.
          6    1    1    2  501    0 -0.33472535744E+02 -0.42370031347E+02 -0.14025250819E+04  0.14141857147E+04  0.17300000000E+03 0. -1.
         -6    1    1    2    0  502  0.33472535744E+02  0.42370031347E+02 -0.21491773081E+03  0.28113032782E+03  0.17300000000E+03 0.  1.
</event>
<event>
 4    1  0.5959403E+000  0.1000000E+03  0.7546771E-02  0.1280296E+00
         21   -1    0    0  501  502  0.00000000000E+00  0.00000000000E+00  0.62187688448E+02  0.62187688448E+02  0.00000000000E+00 0. -1.
         21   -1    0    0  502  503 -0.00000000000E+00 -0.00000000000E+00 -0.13074647065E+04  0.13074647065E+04  0.00000000000E+00 0. -1.
          6    1    1    2  501    0 -0.87912918358E+01 -0.65308365857E+02 -0.10176559905E+03  0.21125270794E+03  0.17300000000E+03 0. -1.
         -6    1    1    2    0  503  0.87912918358E+01  0.65308365857E+02 -0.11435114190E+04  0.11583996870E+04  0.17300000000E+03 0. -1.
</event>
<event>
 4    1  0.5959403E+000  0.1000000E+03  0.7546771E-02  0.1280296E+00
         21   -1    0    0  501  502  0.00000000000E+00  0.00000000000E+00  0.90444621055E+03  0.90444621055E+03  0.00000000000E+00 0. -1.
         21   -1    0    0  502  503 -0.00000000000E+00 -0.00000000000E+00 -0.57884771980E+02  0.57884771980E+02  0.00000000000E+00 0. -1.
          6    1    1    2  501    0 -0.14663995543E+03  0.25502481951E+02  0.38866182163E+03  0.45071128753E+03  0.17300000000E+03 0. -1.
         -6    1    1    2    0  503  0.14663995543E+03 -0.25502481951E+02  0.45789961694E+03  0.51161969500E+03  0.17300000000E+03 0. -1.
</event>
<event>
 4    1  0.5959403E+000  0.1000000E+03  0.7546771E-02  0.1280296E+00
         21   -1    0    0  503  502  0.00000000000E+00  0.00000000000E+00  0.30523526029E+03  0.30523526029E+03  0.00000000000E+00 0. -1.
         21   -1    0    0  501  503 -0.00000000000E+00 -0.00000000000E+00 -0.17188966639E+03  0.17188966639E+03  0.00000000000E+00 0. -1.
          6    1    1    2  501    0 -0.12136233689E+03  0.53902550351E+02 -0.62582276335E+01  0.21817989633E+03  0.17300000000E+03 0. -1.
         -6    1    1    2    0  502  0.12136233689E+03 -0.53902550351E+02  0.13960382153E+03  0.25894503034E+03  0.17300000000E+03 0. -1.
</event>
<event>
 4    1  0.5959403E+000  0.1000000E+03  0.7546771E-02  0.1280296E+00
         21   -1    0    0  503  502  0.00000000000E+00  0.00000000000E+00  0.10712662286E+03  0.10712662286E+03  0.00000000000E+00 0. -1.
         21   -1    0    0  501  503 -0.00000000000E+00 -0.00000000000E+00 -0.35469206572E+03  0.35469206572E+03  0.00000000000E+00 0. -1.
          6    1    1    2  501    0 -0.27121456451E+02 -0.85352697032E+02 -0.13193031124E+03  0.23527699274E+03  0.17300000000E+03 0. -1.
         -6    1    1    2    0  502  0.27121456451E+02  0.85352697032E+02 -0.11563513161E+03  0.22654169584E+03  0.17300000000E+03 0. -1.
</event>
<event>
 4    1  0.5959403E+000  0.1000000E+03  0.7546771E-02  0.1280296E+00
         21   -1    0    0  501  502  0.00000000000E+00  0.00000000000E+00  0.38318093186E+02  0.38318093186E+02  0.00000000000E+00 0. -1.
         21   -1    0    0  502  503 -0.00000000000E+00 -0.00000000000E+00 -0.11561858237E+04  0.11561858237E+04  0.00000000000E+00 0.  1.
          6    1    1    2  501    0 -0.15141873413E+02 -0.10154883958E+03 -0.38327226451E+03  0.43286033763E+03  0.17300000000E+03 0. -1.
         -6    1    1    2    0  503  0.15141873413E+02  0.10154883958E+03 -0.73459546604E+03  0.76164357929E+03  0.17300000000E+03 0.  1.
</event>
<event>
 4    1  0.5959403E+000  0.1000000E+03  0.7546771E-02  0.1280296E+00
         21   -1    0    0  501  502  0.00000000000E+00  0.00000000000E+00  0.39911846404E+03  0.39911846404E+03  0.00000000000E+00 0.  1.
         21   -1    0    0  502  503 -0.00000000000E+00 -0.00000000000E+00 -0.54545076586E+03  0.54545076586E+03  0.00000000000E+00 0.  1.
          6    1    1    2  501    0 -0.12682553523E+03 -0.23817341343E+03  0.27003358139E+03  0.41911624441E+03  0.17300000000E+03 0.  1.
         -6    1    1    2    0  503  0.12682553523E+03  0.23817341343E+03 -0.41636588321E+03  0.52545298548E+03  0.17300000000E+03 0.  1.
</event>
<event>
 4    1  0.5959403E+000  0.1000000E+03  0.7546771E-02  0.1280296E+00
         21   -1    0    0  503  502  0.00000000000E+00  0.00000000000E+00  0.62598535823E+03  0.62598535823E+03  0.00000000000E+00 0. -1.
         21   -1    0    0  501  503 -0.00000000000E+00 -0.00000000000E+00 -0.95544257865E+02  0.95544257865E+02  0.00000000000E+00 0. -1.
          6    1    1    2  501    0  0.16379976689E+03 -0.54829089518E+02  0.25546730739E+03  0.35359459531E+03  0.17300000000E+03 0. -1.
         -6    1    1    2    0  502 -0.16379976689E+03  0.54829089518E+02  0.27497379298E+03  0.36793502078E+03  0.17300000000E+03 0. -1.
</event>
<event>
 4    1  0.5959403E+000  0.1000000E+03  0.7546771E-02  0.1280296E+00
         21   -1    0    0  503  502  0.00000000000E+00  0.00000000000E+00  0.28276174220E+03  0.28276174220E+03  0.00000000000E+00 0. -1.
         21   -1    0    0  501  503 -0.00000000000E+00 -0.00000000000E+00 -0.20008238353E+03  0.20008238353E+03  0.00000000000E+00 0. -1.
          6    1    1    2  501    0 -0.29673415184E+02 -0.48471313376E+02 -0.11397936654E+03  0.21482615247E+03  0.17300000000E+03 0. -1.
         -6    1    1    2    0  502  0.29673415184E+02  0.48471313376E+02  0.19665872521E+03  0.26801797326E+03  0.17300000000E+03 0. -1.
</event>
<event>
 4    1  0.5959403E+000  0.1000000E+03  0.7546771E-02  0.1280296E+00
         21   -1    0    0  501  502  0.00000000000E+00  0.00000000000E+00  0.52024695625E+02  0.52024695625E+02  0.00000000000E+00 0. -1.
         21   -1    0    0  502  503 -0.00000000000E+00 -0.00000000000E+00 -0.77169425731E+03  0.77169425731E+03  0.00000000000E+00 0. -1.
          6    1    1    2  501    0 -0.56882280347E+02 -0.46471455566E+02 -0.21708387148E+03  0.28714037901E+03  0.17300000000E+03 0. -1.
         -6    1    1    2    0  503  0.56882280347E+02  0.46471455566E+02 -0.50258569021E+03  0.53657857393E+03  0.17300000000E+03 0. -1.
</event>
<event>
 4    1  0.5959403E+000  0.1000000E+03  0.7546771E-02  0.1280296E+00
         21   -1    0    0  501  502  0.00000000000E+00  0.00000000000E+00  0.66076633329E+03  0.66076633329E+03  0.00000000000E+00 0. -1.
         21   -1    0    0  502  503 -0.00000000000E+00 -0.00000000000E+00 -0.68534581580E+02  0.68534581580E+02  0.00000000000E+00 0. -1.
          6    1    1    2  501    0  0.54206947375E+01  0.10329988171E+03  0.41304126604E+03  0.45960019250E+03  0.17300000000E+03 0. -1.
         -6    1    1    2    0  503 -0.54206947375E+01 -0.10329988171E+03  0.17919048566E+03  0.26970072237E+03  0.17300000000E+03 0. -1.
</event>
<event>
 4    1  0.5959403E+000  0.1000000E+03  0.7546771E-02  0.1280296E+00
         21   -1    0    0  503  502  0.00000000000E+00  0.00000000000E+00  0.83226763157E+02  0.83226763157E+02  0.00000000000E+00 0. -1.
         21   -1    0    0  501  503 -0.00000000000E+00 -0.00000000000E+00 -0.65372715347E+03  0.65372715347E+03  0.00000000000E+00 0. -1.
          6    1    1    2  501    0 -0.10069632100E+03 -0.53513225655E+02 -0.45447356365E+03  0.49947836234E+03  0.17300000000E+03 0. -1.
         -6    1    1    2    0  502  0.10069632100E+03  0.53513225655E+02 -0.11602682666E+03  0.23747555429E+03  0.17300000000E+03 0. -1.
</event>
<event>
 4    1  0.5959403E+000  0.1000000E+03  0.7546771E-02  0.1280296E+00
         21   -1    0    0  503  502  0.00000000000E+00  0.00000000000E+00  0.27716908584E+04  0.27716908584E+04  0.00000000000E+00 0. -1.
         21   -1    0    0  501  503 -0.00000000000E+00 -0.00000000000E+00 -0.19679391463E+02  0.19679391463E+02  0.00000000000E+00 0. -1.
          6    1    1    2  501    0  0.14383375716E+03 -0.28412163563E+02  0.10421634027E+04  0.10665500263E+04  0.17300000000E+03 0. -1.
         -6    1    1    2    0  502 -0.14383375716E+03  0.28412163563E+02  0.17098480642E+04  0.17248202235E+04  0.17300000000E+03 0. -1.
</event>
<event>
 4    1  0.5959403E+000  0.1000000E+03  0.7546771E-02  0.1280296E+00
         21   -1    0    0  503  502  0.00000000000E+00  0.00000000000E+00  0.34191296186E+03  0.34191296186E+03  0.00000000000E+00 0. -1.
         21   -1    0    0  501  503 -0.00000000000E+00 -0.00000000000E+00 -0.18668037872E+03  0.18668037872E+03  0.00000000000E+00 0. -1.
          6    1    1    2  501    0  0.38817066352E+02  0.57851969086E+02 -0.10067348472E+03  0.21193811713E+03  0.17300000000E+03 0. -1.
         -6    1    1    2    0  502 -0.38817066352E+02 -0.57851969086E+02  0.25590606786E+03  0.31665522345E+03  0.17300000000E+03 0. -1.
</event>
<event>
 4    1  0.5959403E+000  0.1000000E+03  0.7546771E-02  0.1280296E+00
         21   -1    0    0  503  502  0.00000000000E+00  0.00000000000E+00  0.10712527289E+04  0.10712527289E+04  0.00000000000E+00 0. -1.
         21   -1    0    0  501  503 -0.00000000000E+00 -0.00000000000E+00 -0.29899542284E+03  0.29899542284E+03  0.00000000000E+00 0.  1.
          6    1    1    2  501    0  0.32297268730E+03  0.37545185085E+03  0.12905580273E+03  0.54024054760E+03  0.17300000000E+03 0. -1.
         -6    1    1    2    0  502 -0.32297268730E+03 -0.37545185085E+03  0.64320150331E+03  0.83000760412E+03  0.17300000000E+03 0.  1.
</event>
<event>
 4    1  0.5959403E+000  0.1000000E+03  0.7546771E-02  0.1280296E+00
         21   -1    0    0  501  502  0.00000000000E+00  0.00000000000E+00  0.27039539751E+03  0.27039539751E+03  0.00000000000E+00 0.  1.
         21   -1    0    0  502  503 -0.00000000000E+00 -0.00000000000E+00 -0.18705405291E+03  0.18705405291E+03  0.00000000000E+00 0.  1.
          6    1    1    2  501    0  0.86733528038E+01  0.13482595169E+03  0.91455803545E+02  0.23779492909E+03  0.17300000000E+03 0.  1.
         -6    1    1    2    0  503 -0.86733528038E+01 -0.13482595169E+03 -0.81144589489E+01  0.21965452133E+03  0.17300000000E+03 0.  1.
</event>
<event>
 4    1  0.5959403E+000  0.1000000E+03  0.7546771E-02  0.1280296E+00
         21   -1    0    0  501  502  0.00000000000E+00  0.00000000000E+00  0.96727345101E+03  0.96727345101E+03  0.00000000000E+00 0.  1.
         21   -1    0    0  502  503 -0.00000000000E+00 -0.00000000000E+00 -0.53127668595E+03  0.53127668595E+03  0.00000000000E+00 0.  1.
          6    1    1    2  501    0 -0.48703932518E+02 -0.47982391762E+03  0.74202388751E+03  0.90173805210E+03  0.17300000000E+03 0.  1.
         -6    1    1    2    0  503  0.48703932518E+02  0.47982391762E+03 -0.30602712245E+03  0.59681208486E+03  0.17300000000E+03 0.  1.
</event>
<event>
 4    1  0.5959403E+000  0.1000000E+03  0.7546771E-02  0.1280296E+00
         21   -1    0    0  501  502  0.00000000000E+00  0.00000000000E+00  0.18720516284E+03  0.18720516284E+03  0.00000000000E+00 0.  1.
         21   -1    0    0  502  503 -0.00000000000E+00 -0.00000000000E+00 -0.27198234047E+03  0.27198234047E+03  0.00000000000E+00 0.  1.
          6    1    1    2  501    0  0.13084222786E+03  0.93952285840E+00  0.20883735653E+02  0.21791214218E+03  0.17300000000E+03 0.  1.
         -6    1    1    2    0  503 -0.13084222786E+03 -0.93952285840E+00 -0.10566091328E+03  0.24127536113E+03  0.17300000000E+03 0.  1.
</event>
<event>
 4    1  0.5959403E+000  0.1000000E+03  0.7546771E-02  0.1280296E+00
         21   -1    0    0  503  502  0.00000000000E+00  0.00000000000E+00  0.75122079475E+02  0.75122079475E+02  0.00000000000E+00 0.  1.
         21   -1    0    0  501  503 -0.00000000000E+00 -0.00000000000E+00 -0.42978460813E+03  0.42978460813E+03  0.00000000000E+00 0.  1.
          6    1    1    2  501    0  0.39855081652E+02 -0.18971841882E+02 -0.20574378401E+03  0.27241120200E+03  0.17300000000E+03 0.  1.
         -6    1    1    2    0  502 -0.39855081652E+02  0.18971841882E+02 -0.14891874464E+03  0.23249548560E+03  0.17300000000E+03 0.  1.
</event>
<event>
 4    1  0.5959403E+000  0.1000000E+03  0.7546771E-02  0.1280296E+00
         21   -1    0    0  501  502  0.00000000000E+00  0.00000000000E+00  0.51008541094E+02  0.51008541094E+02  0.00000000000E+00 0.  1.
         21   -1    0    0  502  503 -0.00000000000E+00 -0.00000000000E+00 -0.12728993568E+04  0.12728993568E+04  0.00000000000E+00 0.  1.
          6    1    1    2  501    0  0.18205913625E+03  0.35535442174E+02 -0.67412335684E+03  0.72026356078E+03  0.17300000000E+03 0.  1.
         -6    1    1    2    0  503 -0.18205913625E+03 -0.35535442174E+02 -0.54776745885E+03  0.60364433710E+03  0.17300000000E+03 0.  1.
</event>
<event>
 4    1  0.5959403E+000  0.1000000E+03  0.7546771E-02  0.1280296E+00
         21   -1    0    0  501  502  0.00000000000E+00  0.00000000000E+00  0.23249896410E+03  0.23249896410E+03  0.00000000000E+00 0.  1.
         21   -1    0    0  502  503 -0.00000000000E+00 -0.00000000000E+00 -0.53750057180E+03  0.53750057180E+03  0.00000000000E+00 0.  1.
          6    1    1    2  501    0 -0.66569909929E+02  0.16228018760E+01  0.17532030022E+03  0.25514778867E+03  0.17300000000E+03 0.  1.
         -6    1    1    2    0  503  0.66569909929E+02 -0.16228018760E+01 -0.48032190792E+03  0.51485174723E+03  0.17300000000E+03 0.  1.
</event>
<event>
 4    1  0.5959403E+000  0.1000000E+03  0.7546771E-02  0.1280296E+00
         21   -1    0    0  501  502  0.00000000000E+00  0.00000000000E+00  0.43656489910E+03  0.43656489910E+03  0.00000000000E+00 0.  1.
         21   -1    0    0  502  503 -0.00000000000E+00 -0.00000000000E+00 -0.11220135179E+03  0.11220135179E+03  0.00000000000E+00 0.  1.
          6    1    1    2  501    0  0.10151316178E+03 -0.80887911184E+02  0.22041564219E+03  0.30880387224E+03  0.17300000000E+03 0.  1.
         -6    1    1    2    0  503 -0.10151316178E+03  0.80887911184E+02  0.10394790512E+03  0.23996237865E+03  0.17300000000E+03 0.  1.
</event>
<event>
 4    1  0.5959403E+000  0.1000000E+03  0.7546771E-02  0.1280296E+00
         21   -1    0    0  501  502  0.00000000000E+00  0.00000000000E+00  0.72213335085E+02  0.72213335085E+02  0.00000000000E+00 0. -1.
         21   -1    0    0  502  503 -0.00000000000E+00 -0.00000000000E+00 -0.58102532052E+03  0.58102532052E+03  0.00000000000E+00 0.  1.
          6    1    1    2  501    0  0.34959662134E+02  0.10174330129E+03 -0.22039705559E+03  0.30012953778E+03  0.17300000000E+03 0.  1.
         -6    1    1    2    0  503 -0.34959662134E+02 -0.10174330129E+03 -0.28841492984E+03  0.35310911783E+03  0.17300000000E+03 0. -1.
</event>
<event>
 4    1  0.5959403E+000  0.1000000E+03  0.7546771E-02  0.1280296E+00
         21   -1    0    0  503  502  0.00000000000E+00  0.00000000000E+00  0.95471169710E+03  0.95471169710E+03  0.00000000000E+00 0.  1.
         21   -1    0    0  501  503 -0.00000000000E+00 -0.00000000000E+00 -0.11994374491E+03  0.11994374491E+03  0.00000000000E+00 0. -1.
          6    1    1    2  501    0 -0.20920959257E+03 -0.97863909141E+00  0.96598989650E+02  0.28814922550E+03  0.17300000000E+03 0.  1.
         -6    1    1    2    0  502  0.20920959257E+03  0.97863909141E+00  0.73816896254E+03  0.78650621651E+03  0.17300000000E+03 0. -1.
</event>
<event>
 4    1  0.5959403E+000  0.1000000E+03  0.7546771E-02  0.1280296E+00
         21   -1    0    0  503  502  0.00000000000E+00  0.00000000000E+00  0.12461623429E+04  0.12461623429E+04  0.00000000000E+00 0.  1.
         21   -1    0    0  501  503 -0.00000000000E+00 -0.00000000000E+00 -0.52221829280E+02  0.52221829280E+02  0.00000000000E+00 0.  1.
          6    1    1    2  501    0  0.66597281422E+02  0.13087670826E+03  0.30036887818E+03  0.37644969602E+03  0.17300000000E+03 0.  1.
         -6    1    1    2    0  502 -0.66597281422E+02 -0.13087670826E+03  0.89357163544E+03  0.92193447615E+03  0.17300000000E+03 0.  1.
</event>
<event>
 4    1  0.5959403E+000  0.1000000E+03  0.7546771E-02  0.1280296E+00
         21   -1    0    0  503  502  0.00000000000E+00  0.00000000000E+00  0.51660337475E+03  0.51660337475E+03  0.00000000000E+00 0.  1.
         21   -1    0    0  501  503 -0.00000000000E+00 -0.00000000000E+00 -0.13449072159E+03  0.13449072159E+03  0.00000000000E+00 0.  1.
          6    1    1    2  501    0  0.78413936701E+02  0.37290593107E+01 -0.34614691580E+02  0.19310574364E+03  0.17300000000E+03 0.  1.
         -6    1    1    2    0  502 -0.78413936701E+02 -0.37290593107E+01  0.41672734474E+03  0.45798835270E+03  0.17300000000E+03 0.  1.
</event>
<event>
 4    1  0.5959403E+000  0.1000000E+03  0.7546771E-02  0.1280296E+00
         21   -1    0    0  503  502  0.00000000000E+00  0.00000000000E+00  0.61454280057E+03  0.61454280057E+03  0.00000000000E+00 0.  1.
         21   -1    0    0  501  503 -0.00000000000E+00 -0.00000000000E+00 -0.16755337642E+03  0.16755337642E+03  0.00000000000E+00 0.  1.
          6    1    1    2  501    0 -0.12009785044E+03  0.12919339315E+03 -0.26031152864E+02  0.24843721024E+03  0.17300000000E+03 0.  1.
         -6    1    1    2    0  502  0.12009785044E+03 -0.12919339315E+03  0.47302057702E+03  0.53365896675E+03  0.17300000000E+03 0.  1.
</event>
<event>
 4    1  0.5959403E+000  0.1000000E+03  0.7546771E-02  0.1280296E+00
         21   -1    0    0  501  502  0.00000000000E+00  0.00000000000E+00  0.62561062058E+03  0.62561062058E+03  0.00000000000E+00 0. -1.
         21   -1    0    0  502  503 -0.00000000000E+00 -0.00000000000E+00 -0.13467726777E+03  0.13467726777E+03  0.00000000000E+00 0. -1.
          6    1    1    2  501    0  0.17368207837E+03 -0.77367767088E+02  0.68907788029E+02  0.26613627897E+03  0.17300000000E+03 0. -1.
         -6    1    1    2    0  503 -0.17368207837E+03  0.77367767088E+02  0.42202556478E+03  0.49415160938E+03  0.17300000000E+03 0. -1.
</event>
<event>
 4    1  0.5959403E+000  0.1000000E+03  0.7546771E-02  0.1280296E+00
         21   -1    0    0  501  502  0.00000000000E+00  0.00000000000E+00  0.70996045991E+03  0.70996045991E+03  0.00000000000E+00 0. -1.
         21   -1    0    0  502  503 -0.00000000000E+00 -0.00000000000E+00 -0.67521045289E+02  0.67521045289E+02  0.00000000000E+00 0. -1.
          6    1    1    2  501    0 -0.94831275203E+02  0.14117754416E+02  0.48792867849E+03  0.52649375784E+03  0.17300000000E+03 0. -1.
         -6    1    1    2    0  503  0.94831275203E+02 -0.14117754416E+02  0.15451073613E+03  0.25098774736E+03  0.17300000000E+03 0. -1.
</event>
<event>
 4    1  0.5959403E+000  0.1000000E+03  0.7546771E-02  0.1280296E+00
         21   -1    0    0  501  502  0.00000000000E+00  0.00000000000E+00  0.85117374731E+03  0.85117374731E+03  0.00000000000E+00 0. -1.
         21   -1    0    0  502  503 -0.00000000000E+00 -0.00000000000E+00 -0.48982111126E+02  0.48982111126E+02  0.00000000000E+00 0. -1.
          6    1    1    2  501    0  0.45879966178E+02 -0.46718114333E+02  0.59167996152E+03  0.61992074523E+03  0.17300000000E+03 0. -1.
         -6    1    1    2    0  503 -0.45879966178E+02  0.46718114333E+02  0.21051167467E+03  0.28023511321E+03  0.17300000000E+03 0. -1.
</event>
<event>
 4    1  0.5959403E+000  0.1000000E+03  0.7546771E-02  0.1280296E+00
         21   -1    0    0  501  502  0.00000000000E+00  0.00000000000E+00  0.65742301946E+03  0.65742301946E+03  0.00000000000E+00 0.  1.
         21   -1    0    0  502  503 -0.00000000000E+00 -0.00000000000E+00 -0.55420156009E+02  0.55420156009E+02  0.00000000000E+00 0.  1.
          6    1    1    2  501    0 -0.10720963930E+02 -0.38566796536E+02  0.43175249829E+03  0.46684211104E+03  0.17300000000E+03 0.  1.
         -6    1    1    2    0  503  0.10720963930E+02  0.38566796536E+02  0.17025036517E+03  0.24600106443E+03  0.17300000000E+03 0.  1.
</event>
<event>
 4    1  0.5959403E+000  0.1000000E+03  0.7546771E-02  0.1280296E+00
         21   -1    0    0  501  502  0.00000000000E+00  0.00000000000E+00  0.16540724544E+03  0.16540724544E+03  0.00000000000E+00 0.  1.
         21   -1    0    0  502  503 -0.00000000000E+00 -0.00000000000E+00 -0.20507519289E+03  0.20507519289E+03  0.00000000000E+00 0.  1.
          6    1    1    2  501    0  0.16123033150E+02 -0.58811819837E+02 -0.32114568669E+01  0.18346142866E+03  0.17300000000E+03 0.  1.
         -6    1    1    2    0  503 -0.16123033150E+02  0.58811819837E+02 -0.36456490587E+02  0.18702100967E+03  0.17300000000E+03 0.  1.
</event>
<event>
 4    1  0.5959403E+000  0.1000000E+03  0.7546771E-02  0.1280296E+00
         21   -1    0    0  501  502  0.00000000000E+00  0.00000000000E+00  0.44591826645E+03  0.44591826645E+03  0.00000000000E+00 0.  1.
         21   -1    0    0  502  503 -0.00000000000E+00 -0.00000000000E+00 -0.12796747227E+03  0.12796747227E+03  0.00000000000E+00 0.  1.
          6    1    1    2  501    0 -0.20605983834E+02 -0.14767944236E+02  0.35448582625E+03  0.39526181167E+03  0.17300000000E+03 0.  1.
         -6    1    1    2    0  503  0.20605983834E+02  0.14767944236E+02 -0.36535032083E+02  0.17862392705E+03  0.17300000000E+03 0.  1.
</event>
<event>
 4    1  0.5959403E+000  0.1000000E+03  0.7546771E-02  0.1280296E+00
         21   -1    0    0  501  502  0.00000000000E+00  0.00000000000E+00  0.24883610293E+03  0.24883610293E+03  0.00000000000E+00 0. -1.
         21   -1    0    0  502  503 -0.00000000000E+00 -0.00000000000E+00 -0.12705434514E+04  0.12705434514E+04  0.00000000000E+00 0. -1.
          6    1    1    2  501    0 -0.38716665185E+03 -0.36761499000E+03 -0.46425993233E+03  0.72835779803E+03  0.17300000000E+03 0. -1.
         -6    1    1    2    0  503  0.38716665185E+03  0.36761499000E+03 -0.55744741609E+03  0.79102175626E+03  0.17300000000E+03 0. -1.
</event>
<event>
 4    1  0.5959403E+000  0.1000000E+03  0.7546771E-02  0.1280296E+00
         21   -1    0    0  501  502  0.00000000000E+00  0.00000000000E+00  0.10554393695E+03  0.10554393695E+03  0.00000000000E+00 0. -1.
         21   -1    0    0  502  503 -0.00000000000E+00 -0.00000000000E+00 -0.35319741535E+03  0.35319741535E+03  0.00000000000E+00 0. -1.
          6    1    1    2  501    0  0.69578418392E+02 -0.40350368981E+02 -0.15905892486E+03  0.24839092206E+03  0.17300000000E+03 0. -1.
         -6    1    1    2    0  503 -0.69578418392E+02  0.40350368981E+02 -0.88594553539E+02  0.21035043023E+03  0.17300000000E+03 0. -1.
</event>
<event>
 4    1  0.5959403E+000  0.1000000E+03  0.7546771E-02  0.1280296E+00
         21   -1    0    0  501  502  0.00000000000E+00  0.00000000000E+00  0.17419504891E+03  0.17419504891E+03  0.00000000000E+00 0. -1.
         21   -1    0    0  502  503 -0.00000000000E+00 -0.00000000000E+00 -0.34552569334E+03  0.34552569334E+03  0.00000000000E+00 0. -1.
          6    1    1    2  501    0 -0.82126473630E+02  0.10119382662E+03  0.36373464630E+02  0.21962918100E+03  0.17300000000E+03 0. -1.
         -6    1    1    2    0  503  0.82126473630E+02 -0.10119382662E+03 -0.20770410906E+03  0.30009156126E+03  0.17300000000E+03 0. -1.
</event>
<event>
 4    1  0.5959403E+000  0.1000000E+03  0.7546771E-02  0.1280296E+00
         21   -1    0    0  501  502  0.00000000000E+00  0.00000000000E+00  0.29230323426E+03  0.29230323426E+03  0.00000000000E+00 0.  1.
         21   -1    0    0  502  503 -0.00000000000E+00 -0.00000000000E+00 -0.37955791001E+03  0.37955791001E+03  0.00000000000E+00 0. -1.
          6    1    1    2  501    0  0.80425045526E+02 -0.89341495440E+02  0.21658201799E+03  0.30213715639E+03  0.17300000000E+03 0. -1.
         -6    1    1    2    0  503 -0.80425045526E+02  0.89341495440E+02 -0.30383669373E+03  0.36972398788E+03  0.17300000000E+03 0.  1.
</event>
<event>
 4    1  0.5959403E+000  0.1000000E+03  0.7546771E-02  0.1280296E+00
         21   -1    0    0  501  502  0.00000000000E+00  0.00000000000E+00  0.14409511859E+03  0.14409511859E+03  0.00000000000E+00 0.  1.
         21   -1    0    0  502  503 -0.00000000000E+00 -0.00000000000E+00 -0.31425404713E+03  0.31425404713E+03  0.00000000000E+00 0. -1.
          6    1    1    2  501    0  0.36897369093E+02  0.11554507886E+03 -0.57804542422E+02  0.21904895850E+03  0.17300000000E+03 0. -1.
         -6    1    1    2    0  503 -0.36897369093E+02 -0.11554507886E+03 -0.11235438612E+03  0.23930020722E+03  0.17300000000E+03 0.  1.
</event>
<event>
 4    1  0.5959403E+000  0.1000000E+03  0.7546771E-02  0.1280296E+00
         21   -1    0    0  501  502  0.00000000000E+00  0.00000000000E+00  0.57617750025E+02  0.57617750025E+02  0.00000000000E+00 0.  1.
         21   -1    0    0  502  503 -0.00000000000E+00 -0.00000000000E+00 -0.74633928350E+03  0.74633928350E+03  0.00000000000E+00 0. -1.
          6    1    1    2  501    0  0.11353762789E+03 -0.11297973014E+02 -0.32999089948E+03  0.38966836013E+03  0.17300000000E+03 0.  1.
         -6    1    1    2    0  503 -0.11353762789E+03  0.11297973014E+02 -0.35873063399E+03  0.41428867340E+03  0.17300000000E+03 0. -1.
</event>
<event>
 4    1  0.5959403E+000  0.1000000E+03  0.7546771E-02  0.1280296E+00
         21   -1    0    0  501  502  0.00000000000E+00  0.00000000000E+00  0.38261322409E+03  0.38261322409E+03  0.00000000000E+00 0.  1.
         21   -1    0    0  502  503 -0.00000000000E+00 -0.00000000000E+00 -0.25308444133E+03  0.25308444133E+03  0.00000000000E+00 0. -1.
          6    1    1    2  501    0  0.54395113242E+02 -0.12976943980E+02  0.32271747108E+03  0.37040895718E+03  0.17300000000E+03 0.  1.
         -6    1    1    2    0  503 -0.54395113242E+02  0.12976943980E+02 -0.19318868833E+03  0.26528870824E+03  0.17300000000E+03 0. -1.
</event>
<event>
 4    1  0.5959403E+000  0.1000000E+03  0.7546771E-02  0.1280296E+00
         21   -1    0    0  501  502  0.00000000000E+00  0.00000000000E+00  0.68131976775E+02  0.68131976775E+02  0.00000000000E+00 0.  1.
         21   -1    0    0  502  503 -0.00000000000E+00 -0.00000000000E+00 -0.57682420778E+03  0.57682420778E+03  0.00000000000E+00 0. -1.
          6    1    1    2  501    0 -0.20013442250E+02  0.51592304938E+02 -0.12514128168E+03  0.22057117713E+03  0.17300000000E+03 0.  1.
         -6    1    1    2    0  503  0.20013442250E+02 -0.51592304938E+02 -0.38355094933E+03  0.42438500743E+03  0.17300000000E+03 0. -1.
</event>
<event>
 4    1  0.5959403E+000  0.1000000E+03  0.7546771E-02  0.1280296E+00
         21   -1    0    0  503  502  0.00000000000E+00  0.00000000000E+00  0.25754332280E+03  0.25754332280E+03  0.00000000000E+00 0.  1.
         21   -1    0    0  501  503 -0.00000000000E+00 -0.00000000000E+00 -0.59515594937E+03  0.59515594937E+03  0.00000000000E+00 0.  1.
          6    1    1    2  501    0 -0.40548629055E+02  0.15291022722E+03 -0.51027783696E+03  0.56154981951E+03  0.17300000000E+03 0.  1.
         -6    1    1    2    0  502  0.40548629055E+02 -0.15291022722E+03  0.17266521039E+03  0.29114945266E+03  0.17300000000E+03 0.  1.
</event>
<event>
 4    1  0.5959403E+000  0.1000000E+03  0.7546771E-02  0.1280296E+00
         21   -1    0    0  503  502  0.00000000000E+00  0.00000000000E+00  0.75543535425E+03  0.75543535425E+03  0.00000000000E+00 0.  1.
         21   -1    0    0  501  503 -0.00000000000E+00 -0.00000000000E+00 -0.11145941431E+03  0.11145941431E+03  0.00000000000E+00 0.  1.
          6    1    1    2  501    0 -0.76182467440E+02  0.53981996453E+02  0.31716780532E+01  0.19661353928E+03  0.17300000000E+03 0.  1.
         -6    1    1    2    0  502  0.76182467440E+02 -0.53981996453E+02  0.64080426188E+03  0.67028122929E+03  0.17300000000E+03 0.  1.
</event>
<event>
 4    1  0.5959403E+000  0.1000000E+03  0.7546771E-02  0.1280296E+00
         21   -1    0    0  503  502  0.00000000000E+00  0.00000000000E+00  0.92543680520E+02  0.92543680520E+02  0.00000000000E+00 0. -1.
         21   -1    0    0  501  503 -0.00000000000E+00 -0.00000000000E+00 -0.10824986443E+04  0.10824986443E+04  0.00000000000E+00 0. -1.
          6    1    1    2  501    0 -0.37021816787E+02 -0.61639311134E+02 -0.96851913275E+03  0.98647267073E+03  0.17300000000E+03 0. -1.
         -6    1    1    2    0  502  0.37021816787E+02  0.61639311134E+02 -0.21435831040E+02  0.18856965410E+03  0.17300000000E+03 0. -1.
</event>
<event>
 4    1  0.5959403E+000  0.1000000E+03  0.7546771E-02  0.1280296E+00
         21   -1    0    0  501  502  0.00000000000E+00  0.00000000000E+00  0.22937865587E+04  0.22937865587E+04  0.00000000000E+00 0.  1.
         21   -1    0    0  502  503 -0.00000000000E+00 -0.00000000000E+00 -0.25376234110E+02  0.25376234110E+02  0.00000000000E+00 0.  1.
          6    1    1    2  501    0 -0.84700112035E+02 -0.14494082742E+03  0.11814715009E+04  0.12058133603E+04  0.17300000000E+03 0.  1.
         -6    1    1    2    0  503  0.84700112035E+02  0.14494082742E+03  0.10869388238E+04  0.11133494326E+04  0.17300000000E+03 0.  1.
</event>
<event>
 4    1  0.5959403E+000  0.1000000E+03  0.7546771E-02  0.1280296E+00
         21   -1    0    0  501  502  0.00000000000E+00  0.00000000000E+00  0.32833628494E+03  0.32833628494E+03  0.00000000000E+00 0.  1.
         21   -1    0    0  502  503 -0.00000000000E+00 -0.00000000000E+00 -0.15909322537E+03  0.15909322537E+03  0.00000000000E+00 0.  1.
          6    1    1    2  501    0 -0.97533073210E+01 -0.86412216337E+02  0.21410584603E+03  0.28867371103E+03  0.17300000000E+03 0.  1.
         -6    1    1    2    0  503  0.97533073210E+01  0.86412216337E+02 -0.44862786469E+02  0.19875579928E+03  0.17300000000E+03 0.  1.
</event>
<event>
 4    1  0.5959403E+000  0.1000000E+03  0.7546771E-02  0.1280296E+00
         21   -1    0    0  501  502  0.00000000000E+00  0.00000000000E+00  0.94134634992E+03  0.94134634992E+03  0.00000000000E+00 0.  1.
         21   -1    0    0  502  503 -0.00000000000E+00 -0.00000000000E+00 -0.46555677158E+02  0.46555677158E+02  0.00000000000E+00 0. -1.
          6    1    1    2  501    0 -0.26895734933E+02 -0.11409032764E+03  0.41792184791E+03  0.46725544874E+03  0.17300000000E+03 0. -1.
         -6    1    1    2    0  503  0.26895734933E+02  0.11409032764E+03  0.47686882486E+03  0.52064657834E+03  0.17300000000E+03 0.  1.
</event>
<event>
 4    1  0.5959403E+000  0.1000000E+03  0.7546771E-02  0.1280296E+00
         21   -1    0    0  503  502  0.00000000000E+00  0.00000000000E+00  0.71255235211E+03  0.71255235211E+03  0.00000000000E+00 0. -1.
         21   -1    0    0  501  503 -0.00000000000E+00 -0.00000000000E+00 -0.11119473022E+03  0.11119473022E+03  0.00000000000E+00 0. -1.
          6    1    1    2  501    0 -0.15764989949E+03  0.84500449727E+02  0.10816915226E+03  0.27133629008E+03  0.17300000000E+03 0. -1.
         -6    1    1    2    0  502  0.15764989949E+03 -0.84500449727E+02  0.49318846963E+03  0.55241079224E+03  0.17300000000E+03 0. -1.
</event>
<event>
 4    1  0.5959403E+000  0.1000000E+03  0.7546771E-02  0.1280296E+00
         21   -1    0    0  503  502  0.00000000000E+00  0.00000000000E+00  0.33934306029E+02  0.33934306029E+02  0.00000000000E+00 0. -1.
         21   -1    0    0  501  503 -0.00000000000E+00 -0.00000000000E+00 -0.22273459025E+04  0.22273459025E+04  0.00000000000E+00 0. -1.
          6    1    1    2  501    0 -0.15636125654E+03  0.66215002983E+02 -0.16300887673E+04  0.16480144594E+04  0.17300000000E+03 0. -1.
         -6    1    1    2    0  502  0.15636125654E+03 -0.66215002983E+02 -0.56332282916E+03  0.61326574910E+03  0.17300000000E+03 0. -1.
</event>
<event>
 4    1  0.5959403E+000  0.1000000E+03  0.7546771E-02  0.1280296E+00
         21   -1    0    0  503  502  0.00000000000E+00  0.00000000000E+00  0.34971420356E+02  0.34971420356E+02  0.00000000000E+00 0. -1.
         21   -1    0    0  501  503 -0.00000000000E+00 -0.00000000000E+00 -0.11409776376E+04  0.11409776376E+04  0.00000000000E+00 0.  1.
          6    1    1    2  501    0  0.14150606793E+02 -0.31627099773E+02 -0.82868928225E+03  0.84726350071E+03  0.17300000000E+03 0.  1.
         -6    1    1    2    0  502 -0.14150606793E+02  0.31627099773E+02 -0.27731693501E+03  0.32868555727E+03  0.17300000000E+03 0. -1.
</event>
<event>
 4    1  0.5959403E+000  0.1000000E+03  0.7546771E-02  0.1280296E+00
         21   -1    0    0  503  502  0.00000000000E+00  0.00000000000E+00  0.18704668034E+03  0.18704668034E+03  0.00000000000E+00 0.  1.
         21   -1    0    0  501  503 -0.00000000000E+00 -0.00000000000E+00 -0.32381132720E+03  0.32381132720E+03  0.00000000000E+00 0.  1.
          6    1    1    2  501    0 -0.96676205715E+02  0.14047953698E+03 -0.27414852699E+02  0.24446137366E+03  0.17300000000E+03 0.  1.
         -6    1    1    2    0  502  0.96676205715E+02 -0.14047953698E+03 -0.10934979417E+03  0.26639663389E+03  0.17300000000E+03 0.  1.
</event>
<event>
 4    1  0.5959403E+000  0.1000000E+03  0.7546771E-02  0.1280296E+00
         21   -1    0    0  503  502  0.00000000000E+00  0.00000000000E+00  0.53427772534E+03  0.53427772534E+03  0.00000000000E+00 0.  1.
         21   -1    0    0  501  503 -0.00000000000E+00 -0.00000000000E+00 -0.17013537241E+03  0.17013537241E+03  0.00000000000E+00 0.  1.
          6    1    1    2  501    0 -0.37020168913E+02 -0.18749890280E+02 -0.10228012633E+03  0.20521275675E+03  0.17300000000E+03 0. -1.
         -6    1    1    2    0  502  0.37020168913E+02  0.18749890280E+02  0.46642247926E+03  0.49920034100E+03  0.17300000000E+03 0. -1.
</event>
<event>
 4    1  0.5959403E+000  0.1000000E+03  0.7546771E-02  0.1280296E+00
         21   -1    0    0  501  502  0.00000000000E+00  0.00000000000E+00  0.84691422228E+02  0.84691422228E+02  0.00000000000E+00 0. -1.
         21   -1    0    0  502  503 -0.00000000000E+00 -0.00000000000E+00 -0.58914438269E+03  0.58914438269E+03  0.00000000000E+00 0.  1.
          6    1    1    2  501    0 -0.43374986674E+02  0.13341705606E+03 -0.22676420825E+03  0.31785610968E+03  0.17300000000E+03 0.  1.
         -6    1    1    2    0  503  0.43374986674E+02 -0.13341705606E+03 -0.27768875221E+03  0.35597969524E+03  0.17300000000E+03 0. -1.
</event>
<event>
 4    1  0.5959403E+000  0.1000000E+03  0.7546771E-02  0.1280296E+00
         21   -1    0    0  501  502  0.00000000000E+00  0.00000000000E+00  0.46715425062E+03  0.46715425062E+03  0.00000000000E+00 0. -1.
         21   -1    0    0  502  503 -0.00000000000E+00 -0.00000000000E+00 -0.66207646585E+02  0.66207646585E+02  0.00000000000E+00 0.  1.
          6    1    1    2  501    0 -0.52206294705E+01  0.31181976021E+02  0.19928613617E+03  0.26578851494E+03  0.17300000000E+03 0.  1.
         -6    1    1    2    0  503  0.52206294705E+01 -0.31181976021E+02  0.20166046786E+03  0.26757338227E+03  0.17300000000E+03 0. -1.
</event>
<event>
 4    1  0.5959403E+000  0.1000000E+03  0.7546771E-02  0.1280296E+00
         21   -1    0    0  501  502  0.00000000000E+00  0.00000000000E+00  0.26169389851E+03  0.26169389851E+03  0.00000000000E+00 0. -1.
         21   -1    0    0  502  503 -0.00000000000E+00 -0.00000000000E+00 -0.37642081186E+03  0.37642081186E+03  0.00000000000E+00 0.  1.
          6    1    1    2  501    0 -0.27533434925E+01 -0.16952477597E+03  0.14552162332E+03  0.28258056094E+03  0.17300000000E+03 0.  1.
         -6    1    1    2    0  503  0.27533434925E+01  0.16952477597E+03 -0.26024853668E+03  0.35553414943E+03  0.17300000000E+03 0. -1.
</event>
<event>
 4    1  0.5959403E+000  0.1000000E+03  0.7546771E-02  0.1280296E+00
         21   -1    0    0  501  502  0.00000000000E+00  0.00000000000E+00  0.23021573784E+03  0.23021573784E+03  0.00000000000E+00 0. -1.
         21   -1    0    0  502  503 -0.00000000000E+00 -0.00000000000E+00 -0.20981205610E+03  0.20981205610E+03  0.00000000000E+00 0.  1.
          6    1    1    2  501    0  0.12942545525E+03 -0.40256360986E+02  0.11433709254E+02  0.22007101757E+03  0.17300000000E+03 0. -1.
         -6    1    1    2    0  503 -0.12942545525E+03  0.40256360986E+02  0.89699724944E+01  0.21995677637E+03  0.17300000000E+03 0.  1.
</event>
<event>
 4    1  0.5959403E+000  0.1000000E+03  0.7546771E-02  0.1280296E+00
         21   -1    0    0  501  502  0.00000000000E+00  0.00000000000E+00  0.25344131385E+03  0.25344131385E+03  0.00000000000E+00 0. -1.
         21   -1    0    0  502  503 -0.00000000000E+00 -0.00000000000E+00 -0.19407051825E+03  0.19407051825E+03  0.00000000000E+00 0.  1.
          6    1    1    2  501    0 -0.11054135331E+03  0.83335207412E+02  0.19990351494E+02  0.22246968724E+03  0.17300000000E+03 0. -1.
         -6    1    1    2    0  503  0.11054135331E+03 -0.83335207412E+02  0.39380444111E+02  0.22504214487E+03  0.17300000000E+03 0.  1.
</event>
<event>
 4    1  0.5959403E+000  0.1000000E+03  0.7546771E-02  0.1280296E+00
         21   -1    0    0  501  502  0.00000000000E+00  0.00000000000E+00  0.15149968056E+03  0.15149968056E+03  0.00000000000E+00 0. -1.
         21   -1    0    0  502  503 -0.00000000000E+00 -0.00000000000E+00 -0.71427363056E+03  0.71427363056E+03  0.00000000000E+00 0.  1.
          6    1    1    2  501    0  0.22866474107E+03  0.14773334417E+03 -0.19640413451E+03  0.37764571869E+03  0.17300000000E+03 0. -1.
         -6    1    1    2    0  503 -0.22866474107E+03 -0.14773334417E+03 -0.36636981549E+03  0.48812759243E+03  0.17300000000E+03 0.  1.
</event>
<event>
 4    1  0.5959403E+000  0.1000000E+03  0.7546771E-02  0.1280296E+00
         21   -1    0    0  501  502  0.00000000000E+00  0.00000000000E+00  0.17974846951E+04  0.17974846951E+04  0.00000000000E+00 0. -1.
         21   -1    0    0  502  503 -0.00000000000E+00 -0.00000000000E+00 -0.33602523150E+02  0.33602523150E+02  0.00000000000E+00 0.  1.
          6    1    1    2  501    0 -0.45831546880E+02  0.13300607345E+03  0.12669258757E+04  0.12863985855E+04  0.17300000000E+03 0. -1.
         -6    1    1    2    0  503  0.45831546880E+02 -0.13300607345E+03  0.49695629626E+03  0.54468863276E+03  0.17300000000E+03 0.  1.
</event>
<event>
 4    1  0.5959403E+000  0.1000000E+03  0.7546771E-02  0.1280296E+00
         21   -1    0    0  503  502  0.00000000000E+00  0.00000000000E+00  0.37998220632E+03  0.37998220632E+03  0.00000000000E+00 0. -1.
         21   -1    0    0  501  503 -0.00000000000E+00 -0.00000000000E+00 -0.23494431641E+03  0.23494431641E+03  0.00000000000E+00 0. -1.
          6    1    1    2  501    0 -0.15408907755E+03  0.13589356031E+03 -0.62182781219E+02  0.27569222302E+03  0.17300000000E+03 0. -1.
         -6    1    1    2    0  502  0.15408907755E+03 -0.13589356031E+03  0.20722067113E+03  0.33923429971E+03  0.17300000000E+03 0. -1.
</event>
<event>
 4    1  0.5959403E+000  0.1000000E+03  0.7546771E-02  0.1280296E+00
         21   -1    0    0  501  502  0.00000000000E+00  0.00000000000E+00  0.19616740065E+03  0.19616740065E+03  0.00000000000E+00 0. -1.
         21   -1    0    0  502  503 -0.00000000000E+00 -0.00000000000E+00 -0.18028952573E+03  0.18028952573E+03  0.00000000000E+00 0.  1.
          6    1    1    2  501    0 -0.12796199936E+02 -0.38585077019E+02  0.69519149969E+02  0.19082574018E+03  0.17300000000E+03 0.  1.
         -6    1    1    2    0  503  0.12796199936E+02  0.38585077019E+02 -0.53641275046E+02  0.18563118620E+03  0.17300000000E+03 0. -1.
</event>
<event>
 4    1  0.5959403E+000  0.1000000E+03  0.7546771E-02  0.1280296E+00
         21   -1    0    0  501  502  0.00000000000E+00  0.00000000000E+00  0.20490862088E+03  0.20490862088E+03  0.00000000000E+00 0. -1.
         21   -1    0    0  502  503 -0.00000000000E+00 -0.00000000000E+00 -0.19545456565E+03  0.19545456565E+03  0.00000000000E+00 0.  1.
          6    1    1    2  501    0 -0.79155858693E+02 -0.54610776687E+02 -0.24833517831E+02  0.19948355948E+03  0.17300000000E+03 0.  1.
         -6    1    1    2    0  503  0.79155858693E+02  0.54610776687E+02  0.34287573070E+02  0.20087962705E+03  0.17300000000E+03 0. -1.
</event>
<event>
 4    1  0.5959403E+000  0.1000000E+03  0.7546771E-02  0.1280296E+00
         21   -1    0    0  501  502  0.00000000000E+00  0.00000000000E+00  0.66123792375E+03  0.66123792375E+03  0.00000000000E+00 0. -1.
         21   -1    0    0  502  503 -0.00000000000E+00 -0.00000000000E+00 -0.16521173926E+03  0.16521173926E+03  0.00000000000E+00 0.  1.
          6    1    1    2  501    0  0.48050373991E+02 -0.12176085554E+02  0.59461592527E+03  0.62125211797E+03  0.17300000000E+03 0.  1.
         -6    1    1    2    0  503 -0.48050373991E+02  0.12176085554E+02 -0.98589740789E+02  0.20519754504E+03  0.17300000000E+03 0. -1.
</event>
<event>
 4    1  0.5959403E+000  0.1000000E+03  0.7546771E-02  0.1280296E+00
         21   -1    0    0  501  502  0.00000000000E+00  0.00000000000E+00  0.93198918041E+03  0.93198918041E+03  0.00000000000E+00 0. -1.
         21   -1    0    0  502  503 -0.00000000000E+00 -0.00000000000E+00 -0.35686566903E+02  0.35686566903E+02  0.00000000000E+00 0. -1.
          6    1    1    2  501    0  0.95767356225E+00  0.67779813952E+01  0.60017789499E+03  0.62465139383E+03  0.17300000000E+03 0. -1.
         -6    1    1    2    0  503 -0.95767356225E+00 -0.67779813952E+01  0.29612471852E+03  0.34302435349E+03  0.17300000000E+03 0. -1.
</event>
<event>
 4    1  0.5959403E+000  0.1000000E+03  0.7546771E-02  0.1280296E+00
         21   -1    0    0  501  502  0.00000000000E+00  0.00000000000E+00  0.34360391556E+02  0.34360391556E+02  0.00000000000E+00 0. -1.
         21   -1    0    0  502  503 -0.00000000000E+00 -0.00000000000E+00 -0.12327634346E+04  0.12327634346E+04  0.00000000000E+00 0. -1.
          6    1    1    2  501    0 -0.19243865008E+02  0.80500767347E+02 -0.36927969755E+03  0.41610959483E+03  0.17300000000E+03 0. -1.
         -6    1    1    2    0  503  0.19243865008E+02 -0.80500767347E+02 -0.82912334550E+03  0.85101423133E+03  0.17300000000E+03 0. -1.
</event>
<event>
 4    1  0.5959403E+000  0.1000000E+03  0.7546771E-02  0.1280296E+00
         21   -1    0    0  501  502  0.00000000000E+00  0.00000000000E+00  0.76982576411E+03  0.76982576411E+03  0.00000000000E+00 0.  1.
         21   -1    0    0  502  503 -0.00000000000E+00 -0.00000000000E+00 -0.54558650891E+02  0.54558650891E+02  0.00000000000E+00 0.  1.
          6    1    1    2  501    0  0.10633428788E+03 -0.32107869296E+01  0.41287468767E+03  0.46012150314E+03  0.17300000000E+03 0.  1.
         -6    1    1    2    0  503 -0.10633428788E+03  0.32107869296E+01  0.30239242555E+03  0.36426291186E+03  0.17300000000E+03 0.  1.
</event>
<event>
 4    1  0.5959403E+000  0.1000000E+03  0.7546771E-02  0.1280296E+00
         21   -1    0    0  501  502  0.00000000000E+00  0.00000000000E+00  0.93988995609E+02  0.93988995609E+02  0.00000000000E+00 0. -1.
         21   -1    0    0  502  503 -0.00000000000E+00 -0.00000000000E+00 -0.32864612219E+03  0.32864612219E+03  0.00000000000E+00 0. -1.
          6    1    1    2  501    0  0.24899995772E+02  0.71695852865E+01 -0.13775821086E+03  0.22266058790E+03  0.17300000000E+03 0. -1.
         -6    1    1    2    0  503 -0.24899995772E+02 -0.71695852865E+01 -0.96898915721E+02  0.19997452990E+03  0.17300000000E+03 0. -1.
</event>
<event>
 4    1  0.5959403E+000  0.1000000E+03  0.7546771E-02  0.1280296E+00
         21   -1    0    0  501  502  0.00000000000E+00  0.00000000000E+00  0.11919771890E+03  0.11919771890E+03  0.00000000000E+00 0. -1.
         21   -1    0    0  502  503 -0.00000000000E+00 -0.00000000000E+00 -0.38652672665E+03  0.38652672665E+03  0.00000000000E+00 0. -1.
          6    1    1    2  501    0 -0.10171118108E+03 -0.72049880090E+02 -0.10462265119E+03  0.23751052339E+03  0.17300000000E+03 0. -1.
         -6    1    1    2    0  503  0.10171118108E+03  0.72049880090E+02 -0.16270635656E+03  0.26821392216E+03  0.17300000000E+03 0. -1.
</event>
<event>
 4    1  0.5959403E+000  0.1000000E+03  0.7546771E-02  0.1280296E+00
         21   -1    0    0  501  502  0.00000000000E+00  0.00000000000E+00  0.45209884139E+03  0.45209884139E+03  0.00000000000E+00 0. -1.
         21   -1    0    0  502  503 -0.00000000000E+00 -0.00000000000E+00 -0.87310464579E+03  0.87310464579E+03  0.00000000000E+00 0. -1.
          6    1    1    2  501    0  0.13523489316E+03 -0.57747425696E+03 -0.90091303176E+02  0.62434800928E+03  0.17300000000E+03 0. -1.
         -6    1    1    2    0  503 -0.13523489316E+03  0.57747425696E+03 -0.33091450122E+03  0.70085547790E+03  0.17300000000E+03 0. -1.
</event>
<event>
 4    1  0.5959403E+000  0.1000000E+03  0.7546771E-02  0.1280296E+00
         21   -1    0    0  501  502  0.00000000000E+00  0.00000000000E+00  0.97641332856E+02  0.97641332856E+02  0.00000000000E+00 0.  1.
         21   -1    0    0  502  503 -0.00000000000E+00 -0.00000000000E+00 -0.46361047506E+03  0.46361047506E+03  0.00000000000E+00 0. -1.
          6    1    1    2  501    0 -0.22874325137E+02 -0.36881835982E+02 -0.29989730150E+02  0.18086428196E+03  0.17300000000E+03 0.  1.
         -6    1    1    2    0  503  0.22874325137E+02  0.36881835982E+02 -0.33597941205E+03  0.38038752595E+03  0.17300000000E+03 0. -1.
</event>
<event>
 4    1  0.5959403E+000  0.1000000E+03  0.7546771E-02  0.1280296E+00
         21   -1    0    0  503  502  0.00000000000E+00  0.00000000000E+00  0.11542090666E+04  0.11542090666E+04  0.00000000000E+00 0. -1.
         21   -1    0    0  501  503 -0.00000000000E+00 -0.00000000000E+00 -0.84427816883E+02  0.84427816883E+02  0.00000000000E+00 0. -1.
          6    1    1    2  501    0  0.47135236521E+02  0.38425983796E+02  0.33694605695E+02  0.18644734701E+03  0.17300000000E+03 0. -1.
         -6    1    1    2    0  502 -0.47135236521E+02 -0.38425983796E+02  0.10360866440E+04  0.10521895365E+04  0.17300000000E+03 0. -1.
</event>
<event>
 4    1  0.5959403E+000  0.1000000E+03  0.7546771E-02  0.1280296E+00
         21   -1    0    0  503  502  0.00000000000E+00  0.00000000000E+00  0.33041972060E+03  0.33041972060E+03  0.00000000000E+00 0. -1.
         21   -1    0    0  501  503 -0.00000000000E+00 -0.00000000000E+00 -0.13054271541E+03  0.13054271541E+03  0.00000000000E+00 0. -1.
          6    1    1    2  501    0  0.67709460688E+02 -0.77000175999E+02  0.42367149275E+02  0.20551781798E+03  0.17300000000E+03 0. -1.
         -6    1    1    2    0  502 -0.67709460688E+02  0.77000175999E+02  0.15750985591E+03  0.25544461803E+03  0.17300000000E+03 0. -1.
</event>
<event>
 4    1  0.5959403E+000  0.1000000E+03  0.7546771E-02  0.1280296E+00
         21   -1    0    0  501  502  0.00000000000E+00  0.00000000000E+00  0.85690073341E+02  0.85690073341E+02  0.00000000000E+00 0.  1.
         21   -1    0    0  502  503 -0.00000000000E+00 -0.00000000000E+00 -0.82217975296E+03  0.82217975296E+03  0.00000000000E+00 0.  1.
          6    1    1    2  501    0 -0.60736628729E+02 -0.70721234297E+02 -0.63114654211E+02  0.20640467685E+03  0.17300000000E+03 0.  1.
         -6    1    1    2    0  503  0.60736628729E+02  0.70721234297E+02 -0.67337502541E+03  0.70146514945E+03  0.17300000000E+03 0.  1.
</event>
<event>
 4    1  0.5959403E+000  0.1000000E+03  0.7546771E-02  0.1280296E+00
         21   -1    0    0  501  502  0.00000000000E+00  0.00000000000E+00  0.10774188401E+03  0.10774188401E+03  0.00000000000E+00 0.  1.
         21   -1    0    0  502  503 -0.00000000000E+00 -0.00000000000E+00 -0.41311786832E+03  0.41311786832E+03  0.00000000000E+00 0.  1.
          6    1    1    2  501    0 -0.58201932465E+02 -0.85464670027E+02 -0.75703348573E+02  0.21529438393E+03  0.17300000000E+03 0.  1.
         -6    1    1    2    0  503  0.58201932465E+02  0.85464670027E+02 -0.22967263573E+03  0.30556536841E+03  0.17300000000E+03 0.  1.
</event>
<event>
 4    1  0.5959403E+000  0.1000000E+03  0.7546771E-02  0.1280296E+00
         21   -1    0    0  501  502  0.00000000000E+00  0.00000000000E+00  0.57252210713E+03  0.57252210713E+03  0.00000000000E+00 0.  1.
         21   -1    0    0  502  503 -0.00000000000E+00 -0.00000000000E+00 -0.96033299571E+02  0.96033299571E+02  0.00000000000E+00 0.  1.
          6    1    1    2  501    0  0.10872117706E+01 -0.11998456489E+03  0.38539809278E+03  0.43915619973E+03  0.17300000000E+03 0.  1.
         -6    1    1    2    0  503 -0.10872117706E+01  0.11998456489E+03  0.91090714788E+02  0.22939920698E+03  0.17300000000E+03 0.  1.
</event>
<event>
 4    1  0.5959403E+000  0.1000000E+03  0.7546771E-02  0.1280296E+00
         21   -1    0    0  501  502  0.00000000000E+00  0.00000000000E+00  0.31933091531E+03  0.31933091531E+03  0.00000000000E+00 0.  1.
         21   -1    0    0  502  503 -0.00000000000E+00 -0.00000000000E+00 -0.57453469010E+03  0.57453469010E+03  0.00000000000E+00 0.  1.
          6    1    1    2  501    0  0.32047729295E+02 -0.26001813085E+03  0.17643098475E+03  0.36012966791E+03  0.17300000000E+03 0.  1.
         -6    1    1    2    0  503 -0.32047729295E+02  0.26001813085E+03 -0.43163475954E+03  0.53373593749E+03  0.17300000000E+03 0.  1.
</event>
<event>
 4    1  0.5959403E+000  0.1000000E+03  0.7546771E-02  0.1280296E+00
         21   -1    0    0  501  502  0.00000000000E+00  0.00000000000E+00  0.62062514926E+03  0.62062514926E+03  0.00000000000E+00 0.  1.
         21   -1    0    0  502  503 -0.00000000000E+00 -0.00000000000E+00 -0.10940188229E+03  0.10940188229E+03  0.00000000000E+00 0.  1.
          6    1    1    2  501    0 -0.14109934914E+03  0.74427764636E+02  0.41235340106E+03  0.47477662732E+03  0.17300000000E+03 0.  1.
         -6    1    1    2    0  503  0.14109934914E+03 -0.74427764636E+02  0.98869865907E+02  0.25525040423E+03  0.17300000000E+03 0.  1.
</event>
<event>
 4    1  0.5959403E+000  0.1000000E+03  0.7546771E-02  0.1280296E+00
         21   -1    0    0  501  502  0.00000000000E+00  0.00000000000E+00  0.35115593599E+03  0.35115593599E+03  0.00000000000E+00 0. -1.
         21   -1    0    0  502  503 -0.00000000000E+00 -0.00000000000E+00 -0.36979166876E+03  0.36979166876E+03  0.00000000000E+00 0. -1.
          6    1    1    2  501    0  0.32433311629E+02  0.35026384060E+01  0.30520947984E+03  0.35234360327E+03  0.17300000000E+03 0. -1.
         -6    1    1    2    0  503 -0.32433311629E+02 -0.35026384060E+01 -0.32384521261E+03  0.36860400148E+03  0.17300000000E+03 0. -1.
</event>
<event>
 4    1  0.5959403E+000  0.1000000E+03  0.7546771E-02  0.1280296E+00
         21   -1    0    0  503  502  0.00000000000E+00  0.00000000000E+00  0.22918137305E+04  0.22918137305E+04  0.00000000000E+00 0.  1.
         21   -1    0    0  501  503 -0.00000000000E+00 -0.00000000000E+00 -0.53924242655E+02  0.53924242655E+02  0.00000000000E+00 0. -1.
          6    1    1    2  501    0  0.22716613819E+03 -0.15660546870E+03  0.67726836618E+03  0.75149927944E+03  0.17300000000E+03 0.  1.
         -6    1    1    2    0  502 -0.22716613819E+03  0.15660546870E+03  0.15606211217E+04  0.15942386938E+04  0.17300000000E+03 0. -1.
</event>
<event>
 4    1  0.5959403E+000  0.1000000E+03  0.7546771E-02  0.1280296E+00
         21   -1    0    0  501  502  0.00000000000E+00  0.00000000000E+00  0.25414365425E+03  0.25414365425E+03  0.00000000000E+00 0.  1.
         21   -1    0    0  502  503 -0.00000000000E+00 -0.00000000000E+00 -0.10685704335E+04  0.10685704335E+04  0.00000000000E+00 0.  1.
          6    1    1    2  501    0 -0.15689120715E+03  0.15851619775E+03  0.14873094293E+03  0.31904878814E+03  0.17300000000E+03 0.  1.
         -6    1    1    2    0  503  0.15689120715E+03 -0.15851619775E+03 -0.96315772216E+03  0.10036652996E+04  0.17300000000E+03 0.  1.
</event>
<event>
 4    1  0.5959403E+000  0.1000000E+03  0.7546771E-02  0.1280296E+00
         21   -1    0    0  501  502  0.00000000000E+00  0.00000000000E+00  0.21074194247E+03  0.21074194247E+03  0.00000000000E+00 0.  1.
         21   -1    0    0  502  503 -0.00000000000E+00 -0.00000000000E+00 -0.23149368346E+03  0.23149368346E+03  0.00000000000E+00 0.  1.
          6    1    1    2  501    0 -0.84262621554E+02  0.17920506239E+02  0.96677057156E+02  0.21609439446E+03  0.17300000000E+03 0.  1.
         -6    1    1    2    0  503  0.84262621554E+02 -0.17920506239E+02 -0.11742879815E+03  0.22614123147E+03  0.17300000000E+03 0.  1.
</event>
<event>
 4    1  0.5959403E+000  0.1000000E+03  0.7546771E-02  0.1280296E+00
         21   -1    0    0  503  502  0.00000000000E+00  0.00000000000E+00  0.23147483124E+03  0.23147483124E+03  0.00000000000E+00 0.  1.
         21   -1    0    0  501  503 -0.00000000000E+00 -0.00000000000E+00 -0.14641730659E+03  0.14641730659E+03  0.00000000000E+00 0.  1.
          6    1    1    2  501    0  0.33036131997E+02  0.51561656044E+02  0.27552302936E+02  0.18557510552E+03  0.17300000000E+03 0.  1.
         -6    1    1    2    0  502 -0.33036131997E+02 -0.51561656044E+02  0.57505221717E+02  0.19231703231E+03  0.17300000000E+03 0.  1.
</event>
<event>
 4    1  0.5959403E+000  0.1000000E+03  0.7546771E-02  0.1280296E+00
         21   -1    0    0  503  502  0.00000000000E+00  0.00000000000E+00  0.49361712282E+02  0.49361712282E+02  0.00000000000E+00 0.  1.
         21   -1    0    0  501  503 -0.00000000000E+00 -0.00000000000E+00 -0.10601213972E+04  0.10601213972E+04  0.00000000000E+00 0.  1.
          6    1    1    2  501    0  0.10329082915E+03 -0.87131188335E+02 -0.66140524182E+03  0.69688358660E+03  0.17300000000E+03 0.  1.
         -6    1    1    2    0  502 -0.10329082915E+03  0.87131188335E+02 -0.34935444308E+03  0.41259952286E+03  0.17300000000E+03 0.  1.
</event>
<event>
 4    1  0.5959403E+000  0.1000000E+03  0.7546771E-02  0.1280296E+00
         21   -1    0    0  503  502  0.00000000000E+00  0.00000000000E+00  0.44803968587E+03  0.44803968587E+03  0.00000000000E+00 0.  1.
         21   -1    0    0  501  503 -0.00000000000E+00 -0.00000000000E+00 -0.12452950573E+03  0.12452950573E+03  0.00000000000E+00 0.  1.
          6    1    1    2  501    0  0.90914211459E+02 -0.31328836577E+02  0.31799663399E+03  0.37456341129E+03  0.17300000000E+03 0.  1.
         -6    1    1    2    0  502 -0.90914211459E+02  0.31328836577E+02  0.55135461487E+01  0.19800578031E+03  0.17300000000E+03 0.  1.
</event>
<event>
 4    1  0.5959403E+000  0.1000000E+03  0.7546771E-02  0.1280296E+00
         21   -1    0    0  501  502  0.00000000000E+00  0.00000000000E+00  0.53264761882E+02  0.53264761882E+02  0.00000000000E+00 0.  1.
         21   -1    0    0  502  503 -0.00000000000E+00 -0.00000000000E+00 -0.61988034264E+03  0.61988034264E+03  0.00000000000E+00 0. -1.
          6    1    1    2  501    0 -0.51884919955E+02 -0.56597143770E+01 -0.24793465307E+03  0.30679744047E+03  0.17300000000E+03 0. -1.
         -6    1    1    2    0  503  0.51884919955E+02  0.56597143770E+01 -0.31868092769E+03  0.36634766406E+03  0.17300000000E+03 0.  1.
</event>
<event>
 4    1  0.5959403E+000  0.1000000E+03  0.7546771E-02  0.1280296E+00
         21   -1    0    0  501  502  0.00000000000E+00  0.00000000000E+00  0.26431065774E+02  0.26431065774E+02  0.00000000000E+00 0.  1.
         21   -1    0    0  502  503 -0.00000000000E+00 -0.00000000000E+00 -0.13973205855E+04  0.13973205855E+04  0.00000000000E+00 0. -1.
          6    1    1    2  501    0  0.53434978399E+02 -0.61982083732E+02 -0.75030560504E+03  0.77432846814E+03  0.17300000000E+03 0. -1.
         -6    1    1    2    0  503 -0.53434978399E+02  0.61982083732E+02 -0.62058391466E+03  0.64942318310E+03  0.17300000000E+03 0.  1.
</event>
<event>
 4    1  0.5959403E+000  0.1000000E+03  0.7546771E-02  0.1280296E+00
         21   -1    0    0  501  502  0.00000000000E+00  0.00000000000E+00  0.71461940259E+03  0.71461940259E+03  0.00000000000E+00 0.  1.
         21   -1    0    0  502  503 -0.00000000000E+00 -0.00000000000E+00 -0.55640139572E+02  0.55640139572E+02  0.00000000000E+00 0. -1.
          6    1    1    2  501    0 -0.46169371624E+02 -0.77926205486E+02  0.40742931801E+03  0.45180942172E+03  0.17300000000E+03 0. -1.
         -6    1    1    2    0  503  0.46169371624E+02  0.77926205486E+02  0.25154994501E+03  0.31845012044E+03  0.17300000000E+03 0.  1.
</event>
<event>
 4    1  0.5959403E+000  0.1000000E+03  0.7546771E-02  0.1280296E+00
         21   -1    0    0  501  502  0.00000000000E+00  0.00000000000E+00  0.62566222867E+03  0.62566222867E+03  0.00000000000E+00 0.  1.
         21   -1    0    0  502  503 -0.00000000000E+00 -0.00000000000E+00 -0.90145228679E+02  0.90145228679E+02  0.00000000000E+00 0. -1.
          6    1    1    2  501    0 -0.15490175422E+03  0.39931196179E+02  0.22299126340E+03  0.32441201803E+03  0.17300000000E+03 0.  1.
         -6    1    1    2    0  503  0.15490175422E+03 -0.39931196179E+02  0.31252573659E+03  0.39139543932E+03  0.17300000000E+03 0. -1.
</event>
<event>
 4    1  0.5959403E+000  0.1000000E+03  0.7546771E-02  0.1280296E+00
         21   -1    0    0  501  502  0.00000000000E+00  0.00000000000E+00  0.81423111771E+03  0.81423111771E+03  0.00000000000E+00 0.  1.
         21   -1    0    0  502  503 -0.00000000000E+00 -0.00000000000E+00 -0.51196273427E+02  0.51196273427E+02  0.00000000000E+00 0. -1.
          6    1    1    2  501    0 -0.69013386603E+02  0.49751436088E+02  0.52398202528E+03  0.55832268066E+03  0.17300000000E+03 0.  1.
         -6    1    1    2    0  503  0.69013386603E+02 -0.49751436088E+02  0.23905281900E+03  0.30710471047E+03  0.17300000000E+03 0. -1.
</event>
<event>
 4    1  0.5959403E+000  0.1000000E+03  0.7546771E-02  0.1280296E+00
         21   -1    0    0  501  502  0.00000000000E+00  0.00000000000E+00  0.32384185226E+03  0.32384185226E+03  0.00000000000E+00 0. -1.
         21   -1    0    0  502  503 -0.00000000000E+00 -0.00000000000E+00 -0.22269411503E+03  0.22269411503E+03  0.00000000000E+00 0. -1.
          6    1    1    2  501    0  0.14775858973E+03  0.45742468109E+02  0.18809273468E+03  0.29871868216E+03  0.17300000000E+03 0. -1.
         -6    1    1    2    0  503 -0.14775858973E+03 -0.45742468109E+02 -0.86944997459E+02  0.24781728513E+03  0.17300000000E+03 0. -1.
</event>
<event>
 4    1  0.5959403E+000  0.1000000E+03  0.7546771E-02  0.1280296E+00
         21   -1    0    0  501  502  0.00000000000E+00  0.00000000000E+00  0.46888668346E+03  0.46888668346E+03  0.00000000000E+00 0. -1.
         21   -1    0    0  502  503 -0.00000000000E+00 -0.00000000000E+00 -0.21613212927E+03  0.21613212927E+03  0.00000000000E+00 0.  1.
          6    1    1    2  501    0 -0.11483604640E+03  0.45629229858E+02  0.38131095422E+03  0.43657346229E+03  0.17300000000E+03 0. -1.
         -6    1    1    2    0  503  0.11483604640E+03 -0.45629229858E+02 -0.12855640003E+03  0.24844535044E+03  0.17300000000E+03 0. -1.
</event>
<event>
 4    1  0.5959403E+000  0.1000000E+03  0.7546771E-02  0.1280296E+00
         21   -1    0    0  503  502  0.00000000000E+00  0.00000000000E+00  0.47105851222E+03  0.47105851222E+03  0.00000000000E+00 0.  1.
         21   -1    0    0  501  503 -0.00000000000E+00 -0.00000000000E+00 -0.19042751128E+03  0.19042751128E+03  0.00000000000E+00 0.  1.
          6    1    1    2  501    0 -0.78758188582E+02 -0.22284339634E+03  0.71250451104E+02  0.30144262861E+03  0.17300000000E+03 0.  1.
         -6    1    1    2    0  502  0.78758188582E+02  0.22284339634E+03  0.20938054984E+03  0.36004339490E+03  0.17300000000E+03 0.  1.
</event>
<event>
 4    1  0.5959403E+000  0.1000000E+03  0.7546771E-02  0.1280296E+00
         21   -1    0    0  503  502  0.00000000000E+00  0.00000000000E+00  0.39626219953E+03  0.39626219953E+03  0.00000000000E+00 0.  1.
         21   -1    0    0  501  503 -0.00000000000E+00 -0.00000000000E+00 -0.17079648747E+03  0.17079648747E+03  0.00000000000E+00 0.  1.
          6    1    1    2  501    0  0.24560913320E+02  0.14027657657E+03 -0.31319075597E+02  0.22625348814E+03  0.17300000000E+03 0.  1.
         -6    1    1    2    0  502 -0.24560913320E+02 -0.14027657657E+03  0.25678478766E+03  0.34080519886E+03  0.17300000000E+03 0.  1.
</event>
<event>
 4    1  0.5959403E+000  0.1000000E+03  0.7546771E-02  0.1280296E+00
         21   -1    0    0  501  502  0.00000000000E+00  0.00000000000E+00  0.76381545373E+03  0.76381545373E+03  0.00000000000E+00 0.  1.
         21   -1    0    0  502  503 -0.00000000000E+00 -0.00000000000E+00 -0.69186678168E+02  0.69186678168E+02  0.00000000000E+00 0.  1.
          6    1    1    2  501    0  0.76000634261E+02 -0.40850883668E+02  0.57267777648E+03  0.60442842982E+03  0.17300000000E+03 0.  1.
         -6    1    1    2    0  503 -0.76000634261E+02  0.40850883668E+02  0.12195099909E+03  0.22857370208E+03  0.17300000000E+03 0.  1.
</event>
<event>
 4    1  0.5959403E+000  0.1000000E+03  0.7546771E-02  0.1280296E+00
         21   -1    0    0  501  502  0.00000000000E+00  0.00000000000E+00  0.18685392679E+03  0.18685392679E+03  0.00000000000E+00 0.  1.
         21   -1    0    0  502  503 -0.00000000000E+00 -0.00000000000E+00 -0.33191029037E+03  0.33191029037E+03  0.00000000000E+00 0.  1.
          6    1    1    2  501    0 -0.59353894585E+00  0.71980922363E+02  0.98323928441E+02  0.21160860185E+03  0.17300000000E+03 0.  1.
         -6    1    1    2    0  503  0.59353894585E+00 -0.71980922363E+02 -0.24338029202E+03  0.30715561531E+03  0.17300000000E+03 0.  1.
</event>
<event>
 4    1  0.5959403E+000  0.1000000E+03  0.7546771E-02  0.1280296E+00
         21   -1    0    0  501  502  0.00000000000E+00  0.00000000000E+00  0.17217296514E+04  0.17217296514E+04  0.00000000000E+00 0.  1.
         21   -1    0    0  502  503 -0.00000000000E+00 -0.00000000000E+00 -0.10759545365E+03  0.10759545365E+03  0.00000000000E+00 0.  1.
          6    1    1    2  501    0  0.12392195852E+03  0.12042982766E+03  0.15597920797E+04  0.15788414509E+04  0.17300000000E+03 0.  1.
         -6    1    1    2    0  503 -0.12392195852E+03 -0.12042982766E+03  0.54342118028E+02  0.25048365413E+03  0.17300000000E+03 0.  1.
</event>
<event>
 4    1  0.5959403E+000  0.1000000E+03  0.7546771E-02  0.1280296E+00
         21   -1    0    0  501  502  0.00000000000E+00  0.00000000000E+00  0.20768100257E+02  0.20768100257E+02  0.00000000000E+00 0. -1.
         21   -1    0    0  502  503 -0.00000000000E+00 -0.00000000000E+00 -0.20899188237E+04  0.20899188237E+04  0.00000000000E+00 0. -1.
          6    1    1    2  501    0 -0.79697432740E+02 -0.79148495332E+02 -0.88615432666E+03  0.90984320394E+03  0.17300000000E+03 0. -1.
         -6    1    1    2    0  503  0.79697432740E+02  0.79148495332E+02 -0.11829963967E+04  0.12008437200E+04  0.17300000000E+03 0. -1.
</event>
<event>
 4    1  0.5959403E+000  0.1000000E+03  0.7546771E-02  0.1280296E+00
         21   -1    0    0  503  502  0.00000000000E+00  0.00000000000E+00  0.11666242200E+03  0.11666242200E+03  0.00000000000E+00 0. -1.
         21   -1    0    0  501  503 -0.00000000000E+00 -0.00000000000E+00 -0.44808498708E+03  0.44808498708E+03  0.00000000000E+00 0. -1.
          6    1    1    2  501    0  0.10147090806E+03 -0.79528146757E+02 -0.25915529053E+03  0.33721141131E+03  0.17300000000E+03 0. -1.
         -6    1    1    2    0  502 -0.10147090806E+03  0.79528146757E+02 -0.72267274556E+02  0.22753599777E+03  0.17300000000E+03 0. -1.
</event>
<event>
 4    1  0.5959403E+000  0.1000000E+03  0.7546771E-02  0.1280296E+00
         21   -1    0    0  501  502  0.00000000000E+00  0.00000000000E+00  0.20142614949E+04  0.20142614949E+04  0.00000000000E+00 0. -1.
         21   -1    0    0  502  503 -0.00000000000E+00 -0.00000000000E+00 -0.60255895079E+02  0.60255895079E+02  0.00000000000E+00 0. -1.
          6    1    1    2  501    0  0.58844203224E+02  0.11601746462E+03  0.17897662590E+04  0.18028075201E+04  0.17300000000E+03 0. -1.
         -6    1    1    2    0  503 -0.58844203224E+02 -0.11601746462E+03  0.16423934075E+03  0.27170986990E+03  0.17300000000E+03 0. -1.
</event>
<event>
 4    1  0.5959403E+000  0.1000000E+03  0.7546771E-02  0.1280296E+00
         21   -1    0    0  501  502  0.00000000000E+00  0.00000000000E+00  0.13238737165E+04  0.13238737165E+04  0.00000000000E+00 0. -1.
         21   -1    0    0  502  503 -0.00000000000E+00 -0.00000000000E+00 -0.16457632761E+03  0.16457632761E+03  0.00000000000E+00 0. -1.
          6    1    1    2  501    0  0.17891948835E+03 -0.19648635058E+03  0.11257864726E+04  0.11695910615E+04  0.17300000000E+03 0. -1.
         -6    1    1    2    0  503 -0.17891948835E+03  0.19648635058E+03  0.33510916298E+02  0.31885898260E+03  0.17300000000E+03 0. -1.
</event>
<event>
 4    1  0.5959403E+000  0.1000000E+03  0.7546771E-02  0.1280296E+00
         21   -1    0    0  501  502  0.00000000000E+00  0.00000000000E+00  0.21470514554E+03  0.21470514554E+03  0.00000000000E+00 0. -1.
         21   -1    0    0  502  503 -0.00000000000E+00 -0.00000000000E+00 -0.66397611360E+03  0.66397611360E+03  0.00000000000E+00 0. -1.
          6    1    1    2  501    0 -0.16754259522E+03  0.56404647630E+02  0.10730302597E+03  0.26962000087E+03  0.17300000000E+03 0. -1.
         -6    1    1    2    0  503  0.16754259522E+03 -0.56404647630E+02 -0.55657399403E+03  0.60906125826E+03  0.17300000000E+03 0. -1.
</event>
<event>
 4    1  0.5959403E+000  0.1000000E+03  0.7546771E-02  0.1280296E+00
         21   -1    0    0  501  502  0.00000000000E+00  0.00000000000E+00  0.14257139318E+03  0.14257139318E+03  0.00000000000E+00 0.  1.
         21   -1    0    0  502  503 -0.00000000000E+00 -0.00000000000E+00 -0.61301647306E+03  0.61301647306E+03  0.00000000000E+00 0. -1.
          6    1    1    2  501    0  0.39235867413E+02  0.13110280107E+03  0.16310438204E+02  0.22118414983E+03  0.17300000000E+03 0.  1.
         -6    1    1    2    0  503 -0.39235867413E+02 -0.13110280107E+03 -0.48675551808E+03  0.53440371642E+03  0.17300000000E+03 0. -1.
</event>
<event>
 4    1  0.5959403E+000  0.1000000E+03  0.7546771E-02  0.1280296E+00
         21   -1    0    0  503  502  0.00000000000E+00  0.00000000000E+00  0.88783368538E+03  0.88783368538E+03  0.00000000000E+00 0. -1.
         21   -1    0    0  501  503 -0.00000000000E+00 -0.00000000000E+00 -0.10440609441E+03  0.10440609441E+03  0.00000000000E+00 0.  1.
          6    1    1    2  501    0  0.21911931679E+03  0.44622246171E+02  0.20763051577E+03  0.35077606948E+03  0.17300000000E+03 0. -1.
         -6    1    1    2    0  502 -0.21911931679E+03 -0.44622246171E+02  0.57579707520E+03  0.64146371031E+03  0.17300000000E+03 0.  1.
</event>
<event>
 4    1  0.5959403E+000  0.1000000E+03  0.7546771E-02  0.1280296E+00
         21   -1    0    0  503  502  0.00000000000E+00  0.00000000000E+00  0.12505400399E+03  0.12505400399E+03  0.00000000000E+00 0. -1.
         21   -1    0    0  501  503 -0.00000000000E+00 -0.00000000000E+00 -0.35275850067E+03  0.35275850067E+03  0.00000000000E+00 0. -1.
          6    1    1    2  501    0  0.88208609611E+02  0.80025362688E+02 -0.11360970166E+03  0.23879066521E+03  0.17300000000E+03 0. -1.
         -6    1    1    2    0  502 -0.88208609611E+02 -0.80025362688E+02 -0.11409479502E+03  0.23902183945E+03  0.17300000000E+03 0. -1.
</event>
<event>
 4    1  0.5959403E+000  0.1000000E+03  0.7546771E-02  0.1280296E+00
         21   -1    0    0  503  502  0.00000000000E+00  0.00000000000E+00  0.31768299019E+03  0.31768299019E+03  0.00000000000E+00 0. -1.
         21   -1    0    0  501  503 -0.00000000000E+00 -0.00000000000E+00 -0.48662646410E+03  0.48662646410E+03  0.00000000000E+00 0. -1.
          6    1    1    2  501    0  0.46008489051E+02  0.14868464793E+03 -0.40862603461E+03  0.47024264136E+03  0.17300000000E+03 0. -1.
         -6    1    1    2    0  502 -0.46008489051E+02 -0.14868464793E+03  0.23968256070E+03  0.33406681292E+03  0.17300000000E+03 0. -1.
</event>
<event>
 4    1  0.5959403E+000  0.1000000E+03  0.7546771E-02  0.1280296E+00
         21   -1    0    0  503  502  0.00000000000E+00  0.00000000000E+00  0.12277642167E+03  0.12277642167E+03  0.00000000000E+00 0. -1.
         21   -1    0    0  501  503 -0.00000000000E+00 -0.00000000000E+00 -0.38200926274E+03  0.38200926274E+03  0.00000000000E+00 0.  1.
          6    1    1    2  501    0  0.57803138362E+01  0.30035136966E+02  0.17970201945E+02  0.17659968754E+03  0.17300000000E+03 0.  1.
         -6    1    1    2    0  502 -0.57803138362E+01 -0.30035136966E+02 -0.27720304302E+03  0.32818599687E+03  0.17300000000E+03 0. -1.
</event>
<event>
 4    1  0.5959403E+000  0.1000000E+03  0.7546771E-02  0.1280296E+00
         21   -1    0    0  503  502  0.00000000000E+00  0.00000000000E+00  0.18590473401E+02  0.18590473401E+02  0.00000000000E+00 0. -1.
         21   -1    0    0  501  503 -0.00000000000E+00 -0.00000000000E+00 -0.19534621900E+04  0.19534621900E+04  0.00000000000E+00 0. -1.
          6    1    1    2  501    0  0.35923374083E+02  0.44553503317E+02 -0.12560453239E+04  0.12691943741E+04  0.17300000000E+03 0. -1.
         -6    1    1    2    0  502 -0.35923374083E+02 -0.44553503317E+02 -0.67882639265E+03  0.70285828929E+03  0.17300000000E+03 0. -1.
</event>
<event>
 4    1  0.5959403E+000  0.1000000E+03  0.7546771E-02  0.1280296E+00
         21   -1    0    0  501  502  0.00000000000E+00  0.00000000000E+00  0.20726643488E+04  0.20726643488E+04  0.00000000000E+00 0. -1.
         21   -1    0    0  502  503 -0.00000000000E+00 -0.00000000000E+00 -0.63782556998E+02  0.63782556998E+02  0.00000000000E+00 0. -1.
          6    1    1    2  501    0  0.35316743367E+02  0.12853131086E+03  0.18584910854E+04  0.18712791574E+04  0.17300000000E+03 0. -1.
         -6    1    1    2    0  503 -0.35316743367E+02 -0.12853131086E+03  0.15039070635E+03  0.26516774840E+03  0.17300000000E+03 0. -1.
</event>
<event>
 4    1  0.5959403E+000  0.1000000E+03  0.7546771E-02  0.1280296E+00
         21   -1    0    0  501  502  0.00000000000E+00  0.00000000000E+00  0.83519560769E+03  0.83519560769E+03  0.00000000000E+00 0. -1.
         21   -1    0    0  502  503 -0.00000000000E+00 -0.00000000000E+00 -0.60182675909E+02  0.60182675909E+02  0.00000000000E+00 0. -1.
          6    1    1    2  501    0  0.33010305170E+02 -0.10036384744E+03  0.57875401898E+03  0.61322736127E+03  0.17300000000E+03 0. -1.
         -6    1    1    2    0  503 -0.33010305170E+02  0.10036384744E+03  0.19625891280E+03  0.28215092233E+03  0.17300000000E+03 0. -1.
</event>
<event>
 4    1  0.5959403E+000  0.1000000E+03  0.7546771E-02  0.1280296E+00
         21   -1    0    0  501  502  0.00000000000E+00  0.00000000000E+00  0.79338897756E+02  0.79338897756E+02  0.00000000000E+00 0. -1.
         21   -1    0    0  502  503 -0.00000000000E+00 -0.00000000000E+00 -0.63489905165E+03  0.63489905165E+03  0.00000000000E+00 0. -1.
          6    1    1    2  501    0  0.48282702090E+02 -0.37208348428E+02 -0.71985862924E+02  0.19704477911E+03  0.17300000000E+03 0. -1.
         -6    1    1    2    0  503 -0.48282702090E+02  0.37208348428E+02 -0.48357429097E+03  0.51719317030E+03  0.17300000000E+03 0. -1.
</event>
<event>
 4    1  0.5959403E+000  0.1000000E+03  0.7546771E-02  0.1280296E+00
         21   -1    0    0  503  502  0.00000000000E+00  0.00000000000E+00  0.28566813651E+03  0.28566813651E+03  0.00000000000E+00 0.  1.
         21   -1    0    0  501  503 -0.00000000000E+00 -0.00000000000E+00 -0.27706709845E+03  0.27706709845E+03  0.00000000000E+00 0. -1.
          6    1    1    2  501    0 -0.10850932370E+03  0.15359944518E+03 -0.11341275901E+03  0.27956844743E+03  0.17300000000E+03 0. -1.
         -6    1    1    2    0  502  0.10850932370E+03 -0.15359944518E+03  0.12201379707E+03  0.28316678754E+03  0.17300000000E+03 0.  1.
</event>
<event>
 4    1  0.5959403E+000  0.1000000E+03  0.7546771E-02  0.1280296E+00
         21   -1    0    0  503  502  0.00000000000E+00  0.00000000000E+00  0.12264468655E+04  0.12264468655E+04  0.00000000000E+00 0.  1.
         21   -1    0    0  501  503 -0.00000000000E+00 -0.00000000000E+00 -0.10604652849E+03  0.10604652849E+03  0.00000000000E+00 0. -1.
          6    1    1    2  501    0 -0.20934066380E+02  0.11784573556E+03  0.19046960210E+02  0.21122887875E+03  0.17300000000E+03 0. -1.
         -6    1    1    2    0  502  0.20934066380E+02 -0.11784573556E+03  0.11013533768E+04  0.11212645153E+04  0.17300000000E+03 0.  1.
</event>
<event>
 4    1  0.5959403E+000  0.1000000E+03  0.7546771E-02  0.1280296E+00
         21   -1    0    0  503  502  0.00000000000E+00  0.00000000000E+00  0.97334843266E+02  0.97334843266E+02  0.00000000000E+00 0. -1.
         21   -1    0    0  501  503 -0.00000000000E+00 -0.00000000000E+00 -0.85190540983E+03  0.85190540983E+03  0.00000000000E+00 0. -1.
          6    1    1    2  501    0  0.13917122973E+03 -0.14401607778E+03 -0.56435559512E+03  0.62332615828E+03  0.17300000000E+03 0. -1.
         -6    1    1    2    0  502 -0.13917122973E+03  0.14401607778E+03 -0.19021497144E+03  0.32591409482E+03  0.17300000000E+03 0. -1.
</event>
<event>
 4    1  0.5959403E+000  0.1000000E+03  0.7546771E-02  0.1280296E+00
         21   -1    0    0  503  502  0.00000000000E+00  0.00000000000E+00  0.26771674059E+03  0.26771674059E+03  0.00000000000E+00 0.  1.
         21   -1    0    0  501  503 -0.00000000000E+00 -0.00000000000E+00 -0.28966104924E+03  0.28966104924E+03  0.00000000000E+00 0.  1.
          6    1    1    2  501    0 -0.13054423620E+03 -0.16930360133E+03  0.32795118593E+02  0.27696575028E+03  0.17300000000E+03 0.  1.
         -6    1    1    2    0  502  0.13054423620E+03  0.16930360133E+03 -0.54739427239E+02  0.28041203954E+03  0.17300000000E+03 0.  1.
</event>
<event>
 4    1  0.5959403E+000  0.1000000E+03  0.7546771E-02  0.1280296E+00
         21   -1    0    0  503  502  0.00000000000E+00  0.00000000000E+00  0.22805800138E+03  0.22805800138E+03  0.00000000000E+00 0.  1.
         21   -1    0    0  501  503 -0.00000000000E+00 -0.00000000000E+00 -0.33023140447E+03  0.33023140447E+03  0.00000000000E+00 0.  1.
          6    1    1    2  501    0 -0.15060306584E+02 -0.12807498058E+03 -0.22356655711E+03  0.31071050665E+03  0.17300000000E+03 0.  1.
         -6    1    1    2    0  502  0.15060306584E+02  0.12807498058E+03  0.12139315402E+03  0.24757889920E+03  0.17300000000E+03 0.  1.
</event>
<event>
 4    1  0.5959403E+000  0.1000000E+03  0.7546771E-02  0.1280296E+00
         21   -1    0    0  503  502  0.00000000000E+00  0.00000000000E+00  0.19472509817E+04  0.19472509817E+04  0.00000000000E+00 0.  1.
         21   -1    0    0  501  503 -0.00000000000E+00 -0.00000000000E+00 -0.27825745041E+03  0.27825745041E+03  0.00000000000E+00 0.  1.
          6    1    1    2  501    0 -0.29541588416E+03  0.22069142055E+03 -0.92375779397E+02  0.41765719477E+03  0.17300000000E+03 0.  1.
         -6    1    1    2    0  502  0.29541588416E+03 -0.22069142055E+03  0.17613693107E+04  0.18078512373E+04  0.17300000000E+03 0.  1.
</event>
<event>
 4    1  0.5959403E+000  0.1000000E+03  0.7546771E-02  0.1280296E+00
         21   -1    0    0  503  502  0.00000000000E+00  0.00000000000E+00  0.28662048970E+02  0.28662048970E+02  0.00000000000E+00 0. -1.
         21   -1    0    0  501  503 -0.00000000000E+00 -0.00000000000E+00 -0.12076058324E+04  0.12076058324E+04  0.00000000000E+00 0. -1.
          6    1    1    2  501    0  0.23686376237E+02  0.31556176230E+02 -0.77525404020E+03  0.79530161796E+03  0.17300000000E+03 0. -1.
         -6    1    1    2    0  502 -0.23686376237E+02 -0.31556176230E+02 -0.40368974319E+03  0.44096626337E+03  0.17300000000E+03 0. -1.
</event>
<event>
 4    1  0.5959403E+000  0.1000000E+03  0.7546771E-02  0.1280296E+00
         21   -1    0    0  503  502  0.00000000000E+00  0.00000000000E+00  0.12722944794E+03  0.12722944794E+03  0.00000000000E+00 0. -1.
         21   -1    0    0  501  503 -0.00000000000E+00 -0.00000000000E+00 -0.79509921391E+03  0.79509921391E+03  0.00000000000E+00 0. -1.
          6    1    1    2  501    0 -0.85291710006E+01  0.14356083403E+03 -0.65992593605E+03  0.69721854600E+03  0.17300000000E+03 0. -1.
         -6    1    1    2    0  502  0.85291710006E+01 -0.14356083403E+03 -0.79438299231E+01  0.22511011585E+03  0.17300000000E+03 0. -1.
</event>
<event>
 4    1  0.5959403E+000  0.1000000E+03  0.7546771E-02  0.1280296E+00
         21   -1    0    0  503  502  0.00000000000E+00  0.00000000000E+00  0.50451114678E+03  0.50451114678E+03  0.00000000000E+00 0. -1.
         21   -1    0    0  501  503 -0.00000000000E+00 -0.00000000000E+00 -0.94356748382E+02  0.94356748382E+02  0.00000000000E+00 0. -1.
          6    1    1    2  501    0  0.80098312470E+02 -0.24581709841E+02  0.34674023123E+03  0.39645653995E+03  0.17300000000E+03 0. -1.
         -6    1    1    2    0  502 -0.80098312470E+02  0.24581709841E+02  0.63414167169E+02  0.20241135521E+03  0.17300000000E+03 0. -1.
</event>
<event>
 4    1  0.5959403E+000  0.1000000E+03  0.7546771E-02  0.1280296E+00
         21   -1    0    0  503  502  0.00000000000E+00  0.00000000000E+00  0.83748529591E+03  0.83748529591E+03  0.00000000000E+00 0. -1.
         21   -1    0    0  501  503 -0.00000000000E+00 -0.00000000000E+00 -0.43963014506E+02  0.43963014506E+02  0.00000000000E+00 0. -1.
          6    1    1    2  501    0 -0.71517185994E+02 -0.39348429584E+02  0.36220340217E+03  0.40961361225E+03  0.17300000000E+03 0. -1.
         -6    1    1    2    0  502  0.71517185994E+02  0.39348429584E+02  0.43131887924E+03  0.47183469816E+03  0.17300000000E+03 0. -1.
</event>
<event>
 4    1  0.5959403E+000  0.1000000E+03  0.7546771E-02  0.1280296E+00
         21   -1    0    0  503  502  0.00000000000E+00  0.00000000000E+00  0.40163174933E+03  0.40163174933E+03  0.00000000000E+00 0.  1.
         21   -1    0    0  501  503 -0.00000000000E+00 -0.00000000000E+00 -0.15876138747E+03  0.15876138747E+03  0.00000000000E+00 0. -1.
          6    1    1    2  501    0  0.65775002097E+02 -0.68883852762E+02 -0.53179363354E+02  0.20451987864E+03  0.17300000000E+03 0.  1.
         -6    1    1    2    0  502 -0.65775002097E+02  0.68883852762E+02  0.29604972521E+03  0.35587325816E+03  0.17300000000E+03 0. -1.
</event>
<event>
 4    1  0.5959403E+000  0.1000000E+03  0.7546771E-02  0.1280296E+00
         21   -1    0    0  503  502  0.00000000000E+00  0.00000000000E+00  0.13456739313E+03  0.13456739313E+03  0.00000000000E+00 0.  1.
         21   -1    0    0  501  503 -0.00000000000E+00 -0.00000000000E+00 -0.48171395617E+03  0.48171395617E+03  0.00000000000E+00 0. -1.
          6    1    1    2  501    0  0.16379423462E+03  0.29647013097E+02 -0.27617226263E+03  0.36593389475E+03  0.17300000000E+03 0.  1.
         -6    1    1    2    0  502 -0.16379423462E+03 -0.29647013097E+02 -0.70974300410E+02  0.25034745455E+03  0.17300000000E+03 0. -1.
</event>
<event>
 4    1  0.5959403E+000  0.1000000E+03  0.7546771E-02  0.1280296E+00
         21   -1    0    0  503  502  0.00000000000E+00  0.00000000000E+00  0.10676967105E+04  0.10676967105E+04  0.00000000000E+00 0.  1.
         21   -1    0    0  501  503 -0.00000000000E+00 -0.00000000000E+00 -0.86480274031E+02  0.86480274031E+02  0.00000000000E+00 0. -1.
          6    1    1    2  501    0  0.10049061265E+01 -0.97455470203E+02  0.53773631309E+02  0.20571626560E+03  0.17300000000E+03 0.  1.
         -6    1    1    2    0  502 -0.10049061265E+01  0.97455470203E+02  0.92744280516E+03  0.94846071893E+03  0.17300000000E+03 0. -1.
</event>
<event>
 4    1  0.5959403E+000  0.1000000E+03  0.7546771E-02  0.1280296E+00
         21   -1    0    0  503  502  0.00000000000E+00  0.00000000000E+00  0.17494923821E+03  0.17494923821E+03  0.00000000000E+00 0.  1.
         21   -1    0    0  501  503 -0.00000000000E+00 -0.00000000000E+00 -0.58739607065E+03  0.58739607065E+03  0.00000000000E+00 0. -1.
          6    1    1    2  501    0  0.20081050738E+03 -0.10362830659E+03 -0.38167102393E+03  0.47609395744E+03  0.17300000000E+03 0.  1.
         -6    1    1    2    0  502 -0.20081050738E+03  0.10362830659E+03 -0.30775808510E+02  0.28625135142E+03  0.17300000000E+03 0. -1.
</event>
<event>
 4    1  0.5959403E+000  0.1000000E+03  0.7546771E-02  0.1280296E+00
         21   -1    0    0  501  502  0.00000000000E+00  0.00000000000E+00  0.19267574570E+03  0.19267574570E+03  0.00000000000E+00 0.  1.
         21   -1    0    0  502  503 -0.00000000000E+00 -0.00000000000E+00 -0.65164142566E+03  0.65164142566E+03  0.00000000000E+00 0.  1.
          6    1    1    2  501    0 -0.24806113953E+02 -0.18238407546E+03  0.66568073554E+02  0.26122710940E+03  0.17300000000E+03 0.  1.
         -6    1    1    2    0  503  0.24806113953E+02  0.18238407546E+03 -0.52553375351E+03  0.58309006196E+03  0.17300000000E+03 0.  1.
</event>
<event>
 4    1  0.5959403E+000  0.1000000E+03  0.7546771E-02  0.1280296E+00
         21   -1    0    0  501  502  0.00000000000E+00  0.00000000000E+00  0.49709624838E+03  0.49709624838E+03  0.00000000000E+00 0.  1.
         21   -1    0    0  502  503 -0.00000000000E+00 -0.00000000000E+00 -0.22727527157E+03  0.22727527157E+03  0.00000000000E+00 0.  1.
          6    1    1    2  501    0  0.55608654378E+01 -0.84792180964E+02  0.43163264238E+03  0.47271172521E+03  0.17300000000E+03 0.  1.
         -6    1    1    2    0  503 -0.55608654378E+01  0.84792180964E+02 -0.16181166557E+03  0.25165979474E+03  0.17300000000E+03 0.  1.
</event>
<event>
 4    1  0.5959403E+000  0.1000000E+03  0.7546771E-02  0.1280296E+00
         21   -1    0    0  503  502  0.00000000000E+00  0.00000000000E+00  0.88796414137E+02  0.88796414137E+02  0.00000000000E+00 0.  1.
         21   -1    0    0  501  503 -0.00000000000E+00 -0.00000000000E+00 -0.57281595099E+03  0.57281595099E+03  0.00000000000E+00 0. -1.
          6    1    1    2  501    0  0.14576993889E+02 -0.71107516621E+02 -0.42560046383E+03  0.46511667621E+03  0.17300000000E+03 0.  1.
         -6    1    1    2    0  502 -0.14576993889E+02  0.71107516621E+02 -0.58419073016E+02  0.19649568892E+03  0.17300000000E+03 0. -1.
</event>
<event>
 4    1  0.5959403E+000  0.1000000E+03  0.7546771E-02  0.1280296E+00
         21   -1    0    0  503  502  0.00000000000E+00  0.00000000000E+00  0.21275754410E+04  0.21275754410E+04  0.00000000000E+00 0.  1.
         21   -1    0    0  501  503 -0.00000000000E+00 -0.00000000000E+00 -0.48421741198E+02  0.48421741198E+02  0.00000000000E+00 0. -1.
          6    1    1    2  501    0 -0.20495097363E+03  0.15569844857E+03  0.75912885516E+03  0.82003202816E+03  0.17300000000E+03 0.  1.
         -6    1    1    2    0  502  0.20495097363E+03 -0.15569844857E+03  0.13200248446E+04  0.13559651540E+04  0.17300000000E+03 0. -1.
</event>
<event>
 4    1  0.5959403E+000  0.1000000E+03  0.7546771E-02  0.1280296E+00
         21   -1    0    0  503  502  0.00000000000E+00  0.00000000000E+00  0.75252122210E+02  0.75252122210E+02  0.00000000000E+00 0.  1.
         21   -1    0    0  501  503 -0.00000000000E+00 -0.00000000000E+00 -0.61616368258E+03  0.61616368258E+03  0.00000000000E+00 0. -1.
          6    1    1    2  501    0 -0.99936082993E+02 -0.49195312572E+01 -0.39916595093E+03  0.44640102918E+03  0.17300000000E+03 0.  1.
         -6    1    1    2    0  502  0.99936082993E+02  0.49195312572E+01 -0.14174560944E+03  0.24501477561E+03  0.17300000000E+03 0. -1.
</event>
<event>
 4    1  0.5959403E+000  0.1000000E+03  0.7546771E-02  0.1280296E+00
         21   -1    0    0  503  502  0.00000000000E+00  0.00000000000E+00  0.50820270202E+02  0.50820270202E+02  0.00000000000E+00 0. -1.
         21   -1    0    0  501  503 -0.00000000000E+00 -0.00000000000E+00 -0.14995485888E+04  0.14995485888E+04  0.00000000000E+00 0. -1.
          6    1    1    2  501    0 -0.10324598120E+03  0.31134007132E+02 -0.12470661788E+04  0.12636186582E+04  0.17300000000E+03 0. -1.
         -6    1    1    2    0  502  0.10324598120E+03 -0.31134007132E+02 -0.20166213979E+03  0.28675020080E+03  0.17300000000E+03 0. -1.
</event>
<event>
 4    1  0.5959403E+000  0.1000000E+03  0.7546771E-02  0.1280296E+00
         21   -1    0    0  503  502  0.00000000000E+00  0.00000000000E+00  0.10191961747E+04  0.10191961747E+04  0.00000000000E+00 0. -1.
         21   -1    0    0  501  503 -0.00000000000E+00 -0.00000000000E+00 -0.97440089163E+02  0.97440089163E+02  0.00000000000E+00 0. -1.
          6    1    1    2  501    0  0.12693002123E+03  0.21111245447E+03  0.29560948611E+03  0.42189295680E+03  0.17300000000E+03 0. -1.
         -6    1    1    2    0  502 -0.12693002123E+03 -0.21111245447E+03  0.62614659941E+03  0.69474330704E+03  0.17300000000E+03 0. -1.
</event>
<event>
 4    1  0.5959403E+000  0.1000000E+03  0.7546771E-02  0.1280296E+00
         21   -1    0    0  503  502  0.00000000000E+00  0.00000000000E+00  0.21459041721E+04  0.21459041721E+04  0.00000000000E+00 0. -1.
         21   -1    0    0  501  503 -0.00000000000E+00 -0.00000000000E+00 -0.43429654877E+02  0.43429654877E+02  0.00000000000E+00 0. -1.
          6    1    1    2  501    0 -0.14234820456E+03 -0.17650884631E+03  0.66092229033E+03  0.71983724412E+03  0.17300000000E+03 0. -1.
         -6    1    1    2    0  502  0.14234820456E+03  0.17650884631E+03  0.14415522269E+04  0.14694965828E+04  0.17300000000E+03 0. -1.
</event>
<event>
 4    1  0.5959403E+000  0.1000000E+03  0.7546771E-02  0.1280296E+00
         21   -1    0    0  503  502  0.00000000000E+00  0.00000000000E+00  0.13928141244E+03  0.13928141244E+03  0.00000000000E+00 0. -1.
         21   -1    0    0  501  503 -0.00000000000E+00 -0.00000000000E+00 -0.11243328498E+04  0.11243328498E+04  0.00000000000E+00 0. -1.
          6    1    1    2  501    0  0.26944592201E+02 -0.20954521012E+03 -0.94981251053E+03  0.98828538960E+03  0.17300000000E+03 0. -1.
         -6    1    1    2    0  502 -0.26944592201E+02  0.20954521012E+03 -0.35238926807E+02  0.27532887261E+03  0.17300000000E+03 0. -1.
</event>
<event>
 4    1  0.5959403E+000  0.1000000E+03  0.7546771E-02  0.1280296E+00
         21   -1    0    0  501  502  0.00000000000E+00  0.00000000000E+00  0.43152574778E+02  0.43152574778E+02  0.00000000000E+00 0.  1.
         21   -1    0    0  502  503 -0.00000000000E+00 -0.00000000000E+00 -0.10268064809E+04  0.10268064809E+04  0.00000000000E+00 0.  1.
          6    1    1    2  501    0 -0.66691777212E+02 -0.84288758609E+02 -0.35667392224E+03  0.41072822497E+03  0.17300000000E+03 0.  1.
         -6    1    1    2    0  503  0.66691777212E+02  0.84288758609E+02 -0.62697998386E+03  0.65923083069E+03  0.17300000000E+03 0.  1.
</event>
<event>
 4    1  0.5959403E+000  0.1000000E+03  0.7546771E-02  0.1280296E+00
         21   -1    0    0  501  502  0.00000000000E+00  0.00000000000E+00  0.31430526524E+03  0.31430526524E+03  0.00000000000E+00 0. -1.
         21   -1    0    0  502  503 -0.00000000000E+00 -0.00000000000E+00 -0.14820007451E+03  0.14820007451E+03  0.00000000000E+00 0. -1.
          6    1    1    2  501    0  0.76898481213E+01  0.16935777276E+02  0.21987227683E+03  0.28039039291E+03  0.17300000000E+03 0. -1.
         -6    1    1    2    0  503 -0.76898481213E+01 -0.16935777276E+02 -0.53767086098E+02  0.18211494684E+03  0.17300000000E+03 0. -1.
</event>
<event>
 4    1  0.5959403E+000  0.1000000E+03  0.7546771E-02  0.1280296E+00
         21   -1    0    0  501  502  0.00000000000E+00  0.00000000000E+00  0.41381843240E+02  0.41381843240E+02  0.00000000000E+00 0. -1.
         21   -1    0    0  502  503 -0.00000000000E+00 -0.00000000000E+00 -0.24163459260E+04  0.24163459260E+04  0.00000000000E+00 0. -1.
          6    1    1    2  501    0  0.63198442141E+02  0.18240286470E+03 -0.48368147228E+03  0.54876371488E+03  0.17300000000E+03 0. -1.
         -6    1    1    2    0  503 -0.63198442141E+02 -0.18240286470E+03 -0.18912826105E+04  0.19089640544E+04  0.17300000000E+03 0. -1.
</event>
<event>
 4    1  0.5959403E+000  0.1000000E+03  0.7546771E-02  0.1280296E+00
         21   -1    0    0  503  502  0.00000000000E+00  0.00000000000E+00  0.17034461492E+03  0.17034461492E+03  0.00000000000E+00 0. -1.
         21   -1    0    0  501  503 -0.00000000000E+00 -0.00000000000E+00 -0.41586960012E+03  0.41586960012E+03  0.00000000000E+00 0.  1.
          6    1    1    2  501    0  0.68577041561E+02  0.60549349011E+02 -0.32142371449E+03  0.37631268718E+03  0.17300000000E+03 0. -1.
         -6    1    1    2    0  502 -0.68577041561E+02 -0.60549349011E+02  0.75898729284E+02  0.20990152787E+03  0.17300000000E+03 0.  1.
</event>
<event>
 4    1  0.5959403E+000  0.1000000E+03  0.7546771E-02  0.1280296E+00
         21   -1    0    0  503  502  0.00000000000E+00  0.00000000000E+00  0.13968661360E+04  0.13968661360E+04  0.00000000000E+00 0. -1.
         21   -1    0    0  501  503 -0.00000000000E+00 -0.00000000000E+00 -0.13104674221E+03  0.13104674221E+03  0.00000000000E+00 0.  1.
          6    1    1    2  501    0 -0.27557209777E+03  0.19095997228E+03  0.99322467400E+03  0.10624640912E+04  0.17300000000E+03 0. -1.
         -6    1    1    2    0  502  0.27557209777E+03 -0.19095997228E+03  0.27259471984E+03  0.46544878705E+03  0.17300000000E+03 0.  1.
</event>
<event>
 4    1  0.5959403E+000  0.1000000E+03  0.7546771E-02  0.1280296E+00
         21   -1    0    0  501  502  0.00000000000E+00  0.00000000000E+00  0.57540121081E+03  0.57540121081E+03  0.00000000000E+00 0. -1.
         21   -1    0    0  502  503 -0.00000000000E+00 -0.00000000000E+00 -0.12235229825E+03  0.12235229825E+03  0.00000000000E+00 0. -1.
          6    1    1    2  501    0 -0.37901216339E+02 -0.19705818162E+03  0.20773380386E+03  0.33667604965E+03  0.17300000000E+03 0.  1.
         -6    1    1    2    0  503  0.37901216339E+02  0.19705818162E+03  0.24531510870E+03  0.36107745942E+03  0.17300000000E+03 0.  1.
</event>
<event>
 4    1  0.5959403E+000  0.1000000E+03  0.7546771E-02  0.1280296E+00
         21   -1    0    0  503  502  0.00000000000E+00  0.00000000000E+00  0.63966462544E+02  0.63966462544E+02  0.00000000000E+00 0. -1.
         21   -1    0    0  501  503 -0.00000000000E+00 -0.00000000000E+00 -0.12535435062E+04  0.12535435062E+04  0.00000000000E+00 0. -1.
          6    1    1    2  501    0 -0.32372240147E+02  0.57956318718E+02 -0.10929180084E+04  0.11085150743E+04  0.17300000000E+03 0. -1.
         -6    1    1    2    0  502  0.32372240147E+02 -0.57956318718E+02 -0.96659035229E+02  0.20899489444E+03  0.17300000000E+03 0. -1.
</event>
<event>
 4    1  0.5959403E+000  0.1000000E+03  0.7546771E-02  0.1280296E+00
         21   -1    0    0  503  502  0.00000000000E+00  0.00000000000E+00  0.15334332408E+04  0.15334332408E+04  0.00000000000E+00 0. -1.
         21   -1    0    0  501  503 -0.00000000000E+00 -0.00000000000E+00 -0.43408808128E+02  0.43408808128E+02  0.00000000000E+00 0. -1.
          6    1    1    2  501    0  0.19035995117E+03 -0.19642044047E+02  0.73408409890E+03  0.77809458626E+03  0.17300000000E+03 0. -1.
         -6    1    1    2    0  502 -0.19035995117E+03  0.19642044047E+02  0.75594033380E+03  0.79874746270E+03  0.17300000000E+03 0. -1.
</event>
<event>
 4    1  0.5959403E+000  0.1000000E+03  0.7546771E-02  0.1280296E+00
         21   -1    0    0  501  502  0.00000000000E+00  0.00000000000E+00  0.25928599882E+03  0.25928599882E+03  0.00000000000E+00 0.  1.
         21   -1    0    0  502  503 -0.00000000000E+00 -0.00000000000E+00 -0.20613941620E+03  0.20613941620E+03  0.00000000000E+00 0. -1.
          6    1    1    2  501    0  0.36515959839E+02 -0.13832767068E+03  0.82182889082E+02  0.23906272620E+03  0.17300000000E+03 0. -1.
         -6    1    1    2    0  503 -0.36515959839E+02  0.13832767068E+03 -0.29036306465E+02  0.22636268882E+03  0.17300000000E+03 0. -1.
</event>
<event>
 4    1  0.5959403E+000  0.1000000E+03  0.7546771E-02  0.1280296E+00
         21   -1    0    0  501  502  0.00000000000E+00  0.00000000000E+00  0.11969857903E+03  0.11969857903E+03  0.00000000000E+00 0.  1.
         21   -1    0    0  502  503 -0.00000000000E+00 -0.00000000000E+00 -0.49090437980E+03  0.49090437980E+03  0.00000000000E+00 0. -1.
          6    1    1    2  501    0 -0.41129189882E+02 -0.15174336549E+03 -0.10482125591E+03  0.25619163710E+03  0.17300000000E+03 0. -1.
         -6    1    1    2    0  503  0.41129189882E+02  0.15174336549E+03 -0.26638454486E+03  0.35441132173E+03  0.17300000000E+03 0. -1.
</event>
<event>
 4    1  0.5959403E+000  0.1000000E+03  0.7546771E-02  0.1280296E+00
         21   -1    0    0  501  502  0.00000000000E+00  0.00000000000E+00  0.36046796899E+03  0.36046796899E+03  0.00000000000E+00 0.  1.
         21   -1    0    0  502  503 -0.00000000000E+00 -0.00000000000E+00 -0.21421061127E+03  0.21421061127E+03  0.00000000000E+00 0.  1.
          6    1    1    2  501    0 -0.35181570954E+02  0.16478443831E+03  0.21526967138E+03  0.32351458307E+03  0.17300000000E+03 0.  1.
         -6    1    1    2    0  503  0.35181570954E+02 -0.16478443831E+03 -0.69012313661E+02  0.25116399718E+03  0.17300000000E+03 0.  1.
</event>
<event>
 4    1  0.5959403E+000  0.1000000E+03  0.7546771E-02  0.1280296E+00
         21   -1    0    0  503  502  0.00000000000E+00  0.00000000000E+00  0.39402591104E+03  0.39402591104E+03  0.00000000000E+00 0.  1.
         21   -1    0    0  501  503 -0.00000000000E+00 -0.00000000000E+00 -0.10189004042E+03  0.10189004042E+03  0.00000000000E+00 0.  1.
          6    1    1    2  501    0 -0.15038040559E+02 -0.97884447369E+02  0.12098551563E+03  0.23318233787E+03  0.17300000000E+03 0.  1.
         -6    1    1    2    0  502  0.15038040559E+02  0.97884447369E+02  0.17115035499E+03  0.26273361360E+03  0.17300000000E+03 0.  1.
</event>
<event>
 4    1  0.5959403E+000  0.1000000E+03  0.7546771E-02  0.1280296E+00
         21   -1    0    0  503  502  0.00000000000E+00  0.00000000000E+00  0.13781972529E+03  0.13781972529E+03  0.00000000000E+00 0.  1.
         21   -1    0    0  501  503 -0.00000000000E+00 -0.00000000000E+00 -0.69341109706E+03  0.69341109706E+03  0.00000000000E+00 0.  1.
          6    1    1    2  501    0 -0.23705602271E+03  0.92737416970E+02 -0.23880838285E+03  0.38955645307E+03  0.17300000000E+03 0.  1.
         -6    1    1    2    0  502  0.23705602271E+03 -0.92737416970E+02 -0.31678298893E+03  0.44167436928E+03  0.17300000000E+03 0.  1.
</event>
<event>
 4    1  0.5959403E+000  0.1000000E+03  0.7546771E-02  0.1280296E+00
         21   -1    0    0  503  502  0.00000000000E+00  0.00000000000E+00  0.29992744700E+03  0.29992744700E+03  0.00000000000E+00 0.  1.
         21   -1    0    0  501  503 -0.00000000000E+00 -0.00000000000E+00 -0.36238602364E+03  0.36238602364E+03  0.00000000000E+00 0.  1.
          6    1    1    2  501    0  0.88980952173E+02  0.21236432344E+03 -0.19239784036E+03  0.34635551778E+03  0.17300000000E+03 0.  1.
         -6    1    1    2    0  502 -0.88980952173E+02 -0.21236432344E+03  0.12993926373E+03  0.31595795286E+03  0.17300000000E+03 0.  1.
</event>
<event>
 4    1  0.5959403E+000  0.1000000E+03  0.7546771E-02  0.1280296E+00
         21   -1    0    0  501  502  0.00000000000E+00  0.00000000000E+00  0.61354137948E+03  0.61354137948E+03  0.00000000000E+00 0. -1.
         21   -1    0    0  502  503 -0.00000000000E+00 -0.00000000000E+00 -0.58411248783E+02  0.58411248783E+02  0.00000000000E+00 0. -1.
          6    1    1    2  501    0  0.52727906471E+02  0.30394223421E+02  0.36089690962E+03  0.40482047912E+03  0.17300000000E+03 0.  1.
         -6    1    1    2    0  503 -0.52727906471E+02 -0.30394223421E+02  0.19423322108E+03  0.26713214915E+03  0.17300000000E+03 0.  1.
</event>
<event>
 4    1  0.5959403E+000  0.1000000E+03  0.7546771E-02  0.1280296E+00
         21   -1    0    0  501  502  0.00000000000E+00  0.00000000000E+00  0.97172305736E+02  0.97172305736E+02  0.00000000000E+00 0. -1.
         21   -1    0    0  502  503 -0.00000000000E+00 -0.00000000000E+00 -0.60111269602E+03  0.60111269602E+03  0.00000000000E+00 0.  1.
          6    1    1    2  501    0  0.11965932750E+03  0.10014132520E+03 -0.15906568520E+03  0.28209489871E+03  0.17300000000E+03 0.  1.
         -6    1    1    2    0  503 -0.11965932750E+03 -0.10014132520E+03 -0.34487470508E+03  0.41619010304E+03  0.17300000000E+03 0.  1.
</event>
<event>
 4    1  0.5959403E+000  0.1000000E+03  0.7546771E-02  0.1280296E+00
         21   -1    0    0  501  502  0.00000000000E+00  0.00000000000E+00  0.91870311784E+03  0.91870311784E+03  0.00000000000E+00 0. -1.
         21   -1    0    0  502  503 -0.00000000000E+00 -0.00000000000E+00 -0.39609069859E+02  0.39609069859E+02  0.00000000000E+00 0.  1.
          6    1    1    2  501    0 -0.62978729753E+02  0.22856696751E+02  0.32802505802E+03  0.37685300540E+03  0.17300000000E+03 0.  1.
         -6    1    1    2    0  503  0.62978729753E+02 -0.22856696751E+02  0.55106898997E+03  0.58145918231E+03  0.17300000000E+03 0.  1.
</event>
<event>
 4    1  0.5959403E+000  0.1000000E+03  0.7546771E-02  0.1280296E+00
         21   -1    0    0  503  502  0.00000000000E+00  0.00000000000E+00  0.55437586941E+03  0.55437586941E+03  0.00000000000E+00 0.  1.
         21   -1    0    0  501  503 -0.00000000000E+00 -0.00000000000E+00 -0.23133981244E+03  0.23133981244E+03  0.00000000000E+00 0. -1.
          6    1    1    2  501    0  0.87707271823E+02  0.10761577293E+03 -0.14690682750E+03  0.26605325798E+03  0.17300000000E+03 0. -1.
         -6    1    1    2    0  502 -0.87707271823E+02 -0.10761577293E+03  0.46994288447E+03  0.51966242387E+03  0.17300000000E+03 0.  1.
</event>
<event>
 4    1  0.5959403E+000  0.1000000E+03  0.7546771E-02  0.1280296E+00
         21   -1    0    0  501  502  0.00000000000E+00  0.00000000000E+00  0.17024850192E+03  0.17024850192E+03  0.00000000000E+00 0. -1.
         21   -1    0    0  502  503 -0.00000000000E+00 -0.00000000000E+00 -0.24459059456E+03  0.24459059456E+03  0.00000000000E+00 0. -1.
          6    1    1    2  501    0 -0.73933191885E+02  0.14546079023E+02  0.41789105991E+02  0.19326933191E+03  0.17300000000E+03 0. -1.
         -6    1    1    2    0  503  0.73933191885E+02 -0.14546079023E+02 -0.11613119863E+03  0.22156976457E+03  0.17300000000E+03 0. -1.
</event>
<event>
 4    1  0.5959403E+000  0.1000000E+03  0.7546771E-02  0.1280296E+00
         21   -1    0    0  501  502  0.00000000000E+00  0.00000000000E+00  0.25877629762E+03  0.25877629762E+03  0.00000000000E+00 0. -1.
         21   -1    0    0  502  503 -0.00000000000E+00 -0.00000000000E+00 -0.54863105097E+03  0.54863105097E+03  0.00000000000E+00 0. -1.
          6    1    1    2  501    0 -0.45943193013E+02 -0.18536412504E+01  0.21030896375E+03  0.27617580127E+03  0.17300000000E+03 0. -1.
         -6    1    1    2    0  503  0.45943193013E+02  0.18536412504E+01 -0.50016371710E+03  0.53123154732E+03  0.17300000000E+03 0. -1.
</event>
<event>
 4    1  0.5959403E+000  0.1000000E+03  0.7546771E-02  0.1280296E+00
         21   -1    0    0  503  502  0.00000000000E+00  0.00000000000E+00  0.35115755618E+03  0.35115755618E+03  0.00000000000E+00 0.  1.
         21   -1    0    0  501  503 -0.00000000000E+00 -0.00000000000E+00 -0.25013224944E+03  0.25013224944E+03  0.00000000000E+00 0. -1.
          6    1    1    2  501    0 -0.50864943056E+02  0.60573437819E+02 -0.18003198589E+03  0.26191009859E+03  0.17300000000E+03 0. -1.
         -6    1    1    2    0  502  0.50864943056E+02 -0.60573437819E+02  0.28105729263E+03  0.33937970703E+03  0.17300000000E+03 0.  1.
</event>
<event>
 4    1  0.5959403E+000  0.1000000E+03  0.7546771E-02  0.1280296E+00
         21   -1    0    0  503  502  0.00000000000E+00  0.00000000000E+00  0.30056701554E+03  0.30056701554E+03  0.00000000000E+00 0.  1.
         21   -1    0    0  501  503 -0.00000000000E+00 -0.00000000000E+00 -0.44973526798E+03  0.44973526798E+03  0.00000000000E+00 0. -1.
          6    1    1    2  501    0 -0.15393423727E+03 -0.20841384961E+03 -0.27379006560E+03  0.41475544859E+03  0.17300000000E+03 0. -1.
         -6    1    1    2    0  502  0.15393423727E+03  0.20841384961E+03  0.12462181316E+03  0.33554683493E+03  0.17300000000E+03 0.  1.
</event>
<event>
 4    1  0.5959403E+000  0.1000000E+03  0.7546771E-02  0.1280296E+00
         21   -1    0    0  501  502  0.00000000000E+00  0.00000000000E+00  0.56285114577E+03  0.56285114577E+03  0.00000000000E+00 0. -1.
         21   -1    0    0  502  503 -0.00000000000E+00 -0.00000000000E+00 -0.38050788560E+03  0.38050788560E+03  0.00000000000E+00 0.  1.
          6    1    1    2  501    0  0.18599983869E+03 -0.40796501743E+02  0.48324733010E+03  0.54746440669E+03  0.17300000000E+03 0. -1.
         -6    1    1    2    0  503 -0.18599983869E+03  0.40796501743E+02 -0.30090406993E+03  0.39589462468E+03  0.17300000000E+03 0.  1.
</event>
<event>
 4    1  0.5959403E+000  0.1000000E+03  0.7546771E-02  0.1280296E+00
         21   -1    0    0  501  502  0.00000000000E+00  0.00000000000E+00  0.40259897208E+03  0.40259897208E+03  0.00000000000E+00 0. -1.
         21   -1    0    0  502  503 -0.00000000000E+00 -0.00000000000E+00 -0.10099397971E+03  0.10099397971E+03  0.00000000000E+00 0.  1.
          6    1    1    2  501    0  0.47102022738E+01  0.79905166146E+02  0.23291531652E+03  0.30097436145E+03  0.17300000000E+03 0. -1.
         -6    1    1    2    0  503 -0.47102022738E+01 -0.79905166146E+02  0.68689675860E+02  0.20261859034E+03  0.17300000000E+03 0.  1.
</event>
<event>
 4    1  0.5959403E+000  0.1000000E+03  0.7546771E-02  0.1280296E+00
         21   -1    0    0  501  502  0.00000000000E+00  0.00000000000E+00  0.89371839268E+03  0.89371839268E+03  0.00000000000E+00 0.  1.
         21   -1    0    0  502  503 -0.00000000000E+00 -0.00000000000E+00 -0.14498485964E+03  0.14498485964E+03  0.00000000000E+00 0. -1.
          6    1    1    2  501    0  0.18989304646E+03  0.73261602584E+02  0.72249234801E+03  0.77029268751E+03  0.17300000000E+03 0. -1.
         -6    1    1    2    0  503 -0.18989304646E+03 -0.73261602584E+02  0.26241185034E+02  0.26841056480E+03  0.17300000000E+03 0. -1.
</event>
<event>
 4    1  0.5959403E+000  0.1000000E+03  0.7546771E-02  0.1280296E+00
         21   -1    0    0  501  502  0.00000000000E+00  0.00000000000E+00  0.33888057441E+03  0.33888057441E+03  0.00000000000E+00 0.  1.
         21   -1    0    0  502  503 -0.00000000000E+00 -0.00000000000E+00 -0.79507104038E+03  0.79507104038E+03  0.00000000000E+00 0. -1.
          6    1    1    2  501    0 -0.41391158255E+03 -0.15763938481E+03 -0.71988454880E+00  0.47550235756E+03  0.17300000000E+03 0. -1.
         -6    1    1    2    0  503  0.41391158255E+03  0.15763938481E+03 -0.45547058142E+03  0.65844925723E+03  0.17300000000E+03 0. -1.
</event>
<event>
 4    1  0.5959403E+000  0.1000000E+03  0.7546771E-02  0.1280296E+00
         21   -1    0    0  503  502  0.00000000000E+00  0.00000000000E+00  0.11307929292E+04  0.11307929292E+04  0.00000000000E+00 0.  1.
         21   -1    0    0  501  503 -0.00000000000E+00 -0.00000000000E+00 -0.68315543500E+02  0.68315543500E+02  0.00000000000E+00 0.  1.
          6    1    1    2  501    0  0.11715009712E+03  0.14026730681E+03  0.27670900247E+03  0.37402664967E+03  0.17300000000E+03 0.  1.
         -6    1    1    2    0  502 -0.11715009712E+03 -0.14026730681E+03  0.78576838328E+03  0.82508182308E+03  0.17300000000E+03 0.  1.
</event>
<event>
 4    1  0.5959403E+000  0.1000000E+03  0.7546771E-02  0.1280296E+00
         21   -1    0    0  503  502  0.00000000000E+00  0.00000000000E+00  0.40961379469E+03  0.40961379469E+03  0.00000000000E+00 0. -1.
         21   -1    0    0  501  503 -0.00000000000E+00 -0.00000000000E+00 -0.10584136833E+03  0.10584136833E+03  0.00000000000E+00 0. -1.
          6    1    1    2  501    0  0.11370339034E+03 -0.29419308927E+01  0.17922893981E+03  0.27384143002E+03  0.17300000000E+03 0. -1.
         -6    1    1    2    0  502 -0.11370339034E+03  0.29419308927E+01  0.12454348655E+03  0.24161373300E+03  0.17300000000E+03 0. -1.
</event>
<event>
 4    1  0.5959403E+000  0.1000000E+03  0.7546771E-02  0.1280296E+00
         21   -1    0    0  503  502  0.00000000000E+00  0.00000000000E+00  0.32546312686E+03  0.32546312686E+03  0.00000000000E+00 0. -1.
         21   -1    0    0  501  503 -0.00000000000E+00 -0.00000000000E+00 -0.11626705894E+03  0.11626705894E+03  0.00000000000E+00 0. -1.
          6    1    1    2  501    0 -0.61833007246E+02  0.62603594462E+02  0.89833078595E+02  0.21387265565E+03  0.17300000000E+03 0. -1.
         -6    1    1    2    0  502  0.61833007246E+02 -0.62603594462E+02  0.11936298933E+03  0.22785753015E+03  0.17300000000E+03 0. -1.
</event>
<event>
 4    1  0.5959403E+000  0.1000000E+03  0.7546771E-02  0.1280296E+00
         21   -1    0    0  503  502  0.00000000000E+00  0.00000000000E+00  0.32190362742E+02  0.32190362742E+02  0.00000000000E+00 0. -1.
         21   -1    0    0  501  503 -0.00000000000E+00 -0.00000000000E+00 -0.13164795717E+04  0.13164795717E+04  0.00000000000E+00 0. -1.
          6    1    1    2  501    0  0.93559526873E+02  0.45082104699E+02 -0.77573477069E+03  0.80154801209E+03  0.17300000000E+03 0. -1.
         -6    1    1    2    0  502 -0.93559526873E+02 -0.45082104699E+02 -0.50855443826E+03  0.54712192234E+03  0.17300000000E+03 0. -1.
</event>
<event>
 4    1  0.5959403E+000  0.1000000E+03  0.7546771E-02  0.1280296E+00
         21   -1    0    0  501  502  0.00000000000E+00  0.00000000000E+00  0.22877759011E+03  0.22877759011E+03  0.00000000000E+00 0. -1.
         21   -1    0    0  502  503 -0.00000000000E+00 -0.00000000000E+00 -0.18285071651E+03  0.18285071651E+03  0.00000000000E+00 0. -1.
          6    1    1    2  501    0 -0.43269244106E+00  0.56452770962E+02  0.11690977620E+03  0.21629608952E+03  0.17300000000E+03 0. -1.
         -6    1    1    2    0  503  0.43269244106E+00 -0.56452770962E+02 -0.70982902600E+02  0.19533221709E+03  0.17300000000E+03 0. -1.
</event>
<event>
 4    1  0.5959403E+000  0.1000000E+03  0.7546771E-02  0.1280296E+00
         21   -1    0    0  503  502  0.00000000000E+00  0.00000000000E+00  0.18086973131E+02  0.18086973131E+02  0.00000000000E+00 0.  1.
         21   -1    0    0  501  503 -0.00000000000E+00 -0.00000000000E+00 -0.20848792585E+04  0.20848792585E+04  0.00000000000E+00 0. -1.
          6    1    1    2  501    0  0.85168273291E+02  0.18004338355E+02 -0.95636866171E+03  0.97578061473E+03  0.17300000000E+03 0.  1.
         -6    1    1    2    0  502 -0.85168273291E+02 -0.18004338355E+02 -0.11104236237E+04  0.11271856169E+04  0.17300000000E+03 0. -1.
</event>
<event>
 4    1  0.5959403E+000  0.1000000E+03  0.7546771E-02  0.1280296E+00
         21   -1    0    0  503  502  0.00000000000E+00  0.00000000000E+00  0.22708404577E+03  0.22708404577E+03  0.00000000000E+00 0.  1.
         21   -1    0    0  501  503 -0.00000000000E+00 -0.00000000000E+00 -0.27519573527E+03  0.27519573527E+03  0.00000000000E+00 0. -1.
          6    1    1    2  501    0  0.11943886072E+03  0.13256661367E+03 -0.51087618990E+02  0.25372917318E+03  0.17300000000E+03 0.  1.
         -6    1    1    2    0  502 -0.11943886072E+03 -0.13256661367E+03  0.29759294876E+01  0.24855060786E+03  0.17300000000E+03 0. -1.
</event>
<event>
 4    1  0.5959403E+000  0.1000000E+03  0.7546771E-02  0.1280296E+00
         21   -1    0    0  503  502  0.00000000000E+00  0.00000000000E+00  0.46089730538E+02  0.46089730538E+02  0.00000000000E+00 0.  1.
         21   -1    0    0  501  503 -0.00000000000E+00 -0.00000000000E+00 -0.16337984607E+04  0.16337984607E+04  0.00000000000E+00 0. -1.
          6    1    1    2  501    0  0.12440411624E+03 -0.24795127759E+02 -0.13176273660E+04  0.13349764260E+04  0.17300000000E+03 0. -1.
         -6    1    1    2    0  502 -0.12440411624E+03  0.24795127759E+02 -0.27008136420E+03  0.34491176522E+03  0.17300000000E+03 0.  1.
</event>
<event>
 4    1  0.5959403E+000  0.1000000E+03  0.7546771E-02  0.1280296E+00
         21   -1    0    0  503  502  0.00000000000E+00  0.00000000000E+00  0.41660668164E+02  0.41660668164E+02  0.00000000000E+00 0. -1.
         21   -1    0    0  501  503 -0.00000000000E+00 -0.00000000000E+00 -0.10100774954E+04  0.10100774954E+04  0.00000000000E+00 0.  1.
          6    1    1    2  501    0  0.78091804454E+02 -0.53083041673E+02 -0.63002225688E+03  0.66013118651E+03  0.17300000000E+03 0.  1.
         -6    1    1    2    0  502 -0.78091804454E+02  0.53083041673E+02 -0.33839457039E+03  0.39160697709E+03  0.17300000000E+03 0. -1.
</event>
<event>
 4    1  0.5959403E+000  0.1000000E+03  0.7546771E-02  0.1280296E+00
         21   -1    0    0  501  502  0.00000000000E+00  0.00000000000E+00  0.30359484939E+03  0.30359484939E+03  0.00000000000E+00 0.  1.
         21   -1    0    0  502  503 -0.00000000000E+00 -0.00000000000E+00 -0.90348887627E+03  0.90348887627E+03  0.00000000000E+00 0.  1.
          6    1    1    2  501    0 -0.10921483260E+03 -0.89122590568E+02  0.24606473702E+03  0.33218604820E+03  0.17300000000E+03 0.  1.
         -6    1    1    2    0  503  0.10921483260E+03  0.89122590568E+02 -0.84595876391E+03  0.87489767747E+03  0.17300000000E+03 0.  1.
</event>
<event>
 4    1  0.5959403E+000  0.1000000E+03  0.7546771E-02  0.1280296E+00
         21   -1    0    0  501  502  0.00000000000E+00  0.00000000000E+00  0.36506581245E+03  0.36506581245E+03  0.00000000000E+00 0.  1.
         21   -1    0    0  502  503 -0.00000000000E+00 -0.00000000000E+00 -0.19605938993E+03  0.19605938993E+03  0.00000000000E+00 0.  1.
          6    1    1    2  501    0 -0.16475157215E+03 -0.11926822390E+03  0.67030800079E+02  0.27530005070E+03  0.17300000000E+03 0.  1.
         -6    1    1    2    0  503  0.16475157215E+03  0.11926822390E+03  0.10197562244E+03  0.28582515167E+03  0.17300000000E+03 0.  1.
</event>
<event>
 4    1  0.5959403E+000  0.1000000E+03  0.7546771E-02  0.1280296E+00
         21   -1    0    0  501  502  0.00000000000E+00  0.00000000000E+00  0.48325016371E+02  0.48325016371E+02  0.00000000000E+00 0.  1.
         21   -1    0    0  502  503 -0.00000000000E+00 -0.00000000000E+00 -0.12347950396E+04  0.12347950396E+04  0.00000000000E+00 0.  1.
          6    1    1    2  501    0 -0.65076235955E+02  0.53991667374E+02 -0.19847264038E+03  0.27653282917E+03  0.17300000000E+03 0.  1.
         -6    1    1    2    0  503  0.65076235955E+02 -0.53991667374E+02 -0.98799738290E+03  0.10065872268E+04  0.17300000000E+03 0.  1.
</event>
<event>
 4    1  0.5959403E+000  0.1000000E+03  0.7546771E-02  0.1280296E+00
         21   -1    0    0  503  502  0.00000000000E+00  0.00000000000E+00  0.49593007760E+02  0.49593007760E+02  0.00000000000E+00 0.  1.
         21   -1    0    0  501  503 -0.00000000000E+00 -0.00000000000E+00 -0.85773635256E+03  0.85773635256E+03  0.00000000000E+00 0. -1.
          6    1    1    2  501    0  0.10123360012E+03  0.32942584777E+02 -0.48262216113E+03  0.52362830911E+03  0.17300000000E+03 0.  1.
         -6    1    1    2    0  502 -0.10123360012E+03 -0.32942584777E+02 -0.32552118367E+03  0.38370105122E+03  0.17300000000E+03 0.  1.
</event>
<event>
 4    1  0.5959403E+000  0.1000000E+03  0.7546771E-02  0.1280296E+00
         21   -1    0    0  503  502  0.00000000000E+00  0.00000000000E+00  0.85236831076E+03  0.85236831076E+03  0.00000000000E+00 0. -1.
         21   -1    0    0  501  503 -0.00000000000E+00 -0.00000000000E+00 -0.11204909841E+03  0.11204909841E+03  0.00000000000E+00 0.  1.
          6    1    1    2  501    0 -0.10457767880E+02  0.28816011816E+02 -0.26540598121E+02  0.17768829673E+03  0.17300000000E+03 0. -1.
         -6    1    1    2    0  502  0.10457767880E+02 -0.28816011816E+02  0.76685981047E+03  0.78672911244E+03  0.17300000000E+03 0.  1.
</event>
<event>
 4    1  0.5959403E+000  0.1000000E+03  0.7546771E-02  0.1280296E+00
         21   -1    0    0  503  502  0.00000000000E+00  0.00000000000E+00  0.69756921039E+02  0.69756921039E+02  0.00000000000E+00 0. -1.
         21   -1    0    0  501  503 -0.00000000000E+00 -0.00000000000E+00 -0.73914270895E+03  0.73914270895E+03  0.00000000000E+00 0.  1.
          6    1    1    2  501    0  0.34076940634E+02  0.12376739190E+03 -0.46253759452E+03  0.51024467809E+03  0.17300000000E+03 0. -1.
         -6    1    1    2    0  502 -0.34076940634E+02 -0.12376739190E+03 -0.20684819339E+03  0.29865495190E+03  0.17300000000E+03 0.  1.
</event>
<event>
 4    1  0.5959403E+000  0.1000000E+03  0.7546771E-02  0.1280296E+00
         21   -1    0    0  501  502  0.00000000000E+00  0.00000000000E+00  0.45002849612E+03  0.45002849612E+03  0.00000000000E+00 0. -1.
         21   -1    0    0  502  503 -0.00000000000E+00 -0.00000000000E+00 -0.25687766538E+03  0.25687766538E+03  0.00000000000E+00 0. -1.
          6    1    1    2  501    0 -0.33868570127E+02 -0.34553832787E+02  0.39666786771E+03  0.43544855572E+03  0.17300000000E+03 0. -1.
         -6    1    1    2    0  503  0.33868570127E+02  0.34553832787E+02 -0.20351703696E+03  0.27145760578E+03  0.17300000000E+03 0. -1.
</event>
<event>
 4    1  0.5959403E+000  0.1000000E+03  0.7546771E-02  0.1280296E+00
         21   -1    0    0  501  502  0.00000000000E+00  0.00000000000E+00  0.32466116713E+04  0.32466116713E+04  0.00000000000E+00 0. -1.
         21   -1    0    0  502  503 -0.00000000000E+00 -0.00000000000E+00 -0.50051102134E+02  0.50051102134E+02  0.00000000000E+00 0. -1.
          6    1    1    2  501    0 -0.21562363112E+03  0.16159461421E+03  0.25995645947E+04  0.26192119906E+04  0.17300000000E+03 0. -1.
         -6    1    1    2    0  503  0.21562363112E+03 -0.16159461421E+03  0.59699597440E+03  0.67745078278E+03  0.17300000000E+03 0. -1.
</event>
<event>
 4    1  0.5959403E+000  0.1000000E+03  0.7546771E-02  0.1280296E+00
         21   -1    0    0  503  502  0.00000000000E+00  0.00000000000E+00  0.28183607990E+03  0.28183607990E+03  0.00000000000E+00 0. -1.
         21   -1    0    0  501  503 -0.00000000000E+00 -0.00000000000E+00 -0.41413786777E+03  0.41413786777E+03  0.00000000000E+00 0. -1.
          6    1    1    2  501    0  0.22590533745E+03  0.95341755908E+02 -0.23248336207E+03  0.37960609261E+03  0.17300000000E+03 0. -1.
         -6    1    1    2    0  502 -0.22590533745E+03 -0.95341755908E+02  0.10018157421E+03  0.31636785506E+03  0.17300000000E+03 0. -1.
</event>
<event>
 4    1  0.5959403E+000  0.1000000E+03  0.7546771E-02  0.1280296E+00
         21   -1    0    0  503  502  0.00000000000E+00  0.00000000000E+00  0.78614485712E+03  0.78614485712E+03  0.00000000000E+00 0. -1.
         21   -1    0    0  501  503 -0.00000000000E+00 -0.00000000000E+00 -0.75179555788E+02  0.75179555788E+02  0.00000000000E+00 0. -1.
          6    1    1    2  501    0  0.13841483847E+03 -0.61890098304E+02  0.21617683116E+03  0.31567463329E+03  0.17300000000E+03 0. -1.
         -6    1    1    2    0  502 -0.13841483847E+03  0.61890098304E+02  0.49478847017E+03  0.54564977961E+03  0.17300000000E+03 0. -1.
</event>
<event>
 4    1  0.5959403E+000  0.1000000E+03  0.7546771E-02  0.1280296E+00
         21   -1    0    0  503  502  0.00000000000E+00  0.00000000000E+00  0.32170570415E+03  0.32170570415E+03  0.00000000000E+00 0. -1.
         21   -1    0    0  501  503 -0.00000000000E+00 -0.00000000000E+00 -0.15241242626E+03  0.15241242626E+03  0.00000000000E+00 0. -1.
          6    1    1    2  501    0  0.91334379973E+02 -0.17859476257E+02 -0.24751314509E+02  0.19799635711E+03  0.17300000000E+03 0. -1.
         -6    1    1    2    0  502 -0.91334379973E+02  0.17859476257E+02  0.19404459240E+03  0.27612177331E+03  0.17300000000E+03 0. -1.
</event>
<event>
 4    1  0.5959403E+000  0.1000000E+03  0.7546771E-02  0.1280296E+00
         21   -1    0    0  503  502  0.00000000000E+00  0.00000000000E+00  0.17991540988E+03  0.17991540988E+03  0.00000000000E+00 0.  1.
         21   -1    0    0  501  503 -0.00000000000E+00 -0.00000000000E+00 -0.61395839333E+03  0.61395839333E+03  0.00000000000E+00 0. -1.
          6    1    1    2  501    0  0.18194602613E+03  0.19484669801E+03 -0.33319548682E+03  0.46045393319E+03  0.17300000000E+03 0. -1.
         -6    1    1    2    0  502 -0.18194602613E+03 -0.19484669801E+03 -0.10084749663E+03  0.33341987003E+03  0.17300000000E+03 0.  1.
</event>
<event>
 4    1  0.5959403E+000  0.1000000E+03  0.7546771E-02  0.1280296E+00
         21   -1    0    0  503  502  0.00000000000E+00  0.00000000000E+00  0.62714097726E+02  0.62714097726E+02  0.00000000000E+00 0.  1.
         21   -1    0    0  501  503 -0.00000000000E+00 -0.00000000000E+00 -0.84593930901E+03  0.84593930901E+03  0.00000000000E+00 0. -1.
          6    1    1    2  501    0 -0.58796200404E+02  0.15877176003E+02 -0.66645030049E+03  0.69122650479E+03  0.17300000000E+03 0. -1.
         -6    1    1    2    0  502  0.58796200404E+02 -0.15877176003E+02 -0.11677491080E+03  0.21742690195E+03  0.17300000000E+03 0.  1.
</event>
<event>
 4    1  0.5959403E+000  0.1000000E+03  0.7546771E-02  0.1280296E+00
         21   -1    0    0  503  502  0.00000000000E+00  0.00000000000E+00  0.11460602751E+04  0.11460602751E+04  0.00000000000E+00 0.  1.
         21   -1    0    0  501  503 -0.00000000000E+00 -0.00000000000E+00 -0.48488836896E+02  0.48488836896E+02  0.00000000000E+00 0. -1.
          6    1    1    2  501    0  0.14266537063E+03  0.32509967797E+02  0.38396447502E+03  0.44583407683E+03  0.17300000000E+03 0. -1.
         -6    1    1    2    0  502 -0.14266537063E+03 -0.32509967797E+02  0.71360696319E+03  0.74871503517E+03  0.17300000000E+03 0.  1.
</event>
<event>
 4    1  0.5959403E+000  0.1000000E+03  0.7546771E-02  0.1280296E+00
         21   -1    0    0  503  502  0.00000000000E+00  0.00000000000E+00  0.26795085833E+03  0.26795085833E+03  0.00000000000E+00 0.  1.
         21   -1    0    0  501  503 -0.00000000000E+00 -0.00000000000E+00 -0.14500325453E+03  0.14500325453E+03  0.00000000000E+00 0. -1.
          6    1    1    2  501    0  0.66956410462E+02 -0.31483714590E+02 -0.56300475799E-01  0.18815788146E+03  0.17300000000E+03 0. -1.
         -6    1    1    2    0  502 -0.66956410462E+02  0.31483714590E+02  0.12300390427E+03  0.22479623140E+03  0.17300000000E+03 0.  1.
</event>
<event>
 4    1  0.5959403E+000  0.1000000E+03  0.7546771E-02  0.1280296E+00
         21   -1    0    0  501  502  0.00000000000E+00  0.00000000000E+00  0.33946796605E+03  0.33946796605E+03  0.00000000000E+00 0.  1.
         21   -1    0    0  502  503 -0.00000000000E+00 -0.00000000000E+00 -0.16310679957E+03  0.16310679957E+03  0.00000000000E+00 0.  1.
          6    1    1    2  501    0  0.33282218861E+02  0.71254567215E+02  0.23636889053E+03  0.30328892471E+03  0.17300000000E+03 0.  1.
         -6    1    1    2    0  503 -0.33282218861E+02 -0.71254567215E+02 -0.60007724048E+02  0.19928584091E+03  0.17300000000E+03 0.  1.
</event>
<event>
 4    1  0.5959403E+000  0.1000000E+03  0.7546771E-02  0.1280296E+00
         21   -1    0    0  503  502  0.00000000000E+00  0.00000000000E+00  0.32348570376E+03  0.32348570376E+03  0.00000000000E+00 0.  1.
         21   -1    0    0  501  503 -0.00000000000E+00 -0.00000000000E+00 -0.51464221497E+03  0.51464221497E+03  0.00000000000E+00 0. -1.
          6    1    1    2  501    0 -0.30403285215E+03  0.20962774831E+03 -0.10899444223E+03  0.42212386391E+03  0.17300000000E+03 0. -1.
         -6    1    1    2    0  502  0.30403285215E+03 -0.20962774831E+03 -0.82162068975E+02  0.41600405482E+03  0.17300000000E+03 0. -1.
</event>
<event>
 4    1  0.5959403E+000  0.1000000E+03  0.7546771E-02  0.1280296E+00
         21   -1    0    0  503  502  0.00000000000E+00  0.00000000000E+00  0.15065603473E+04  0.15065603473E+04  0.00000000000E+00 0.  1.
         21   -1    0    0  501  503 -0.00000000000E+00 -0.00000000000E+00 -0.32732495480E+02  0.32732495480E+02  0.00000000000E+00 0. -1.
          6    1    1    2  501    0  0.87437829363E+02  0.46483128262E+02  0.39771421699E+03  0.44487262628E+03  0.17300000000E+03 0. -1.
         -6    1    1    2    0  502 -0.87437829363E+02 -0.46483128262E+02  0.10761136348E+04  0.10944202165E+04  0.17300000000E+03 0. -1.
</event>
<event>
 4    1  0.5959403E+000  0.1000000E+03  0.7546771E-02  0.1280296E+00
         21   -1    0    0  503  502  0.00000000000E+00  0.00000000000E+00  0.43037271456E+02  0.43037271456E+02  0.00000000000E+00 0.  1.
         21   -1    0    0  501  503 -0.00000000000E+00 -0.00000000000E+00 -0.97535495179E+03  0.97535495179E+03  0.00000000000E+00 0. -1.
          6    1    1    2  501    0  0.45960668079E+02  0.87833280849E+02 -0.34904414024E+03  0.40197994983E+03  0.17300000000E+03 0. -1.
         -6    1    1    2    0  502 -0.45960668079E+02 -0.87833280849E+02 -0.58327354010E+03  0.61641227341E+03  0.17300000000E+03 0. -1.
</event>
<event>
 4    1  0.5959403E+000  0.1000000E+03  0.7546771E-02  0.1280296E+00
         21   -1    0    0  503  502  0.00000000000E+00  0.00000000000E+00  0.20655165017E+03  0.20655165017E+03  0.00000000000E+00 0.  1.
         21   -1    0    0  501  503 -0.00000000000E+00 -0.00000000000E+00 -0.21493421192E+03  0.21493421192E+03  0.00000000000E+00 0. -1.
          6    1    1    2  501    0 -0.15225294552E+02  0.11335122984E+03  0.33041145380E+02  0.21000244805E+03  0.17300000000E+03 0. -1.
         -6    1    1    2    0  502  0.15225294552E+02 -0.11335122984E+03 -0.41423707130E+02  0.21148341404E+03  0.17300000000E+03 0. -1.
</event>
<event>
 4    1  0.5959403E+000  0.1000000E+03  0.7546771E-02  0.1280296E+00
         21   -1    0    0  503  502  0.00000000000E+00  0.00000000000E+00  0.11247509361E+03  0.11247509361E+03  0.00000000000E+00 0.  1.
         21   -1    0    0  501  503 -0.00000000000E+00 -0.00000000000E+00 -0.56946316880E+03  0.56946316880E+03  0.00000000000E+00 0. -1.
          6    1    1    2  501    0 -0.14610623597E+03 -0.79089119683E+02 -0.33727543084E+03  0.41386693186E+03  0.17300000000E+03 0. -1.
         -6    1    1    2    0  502  0.14610623597E+03  0.79089119683E+02 -0.11971264436E+03  0.26807133055E+03  0.17300000000E+03 0. -1.
</event>
<event>
 4    1  0.5959403E+000  0.1000000E+03  0.7546771E-02  0.1280296E+00
         21   -1    0    0  501  502  0.00000000000E+00  0.00000000000E+00  0.86345382589E+02  0.86345382589E+02  0.00000000000E+00 0. -1.
         21   -1    0    0  502  503 -0.00000000000E+00 -0.00000000000E+00 -0.98802589241E+03  0.98802589241E+03  0.00000000000E+00 0.  1.
          6    1    1    2  501    0 -0.99946260071E+02 -0.21102153065E+03 -0.39680721798E+03  0.49183768617E+03  0.17300000000E+03 0. -1.
         -6    1    1    2    0  503  0.99946260071E+02  0.21102153065E+03 -0.50487329184E+03  0.58253358883E+03  0.17300000000E+03 0. -1.
</event>
<event>
 4    1  0.5959403E+000  0.1000000E+03  0.7546771E-02  0.1280296E+00
         21   -1    0    0  501  502  0.00000000000E+00  0.00000000000E+00  0.29684226808E+02  0.29684226808E+02  0.00000000000E+00 0. -1.
         21   -1    0    0  502  503 -0.00000000000E+00 -0.00000000000E+00 -0.11754312702E+04  0.11754312702E+04  0.00000000000E+00 0.  1.
          6    1    1    2  501    0 -0.55603121609E+02  0.32481924283E+02 -0.48072709305E+03  0.51495079428E+03  0.17300000000E+03 0. -1.
         -6    1    1    2    0  503  0.55603121609E+02 -0.32481924283E+02 -0.66501995033E+03  0.69016470272E+03  0.17300000000E+03 0. -1.
</event>
<event>
 4    1  0.5959403E+000  0.1000000E+03  0.7546771E-02  0.1280296E+00
         21   -1    0    0  501  502  0.00000000000E+00  0.00000000000E+00  0.54012347622E+03  0.54012347622E+03  0.00000000000E+00 0. -1.
         21   -1    0    0  502  503 -0.00000000000E+00 -0.00000000000E+00 -0.11154176375E+03  0.11154176375E+03  0.00000000000E+00 0.  1.
          6    1    1    2  501    0  0.42817223971E+02 -0.14337089394E+03  0.33249506409E+03  0.40357216894E+03  0.17300000000E+03 0. -1.
         -6    1    1    2    0  503 -0.42817223971E+02  0.14337089394E+03  0.96086648381E+02  0.24809307103E+03  0.17300000000E+03 0. -1.
</event>
