<event>
 4    1  0.5956049E+000  0.1000000E+03  0.7546771E-02  0.1280296E+00
         21   -1    0    0  503  502  0.00000000000E+00  0.00000000000E+00  0.11514003975E+03  0.11514003975E+03  0.00000000000E+00 0.  1.
         21   -1    0    0  501  503 -0.00000000000E+00 -0.00000000000E+00 -0.54758408647E+03  0.54758408647E+03  0.00000000000E+00 0. -1.
          6    1    1    2  501    0 -0.13908188416E+03 -0.11583877508E+03 -0.19127155939E+03  0.31508126213E+03  0.17300000000E+03 0. -1.
         -6    1    1    2    0  502  0.13908188416E+03  0.11583877508E+03 -0.24117248733E+03  0.34764286410E+03  0.17300000000E+03 0.  1.
</event>
<event>
 4    1  0.5956049E+000  0.1000000E+03  0.7546771E-02  0.1280296E+00
         21   -1    0    0  503  502  0.00000000000E+00  0.00000000000E+00  0.41686044764E+03  0.41686044764E+03  0.00000000000E+00 0.  1.
         21   -1    0    0  501  503 -0.00000000000E+00 -0.00000000000E+00 -0.20191230019E+03  0.20191230019E+03  0.00000000000E+00 0. -1.
          6    1    1    2  501    0 -0.53322601515E+02 -0.15376416345E+03 -0.70183446296E+02  0.24767202896E+03  0.17300000000E+03 0. -1.
         -6    1    1    2    0  502  0.53322601515E+02  0.15376416345E+03  0.28513159375E+03  0.37110071887E+03  0.17300000000E+03 0.  1.
</event>
<event>
 4    1  0.5956049E+000  0.1000000E+03  0.7546771E-02  0.1280296E+00
         21   -1    0    0  501  502  0.00000000000E+00  0.00000000000E+00  0.34814208564E+03  0.34814208564E+03  0.00000000000E+00 0.  1.
         21   -1    0    0  502  503 -0.00000000000E+00 -0.00000000000E+00 -0.13735463503E+04  0.13735463503E+04  0.00000000000E+00 0. -1.
          6    1    1    2  501    0 -0.13978862529E+03 -0.13165310469E+03  0.28575180771E+03  0.38530052601E+03  0.17300000000E+03 0.  1.
         -6    1    1    2    0  503  0.13978862529E+03  0.13165310469E+03 -0.13111560724E+04  0.13363879100E+04  0.17300000000E+03 0. -1.
</event>
<event>
 4    1  0.5956049E+000  0.1000000E+03  0.7546771E-02  0.1280296E+00
         21   -1    0    0  501  502  0.00000000000E+00  0.00000000000E+00  0.29604093325E+02  0.29604093325E+02  0.00000000000E+00 0.  1.
         21   -1    0    0  502  503 -0.00000000000E+00 -0.00000000000E+00 -0.15869771712E+04  0.15869771712E+04  0.00000000000E+00 0. -1.
          6    1    1    2  501    0  0.50521351173E+02 -0.10392240783E+03 -0.10055122640E+04  0.10268087392E+04  0.17300000000E+03 0.  1.
         -6    1    1    2    0  503 -0.50521351173E+02  0.10392240783E+03 -0.55186081381E+03  0.58977252529E+03  0.17300000000E+03 0. -1.
</event>
<event>
 4    1  0.5956049E+000  0.1000000E+03  0.7546771E-02  0.1280296E+00
         21   -1    0    0  501  502  0.00000000000E+00  0.00000000000E+00  0.22381952156E+03  0.22381952156E+03  0.00000000000E+00 0.  1.
         21   -1    0    0  502  503 -0.00000000000E+00 -0.00000000000E+00 -0.86443631722E+03  0.86443631722E+03  0.00000000000E+00 0. -1.
          6    1    1    2  501    0 -0.13924232373E+03 -0.18563175817E+03  0.89415328520E+02  0.30293840188E+03  0.17300000000E+03 0.  1.
         -6    1    1    2    0  503  0.13924232373E+03  0.18563175817E+03 -0.73003212418E+03  0.78531743689E+03  0.17300000000E+03 0. -1.
</event>
<event>
 4    1  0.5956049E+000  0.1000000E+03  0.7546771E-02  0.1280296E+00
         21   -1    0    0  503  502  0.00000000000E+00  0.00000000000E+00  0.60199203304E+03  0.60199203304E+03  0.00000000000E+00 0. -1.
         21   -1    0    0  501  503 -0.00000000000E+00 -0.00000000000E+00 -0.65905024269E+02  0.65905024269E+02  0.00000000000E+00 0. -1.
          6    1    1    2  501    0  0.72363778184E+02 -0.62414032582E+02  0.30956293214E+03  0.36727406227E+03  0.17300000000E+03 0. -1.
         -6    1    1    2    0  502 -0.72363778184E+02  0.62414032582E+02  0.22652407662E+03  0.30062299504E+03  0.17300000000E+03 0. -1.
</event>
<event>
 4    1  0.5956049E+000  0.1000000E+03  0.7546771E-02  0.1280296E+00
         21   -1    0    0  503  502  0.00000000000E+00  0.00000000000E+00  0.57502435664E+02  0.57502435664E+02  0.00000000000E+00 0. -1.
         21   -1    0    0  501  503 -0.00000000000E+00 -0.00000000000E+00 -0.20871793865E+04  0.20871793865E+04  0.00000000000E+00 0. -1.
          6    1    1    2  501    0 -0.27096004579E+01 -0.22767281365E+03 -0.16201884751E+04  0.16452300590E+04  0.17300000000E+03 0. -1.
         -6    1    1    2    0  502  0.27096004579E+01  0.22767281365E+03 -0.40948847568E+03  0.49945176316E+03  0.17300000000E+03 0. -1.
</event>
<event>
 4    1  0.5956049E+000  0.1000000E+03  0.7546771E-02  0.1280296E+00
         21   -1    0    0  503  502  0.00000000000E+00  0.00000000000E+00  0.30044329586E+03  0.30044329586E+03  0.00000000000E+00 0. -1.
         21   -1    0    0  501  503 -0.00000000000E+00 -0.00000000000E+00 -0.22570524836E+03  0.22570524836E+03  0.00000000000E+00 0. -1.
          6    1    1    2  501    0  0.29915871825E+02 -0.14017553367E+03  0.17039360926E+03  0.28197007235E+03  0.17300000000E+03 0. -1.
         -6    1    1    2    0  502 -0.29915871825E+02  0.14017553367E+03 -0.95655561766E+02  0.24417847187E+03  0.17300000000E+03 0. -1.
</event>
<event>
 4    1  0.5956049E+000  0.1000000E+03  0.7546771E-02  0.1280296E+00
         21   -1    0    0  503  502  0.00000000000E+00  0.00000000000E+00  0.91429587394E+02  0.91429587394E+02  0.00000000000E+00 0.  1.
         21   -1    0    0  501  503 -0.00000000000E+00 -0.00000000000E+00 -0.88661397607E+03  0.88661397607E+03  0.00000000000E+00 0. -1.
          6    1    1    2  501    0  0.23971570100E+02 -0.11190889849E+03 -0.73256702184E+03  0.76136829408E+03  0.17300000000E+03 0. -1.
         -6    1    1    2    0  502 -0.23971570100E+02  0.11190889849E+03 -0.62617366831E+02  0.21667526938E+03  0.17300000000E+03 0.  1.
</event>
<event>
 4    1  0.5956049E+000  0.1000000E+03  0.7546771E-02  0.1280296E+00
         21   -1    0    0  503  502  0.00000000000E+00  0.00000000000E+00  0.77385693557E+03  0.77385693557E+03  0.00000000000E+00 0.  1.
         21   -1    0    0  501  503 -0.00000000000E+00 -0.00000000000E+00 -0.65465496334E+02  0.65465496334E+02  0.00000000000E+00 0.  1.
          6    1    1    2  501    0 -0.36582837417E+02  0.13223592023E+03  0.27276839824E+03  0.35093623590E+03  0.17300000000E+03 0.  1.
         -6    1    1    2    0  502  0.36582837417E+02 -0.13223592023E+03  0.43562304100E+03  0.48838619600E+03  0.17300000000E+03 0.  1.
</event>
<event>
 4    1  0.5956049E+000  0.1000000E+03  0.7546771E-02  0.1280296E+00
         21   -1    0    0  501  502  0.00000000000E+00  0.00000000000E+00  0.36350363990E+02  0.36350363990E+02  0.00000000000E+00 0. -1.
         21   -1    0    0  502  503 -0.00000000000E+00 -0.00000000000E+00 -0.11176536678E+04  0.11176536678E+04  0.00000000000E+00 0.  1.
          6    1    1    2  501    0 -0.51213582517E+02 -0.36642624894E+01 -0.28361980024E+03  0.33616283100E+03  0.17300000000E+03 0.  1.
         -6    1    1    2    0  503  0.51213582517E+02  0.36642624894E+01 -0.79768350358E+03  0.81784120080E+03  0.17300000000E+03 0. -1.
</event>
<event>
 4    1  0.5956049E+000  0.1000000E+03  0.7546771E-02  0.1280296E+00
         21   -1    0    0  501  502  0.00000000000E+00  0.00000000000E+00  0.30966983114E+03  0.30966983114E+03  0.00000000000E+00 0. -1.
         21   -1    0    0  502  503 -0.00000000000E+00 -0.00000000000E+00 -0.16493647970E+03  0.16493647970E+03  0.00000000000E+00 0.  1.
          6    1    1    2  501    0 -0.50878821814E+02 -0.54077565371E+02  0.20365562646E+03  0.27734031762E+03  0.17300000000E+03 0.  1.
         -6    1    1    2    0  503  0.50878821814E+02  0.54077565371E+02 -0.58922275023E+02  0.19726599322E+03  0.17300000000E+03 0. -1.
</event>
<event>
 4    1  0.5956049E+000  0.1000000E+03  0.7546771E-02  0.1280296E+00
         21   -1    0    0  503  502  0.00000000000E+00  0.00000000000E+00  0.18647945904E+04  0.18647945904E+04  0.00000000000E+00 0. -1.
         21   -1    0    0  501  503 -0.00000000000E+00 -0.00000000000E+00 -0.25664952870E+02  0.25664952870E+02  0.00000000000E+00 0. -1.
          6    1    1    2  501    0  0.14570223054E+02  0.42789140460E+02  0.37495976099E+03  0.41541187309E+03  0.17300000000E+03 0. -1.
         -6    1    1    2    0  502 -0.14570223054E+02 -0.42789140460E+02  0.14641698765E+04  0.14750476701E+04  0.17300000000E+03 0. -1.
</event>
<event>
 4    1  0.5956049E+000  0.1000000E+03  0.7546771E-02  0.1280296E+00
         21   -1    0    0  503  502  0.00000000000E+00  0.00000000000E+00  0.94907746486E+03  0.94907746486E+03  0.00000000000E+00 0. -1.
         21   -1    0    0  501  503 -0.00000000000E+00 -0.00000000000E+00 -0.16314570956E+03  0.16314570956E+03  0.00000000000E+00 0. -1.
          6    1    1    2  501    0  0.31405196332E+03  0.77041827725E+02  0.59454725025E+03  0.69855530323E+03  0.17300000000E+03 0. -1.
         -6    1    1    2    0  502 -0.31405196332E+03 -0.77041827725E+02  0.19138450504E+03  0.41366787119E+03  0.17300000000E+03 0. -1.
</event>
<event>
 4    1  0.5956049E+000  0.1000000E+03  0.7546771E-02  0.1280296E+00
         21   -1    0    0  501  502  0.00000000000E+00  0.00000000000E+00  0.21768334152E+03  0.21768334152E+03  0.00000000000E+00 0.  1.
         21   -1    0    0  502  503 -0.00000000000E+00 -0.00000000000E+00 -0.81393067340E+03  0.81393067340E+03  0.00000000000E+00 0.  1.
          6    1    1    2  501    0 -0.12966500618E+03 -0.14401225145E+03  0.10773937791E+03  0.28122822751E+03  0.17300000000E+03 0.  1.
         -6    1    1    2    0  503  0.12966500618E+03  0.14401225145E+03 -0.70398670979E+03  0.75038578742E+03  0.17300000000E+03 0.  1.
</event>
<event>
 4    1  0.5956049E+000  0.1000000E+03  0.7546771E-02  0.1280296E+00
         21   -1    0    0  501  502  0.00000000000E+00  0.00000000000E+00  0.21599985405E+04  0.21599985405E+04  0.00000000000E+00 0.  1.
         21   -1    0    0  502  503 -0.00000000000E+00 -0.00000000000E+00 -0.69793739250E+02  0.69793739250E+02  0.00000000000E+00 0.  1.
          6    1    1    2  501    0  0.18992637735E+03 -0.25737936560E+03  0.14357573857E+04  0.14810956881E+04  0.17300000000E+03 0.  1.
         -6    1    1    2    0  503 -0.18992637735E+03  0.25737936560E+03  0.65444741548E+03  0.74869659161E+03  0.17300000000E+03 0.  1.
</event>
<event>
 4    1  0.5956049E+000  0.1000000E+03  0.7546771E-02  0.1280296E+00
         21   -1    0    0  501  502  0.00000000000E+00  0.00000000000E+00  0.20461365563E+03  0.20461365563E+03  0.00000000000E+00 0.  1.
         21   -1    0    0  502  503 -0.00000000000E+00 -0.00000000000E+00 -0.18409816006E+03  0.18409816006E+03  0.00000000000E+00 0.  1.
          6    1    1    2  501    0 -0.82778274003E+02 -0.19647282569E+02  0.32688545411E+02  0.19553976414E+03  0.17300000000E+03 0.  1.
         -6    1    1    2    0  503  0.82778274003E+02  0.19647282569E+02 -0.12173049839E+02  0.19317205155E+03  0.17300000000E+03 0.  1.
</event>
<event>
 4    1  0.5956049E+000  0.1000000E+03  0.7546771E-02  0.1280296E+00
         21   -1    0    0  503  502  0.00000000000E+00  0.00000000000E+00  0.76177923214E+02  0.76177923214E+02  0.00000000000E+00 0.  1.
         21   -1    0    0  501  503 -0.00000000000E+00 -0.00000000000E+00 -0.66826639634E+03  0.66826639634E+03  0.00000000000E+00 0.  1.
          6    1    1    2  501    0 -0.24095145423E+02  0.14166997078E+03 -0.32588518182E+03  0.39595594248E+03  0.17300000000E+03 0.  1.
         -6    1    1    2    0  502  0.24095145423E+02 -0.14166997078E+03 -0.26620329131E+03  0.34848837708E+03  0.17300000000E+03 0.  1.
</event>
<event>
 4    1  0.5956049E+000  0.1000000E+03  0.7546771E-02  0.1280296E+00
         21   -1    0    0  503  502  0.00000000000E+00  0.00000000000E+00  0.14197472005E+04  0.14197472005E+04  0.00000000000E+00 0.  1.
         21   -1    0    0  501  503 -0.00000000000E+00 -0.00000000000E+00 -0.52353886539E+02  0.52353886539E+02  0.00000000000E+00 0.  1.
          6    1    1    2  501    0 -0.56683031437E+02  0.34653494079E+02  0.14383298395E+03  0.23458635505E+03  0.17300000000E+03 0.  1.
         -6    1    1    2    0  502  0.56683031437E+02 -0.34653494079E+02  0.12235603300E+04  0.12375147320E+04  0.17300000000E+03 0.  1.
</event>
<event>
 4    1  0.5956049E+000  0.1000000E+03  0.7546771E-02  0.1280296E+00
         21   -1    0    0  503  502  0.00000000000E+00  0.00000000000E+00  0.56635271435E+02  0.56635271435E+02  0.00000000000E+00 0.  1.
         21   -1    0    0  501  503 -0.00000000000E+00 -0.00000000000E+00 -0.10503616839E+04  0.10503616839E+04  0.00000000000E+00 0.  1.
          6    1    1    2  501    0  0.13495413089E+03  0.87098441979E+02 -0.63601337553E+03  0.67841047302E+03  0.17300000000E+03 0.  1.
         -6    1    1    2    0  502 -0.13495413089E+03 -0.87098441979E+02 -0.35771303696E+03  0.42858648235E+03  0.17300000000E+03 0.  1.
</event>
<event>
 4    1  0.5956049E+000  0.1000000E+03  0.7546771E-02  0.1280296E+00
         21   -1    0    0  503  502  0.00000000000E+00  0.00000000000E+00  0.12747342643E+03  0.12747342643E+03  0.00000000000E+00 0.  1.
         21   -1    0    0  501  503 -0.00000000000E+00 -0.00000000000E+00 -0.19225729240E+04  0.19225729240E+04  0.00000000000E+00 0. -1.
          6    1    1    2  501    0  0.27446391117E+02 -0.52872997879E+00 -0.18562638971E+04  0.18645101876E+04  0.17300000000E+03 0.  1.
         -6    1    1    2    0  502 -0.27446391117E+02  0.52872997879E+00  0.61164399555E+02  0.18553616282E+03  0.17300000000E+03 0. -1.
</event>
<event>
 4    1  0.5956049E+000  0.1000000E+03  0.7546771E-02  0.1280296E+00
         21   -1    0    0  503  502  0.00000000000E+00  0.00000000000E+00  0.39142553317E+03  0.39142553317E+03  0.00000000000E+00 0.  1.
         21   -1    0    0  501  503 -0.00000000000E+00 -0.00000000000E+00 -0.38560388452E+03  0.38560388452E+03  0.00000000000E+00 0. -1.
          6    1    1    2  501    0  0.15235044138E+03 -0.10107912673E+02 -0.30965734955E+03  0.38617289006E+03  0.17300000000E+03 0.  1.
         -6    1    1    2    0  502 -0.15235044138E+03  0.10107912673E+02  0.31547899820E+03  0.39085652763E+03  0.17300000000E+03 0. -1.
</event>
<event>
 4    1  0.5956049E+000  0.1000000E+03  0.7546771E-02  0.1280296E+00
         21   -1    0    0  501  502  0.00000000000E+00  0.00000000000E+00  0.14551395624E+03  0.14551395624E+03  0.00000000000E+00 0.  1.
         21   -1    0    0  502  503 -0.00000000000E+00 -0.00000000000E+00 -0.10881764867E+04  0.10881764867E+04  0.00000000000E+00 0. -1.
          6    1    1    2  501    0 -0.28724426788E+03 -0.62392080654E+02 -0.15359241454E+03  0.37406105245E+03  0.17300000000E+03 0. -1.
         -6    1    1    2    0  503  0.28724426788E+03  0.62392080654E+02 -0.78907011593E+03  0.85962939050E+03  0.17300000000E+03 0.  1.
</event>
<event>
 4    1  0.5956049E+000  0.1000000E+03  0.7546771E-02  0.1280296E+00
         21   -1    0    0  501  502  0.00000000000E+00  0.00000000000E+00  0.17899586000E+03  0.17899586000E+03  0.00000000000E+00 0.  1.
         21   -1    0    0  502  503 -0.00000000000E+00 -0.00000000000E+00 -0.34308399268E+03  0.34308399268E+03  0.00000000000E+00 0. -1.
          6    1    1    2  501    0  0.76085339459E+02  0.13714433772E+03  0.53551889797E+01  0.23357060239E+03  0.17300000000E+03 0. -1.
         -6    1    1    2    0  503 -0.76085339459E+02 -0.13714433772E+03 -0.16944332166E+03  0.28850925030E+03  0.17300000000E+03 0.  1.
</event>
<event>
 4    1  0.5956049E+000  0.1000000E+03  0.7546771E-02  0.1280296E+00
         21   -1    0    0  501  502  0.00000000000E+00  0.00000000000E+00  0.34719168463E+02  0.34719168463E+02  0.00000000000E+00 0.  1.
         21   -1    0    0  502  503 -0.00000000000E+00 -0.00000000000E+00 -0.14549741881E+04  0.14549741881E+04  0.00000000000E+00 0. -1.
          6    1    1    2  501    0  0.70752962071E+02  0.47273267331E+02 -0.32727977305E+03  0.37984443302E+03  0.17300000000E+03 0. -1.
         -6    1    1    2    0  503 -0.70752962071E+02 -0.47273267331E+02 -0.10929752466E+04  0.11098489236E+04  0.17300000000E+03 0.  1.
</event>
<event>
 4    1  0.5956049E+000  0.1000000E+03  0.7546771E-02  0.1280296E+00
         21   -1    0    0  501  502  0.00000000000E+00  0.00000000000E+00  0.32601373850E+03  0.32601373850E+03  0.00000000000E+00 0.  1.
         21   -1    0    0  502  503 -0.00000000000E+00 -0.00000000000E+00 -0.12968104265E+03  0.12968104265E+03  0.00000000000E+00 0. -1.
          6    1    1    2  501    0  0.92334551682E+02  0.71960222226E+01  0.16621761937E+03  0.25716677305E+03  0.17300000000E+03 0. -1.
         -6    1    1    2    0  503 -0.92334551682E+02 -0.71960222226E+01  0.30115076483E+02  0.19852800810E+03  0.17300000000E+03 0.  1.
</event>
<event>
 4    1  0.5956049E+000  0.1000000E+03  0.7546771E-02  0.1280296E+00
         21   -1    0    0  501  502  0.00000000000E+00  0.00000000000E+00  0.92482844175E+02  0.92482844175E+02  0.00000000000E+00 0. -1.
         21   -1    0    0  502  503 -0.00000000000E+00 -0.00000000000E+00 -0.15038678869E+04  0.15038678869E+04  0.00000000000E+00 0.  1.
          6    1    1    2  501    0 -0.72409207238E+02  0.16402637987E+03 -0.11177928067E+03  0.27307756073E+03  0.17300000000E+03 0. -1.
         -6    1    1    2    0  503  0.72409207238E+02 -0.16402637987E+03 -0.12996057621E+04  0.13232731704E+04  0.17300000000E+03 0. -1.
</event>
<event>
 4    1  0.5956049E+000  0.1000000E+03  0.7546771E-02  0.1280296E+00
         21   -1    0    0  501  502  0.00000000000E+00  0.00000000000E+00  0.23440575634E+03  0.23440575634E+03  0.00000000000E+00 0. -1.
         21   -1    0    0  502  503 -0.00000000000E+00 -0.00000000000E+00 -0.20124223281E+03  0.20124223281E+03  0.00000000000E+00 0.  1.
          6    1    1    2  501    0  0.10708875832E+03  0.11786235830E+02  0.91876339584E+02  0.22355576326E+03  0.17300000000E+03 0. -1.
         -6    1    1    2    0  503 -0.10708875832E+03 -0.11786235830E+02 -0.58712816056E+02  0.21209222589E+03  0.17300000000E+03 0. -1.
</event>
<event>
 4    1  0.5956049E+000  0.1000000E+03  0.7546771E-02  0.1280296E+00
         21   -1    0    0  503  502  0.00000000000E+00  0.00000000000E+00  0.59439398085E+02  0.59439398085E+02  0.00000000000E+00 0. -1.
         21   -1    0    0  501  503 -0.00000000000E+00 -0.00000000000E+00 -0.65927145594E+03  0.65927145594E+03  0.00000000000E+00 0. -1.
          6    1    1    2  501    0  0.16268007798E+02 -0.90502561895E+02 -0.24849589460E+03  0.31644047058E+03  0.17300000000E+03 0. -1.
         -6    1    1    2    0  502 -0.16268007798E+02  0.90502561895E+02 -0.35133616326E+03  0.40227038345E+03  0.17300000000E+03 0. -1.
</event>
<event>
 4    1  0.5956049E+000  0.1000000E+03  0.7546771E-02  0.1280296E+00
         21   -1    0    0  503  502  0.00000000000E+00  0.00000000000E+00  0.25656010207E+03  0.25656010207E+03  0.00000000000E+00 0. -1.
         21   -1    0    0  501  503 -0.00000000000E+00 -0.00000000000E+00 -0.18937489049E+03  0.18937489049E+03  0.00000000000E+00 0. -1.
          6    1    1    2  501    0 -0.51695456911E+02 -0.17314684340E+02 -0.93092514021E+02  0.20388093272E+03  0.17300000000E+03 0. -1.
         -6    1    1    2    0  502  0.51695456911E+02  0.17314684340E+02  0.16027772560E+03  0.24205405984E+03  0.17300000000E+03 0. -1.
</event>
<event>
 4    1  0.5956049E+000  0.1000000E+03  0.7546771E-02  0.1280296E+00
         21   -1    0    0  503  502  0.00000000000E+00  0.00000000000E+00  0.83350632216E+02  0.83350632216E+02  0.00000000000E+00 0. -1.
         21   -1    0    0  501  503 -0.00000000000E+00 -0.00000000000E+00 -0.81310916617E+03  0.81310916617E+03  0.00000000000E+00 0. -1.
          6    1    1    2  501    0 -0.83178104074E+02 -0.70689085425E+02 -0.64212293783E+03  0.67391869768E+03  0.17300000000E+03 0. -1.
         -6    1    1    2    0  502  0.83178104074E+02  0.70689085425E+02 -0.87635596125E+02  0.22254110071E+03  0.17300000000E+03 0. -1.
</event>
<event>
 4    1  0.5956049E+000  0.1000000E+03  0.7546771E-02  0.1280296E+00
         21   -1    0    0  503  502  0.00000000000E+00  0.00000000000E+00  0.31493997328E+02  0.31493997328E+02  0.00000000000E+00 0. -1.
         21   -1    0    0  501  503 -0.00000000000E+00 -0.00000000000E+00 -0.18966991254E+04  0.18966991254E+04  0.00000000000E+00 0. -1.
          6    1    1    2  501    0 -0.12850001583E+03  0.77551511856E+02 -0.12691510474E+04  0.12896510660E+04  0.17300000000E+03 0. -1.
         -6    1    1    2    0  502  0.12850001583E+03 -0.77551511856E+02 -0.59605408071E+03  0.63854205671E+03  0.17300000000E+03 0. -1.
</event>
<event>
 4    1  0.5956049E+000  0.1000000E+03  0.7546771E-02  0.1280296E+00
         21   -1    0    0  503  502  0.00000000000E+00  0.00000000000E+00  0.26463146166E+03  0.26463146166E+03  0.00000000000E+00 0. -1.
         21   -1    0    0  501  503 -0.00000000000E+00 -0.00000000000E+00 -0.27607544606E+03  0.27607544606E+03  0.00000000000E+00 0. -1.
          6    1    1    2  501    0 -0.55157759620E+02 -0.19143109859E+03  0.52951229616E+02  0.26911164351E+03  0.17300000000E+03 0. -1.
         -6    1    1    2    0  502  0.55157759620E+02  0.19143109859E+03 -0.64395214014E+02  0.27159526421E+03  0.17300000000E+03 0. -1.
</event>
<event>
 4    1  0.5956049E+000  0.1000000E+03  0.7546771E-02  0.1280296E+00
         21   -1    0    0  503  502  0.00000000000E+00  0.00000000000E+00  0.78078447707E+02  0.78078447707E+02  0.00000000000E+00 0. -1.
         21   -1    0    0  501  503 -0.00000000000E+00 -0.00000000000E+00 -0.87418559079E+03  0.87418559079E+03  0.00000000000E+00 0. -1.
          6    1    1    2  501    0  0.99829422639E+02 -0.18743212468E+02 -0.70305893944E+03  0.73112112127E+03  0.17300000000E+03 0. -1.
         -6    1    1    2    0  502 -0.99829422639E+02  0.18743212468E+02 -0.93048203639E+02  0.22114291722E+03  0.17300000000E+03 0. -1.
</event>
<event>
 4    1  0.5956049E+000  0.1000000E+03  0.7546771E-02  0.1280296E+00
         21   -1    0    0  501  502  0.00000000000E+00  0.00000000000E+00  0.10966966861E+03  0.10966966861E+03  0.00000000000E+00 0. -1.
         21   -1    0    0  502  503 -0.00000000000E+00 -0.00000000000E+00 -0.31536021605E+03  0.31536021605E+03  0.00000000000E+00 0.  1.
          6    1    1    2  501    0 -0.42067262723E+02  0.23587421663E+01 -0.16418359392E+03  0.24219923776E+03  0.17300000000E+03 0. -1.
         -6    1    1    2    0  503  0.42067262723E+02 -0.23587421663E+01 -0.41506953513E+02  0.18283064690E+03  0.17300000000E+03 0. -1.
</event>
<event>
 4    1  0.5956049E+000  0.1000000E+03  0.7546771E-02  0.1280296E+00
         21   -1    0    0  501  502  0.00000000000E+00  0.00000000000E+00  0.82770515953E+02  0.82770515953E+02  0.00000000000E+00 0. -1.
         21   -1    0    0  502  503 -0.00000000000E+00 -0.00000000000E+00 -0.56026586996E+03  0.56026586996E+03  0.00000000000E+00 0.  1.
          6    1    1    2  501    0  0.10441863546E+03 -0.33591754521E+02 -0.13956641818E+03  0.24786980955E+03  0.17300000000E+03 0. -1.
         -6    1    1    2    0  503 -0.10441863546E+03  0.33591754521E+02 -0.33792893582E+03  0.39516657636E+03  0.17300000000E+03 0. -1.
</event>
<event>
 4    1  0.5956049E+000  0.1000000E+03  0.7546771E-02  0.1280296E+00
         21   -1    0    0  503  502  0.00000000000E+00  0.00000000000E+00  0.35294948447E+03  0.35294948447E+03  0.00000000000E+00 0.  1.
         21   -1    0    0  501  503 -0.00000000000E+00 -0.00000000000E+00 -0.33058487314E+03  0.33058487314E+03  0.00000000000E+00 0.  1.
          6    1    1    2  501    0 -0.26028456242E+02  0.73496441386E+02 -0.27299722847E+03  0.33246908756E+03  0.17300000000E+03 0.  1.
         -6    1    1    2    0  502  0.26028456242E+02 -0.73496441386E+02  0.29536183979E+03  0.35106527005E+03  0.17300000000E+03 0.  1.
</event>
<event>
 4    1  0.5956049E+000  0.1000000E+03  0.7546771E-02  0.1280296E+00
         21   -1    0    0  503  502  0.00000000000E+00  0.00000000000E+00  0.58418834793E+03  0.58418834793E+03  0.00000000000E+00 0.  1.
         21   -1    0    0  501  503 -0.00000000000E+00 -0.00000000000E+00 -0.10262699942E+03  0.10262699942E+03  0.00000000000E+00 0.  1.
          6    1    1    2  501    0 -0.50740670650E+02  0.17047430842E+02  0.96477816457E+01  0.18134858766E+03  0.17300000000E+03 0.  1.
         -6    1    1    2    0  502  0.50740670650E+02 -0.17047430842E+02  0.47191356686E+03  0.50546675968E+03  0.17300000000E+03 0.  1.
</event>
<event>
 4    1  0.5956049E+000  0.1000000E+03  0.7546771E-02  0.1280296E+00
         21   -1    0    0  503  502  0.00000000000E+00  0.00000000000E+00  0.60366631884E+03  0.60366631884E+03  0.00000000000E+00 0. -1.
         21   -1    0    0  501  503 -0.00000000000E+00 -0.00000000000E+00 -0.78081281317E+02  0.78081281317E+02  0.00000000000E+00 0. -1.
          6    1    1    2  501    0  0.12535482216E+03 -0.16519842327E+02  0.20796766134E+03  0.29860724169E+03  0.17300000000E+03 0. -1.
         -6    1    1    2    0  502 -0.12535482216E+03  0.16519842327E+02  0.31761737618E+03  0.38314035846E+03  0.17300000000E+03 0. -1.
</event>
<event>
 4    1  0.5956049E+000  0.1000000E+03  0.7546771E-02  0.1280296E+00
         21   -1    0    0  503  502  0.00000000000E+00  0.00000000000E+00  0.73384019971E+03  0.73384019971E+03  0.00000000000E+00 0. -1.
         21   -1    0    0  501  503 -0.00000000000E+00 -0.00000000000E+00 -0.53635314644E+02  0.53635314644E+02  0.00000000000E+00 0. -1.
          6    1    1    2  501    0 -0.33846757819E+02 -0.68800037456E+02  0.22182575650E+03  0.29157282866E+03  0.17300000000E+03 0. -1.
         -6    1    1    2    0  502  0.33846757819E+02  0.68800037456E+02  0.45837912857E+03  0.49590268569E+03  0.17300000000E+03 0. -1.
</event>
<event>
 4    1  0.5956049E+000  0.1000000E+03  0.7546771E-02  0.1280296E+00
         21   -1    0    0  503  502  0.00000000000E+00  0.00000000000E+00  0.56570741969E+02  0.56570741969E+02  0.00000000000E+00 0. -1.
         21   -1    0    0  501  503 -0.00000000000E+00 -0.00000000000E+00 -0.14743573746E+04  0.14743573746E+04  0.00000000000E+00 0. -1.
          6    1    1    2  501    0  0.16120655822E+03  0.14312436958E+03 -0.93071879855E+03  0.97089578306E+03  0.17300000000E+03 0. -1.
         -6    1    1    2    0  502 -0.16120655822E+03 -0.14312436958E+03 -0.48706783405E+03  0.56003233349E+03  0.17300000000E+03 0. -1.
</event>
<event>
 4    1  0.5956049E+000  0.1000000E+03  0.7546771E-02  0.1280296E+00
         21   -1    0    0  503  502  0.00000000000E+00  0.00000000000E+00  0.43687714168E+03  0.43687714168E+03  0.00000000000E+00 0.  1.
         21   -1    0    0  501  503 -0.00000000000E+00 -0.00000000000E+00 -0.15637032333E+03  0.15637032333E+03  0.00000000000E+00 0. -1.
          6    1    1    2  501    0  0.13575396874E+03  0.64108215340E+02 -0.26087937251E+01  0.22907380712E+03  0.17300000000E+03 0. -1.
         -6    1    1    2    0  502 -0.13575396874E+03 -0.64108215340E+02  0.28311561208E+03  0.36417365789E+03  0.17300000000E+03 0.  1.
</event>
<event>
 4    1  0.5956049E+000  0.1000000E+03  0.7546771E-02  0.1280296E+00
         21   -1    0    0  503  502  0.00000000000E+00  0.00000000000E+00  0.22228611685E+03  0.22228611685E+03  0.00000000000E+00 0.  1.
         21   -1    0    0  501  503 -0.00000000000E+00 -0.00000000000E+00 -0.22552229740E+03  0.22552229740E+03  0.00000000000E+00 0. -1.
          6    1    1    2  501    0  0.29283951809E+02 -0.67756675543E+02 -0.12308302084E+03  0.22478199868E+03  0.17300000000E+03 0. -1.
         -6    1    1    2    0  502 -0.29283951809E+02  0.67756675543E+02  0.11984684029E+03  0.22302641557E+03  0.17300000000E+03 0.  1.
</event>
<event>
 4    1  0.5956049E+000  0.1000000E+03  0.7546771E-02  0.1280296E+00
         21   -1    0    0  503  502  0.00000000000E+00  0.00000000000E+00  0.35666843120E+02  0.35666843120E+02  0.00000000000E+00 0.  1.
         21   -1    0    0  501  503 -0.00000000000E+00 -0.00000000000E+00 -0.12498190652E+04  0.12498190652E+04  0.00000000000E+00 0. -1.
          6    1    1    2  501    0 -0.29989320428E+02 -0.54965592119E+02 -0.92238134591E+03  0.94055139304E+03  0.17300000000E+03 0. -1.
         -6    1    1    2    0  502  0.29989320428E+02  0.54965592119E+02 -0.29177087619E+03  0.34493451531E+03  0.17300000000E+03 0.  1.
</event>
<event>
 4    1  0.5956049E+000  0.1000000E+03  0.7546771E-02  0.1280296E+00
         21   -1    0    0  501  502  0.00000000000E+00  0.00000000000E+00  0.11918086964E+04  0.11918086964E+04  0.00000000000E+00 0.  1.
         21   -1    0    0  502  503 -0.00000000000E+00 -0.00000000000E+00 -0.31605732808E+02  0.31605732808E+02  0.00000000000E+00 0. -1.
          6    1    1    2  501    0  0.73124615465E+01  0.54085674553E+02  0.79755803569E+03  0.81792820748E+03  0.17300000000E+03 0.  1.
         -6    1    1    2    0  503 -0.73124615465E+01 -0.54085674553E+02  0.36264492792E+03  0.40548622175E+03  0.17300000000E+03 0. -1.
</event>
<event>
 4    1  0.5956049E+000  0.1000000E+03  0.7546771E-02  0.1280296E+00
         21   -1    0    0  501  502  0.00000000000E+00  0.00000000000E+00  0.18082811164E+04  0.18082811164E+04  0.00000000000E+00 0. -1.
         21   -1    0    0  502  503 -0.00000000000E+00 -0.00000000000E+00 -0.23591911761E+03  0.23591911761E+03  0.00000000000E+00 0. -1.
          6    1    1    2  501    0 -0.62339871764E+02 -0.27803467750E+03  0.16651455946E+04  0.16981838513E+04  0.17300000000E+03 0. -1.
         -6    1    1    2    0  503  0.62339871764E+02  0.27803467750E+03 -0.92783595767E+02  0.34601638277E+03  0.17300000000E+03 0. -1.
</event>
<event>
 4    1  0.5956049E+000  0.1000000E+03  0.7546771E-02  0.1280296E+00
         21   -1    0    0  501  502  0.00000000000E+00  0.00000000000E+00  0.29441718669E+03  0.29441718669E+03  0.00000000000E+00 0. -1.
         21   -1    0    0  502  503 -0.00000000000E+00 -0.00000000000E+00 -0.60995152537E+03  0.60995152537E+03  0.00000000000E+00 0. -1.
          6    1    1    2  501    0  0.92989599521E+02  0.83744144446E+01  0.24281739107E+03  0.31242036080E+03  0.17300000000E+03 0. -1.
         -6    1    1    2    0  503 -0.92989599521E+02 -0.83744144446E+01 -0.55835172976E+03  0.59194835126E+03  0.17300000000E+03 0. -1.
</event>
<event>
 4    1  0.5956049E+000  0.1000000E+03  0.7546771E-02  0.1280296E+00
         21   -1    0    0  501  502  0.00000000000E+00  0.00000000000E+00  0.50477552776E+03  0.50477552776E+03  0.00000000000E+00 0. -1.
         21   -1    0    0  502  503 -0.00000000000E+00 -0.00000000000E+00 -0.23893571202E+03  0.23893571202E+03  0.00000000000E+00 0. -1.
          6    1    1    2  501    0  0.58307429324E+01  0.65519240184E+02  0.44756699615E+03  0.48432632021E+03  0.17300000000E+03 0. -1.
         -6    1    1    2    0  503 -0.58307429324E+01 -0.65519240184E+02 -0.18172718042E+03  0.25938491957E+03  0.17300000000E+03 0. -1.
</event>
<event>
 4    1  0.5956049E+000  0.1000000E+03  0.7546771E-02  0.1280296E+00
         21   -1    0    0  503  502  0.00000000000E+00  0.00000000000E+00  0.59844184561E+02  0.59844184561E+02  0.00000000000E+00 0. -1.
         21   -1    0    0  501  503 -0.00000000000E+00 -0.00000000000E+00 -0.86606560751E+03  0.86606560751E+03  0.00000000000E+00 0.  1.
          6    1    1    2  501    0 -0.20307523430E+02 -0.59084078721E+02 -0.67591320706E+03  0.70049338851E+03  0.17300000000E+03 0.  1.
         -6    1    1    2    0  502  0.20307523430E+02  0.59084078721E+02 -0.13030821589E+03  0.22541640356E+03  0.17300000000E+03 0. -1.
</event>
<event>
 4    1  0.5956049E+000  0.1000000E+03  0.7546771E-02  0.1280296E+00
         21   -1    0    0  503  502  0.00000000000E+00  0.00000000000E+00  0.11605090061E+03  0.11605090061E+03  0.00000000000E+00 0. -1.
         21   -1    0    0  501  503 -0.00000000000E+00 -0.00000000000E+00 -0.76414874949E+03  0.76414874949E+03  0.00000000000E+00 0.  1.
          6    1    1    2  501    0  0.15698764168E+03 -0.33492205784E+02 -0.59245456681E+03  0.63772898728E+03  0.17300000000E+03 0.  1.
         -6    1    1    2    0  502 -0.15698764168E+03  0.33492205784E+02 -0.55643282065E+02  0.24247066282E+03  0.17300000000E+03 0. -1.
</event>
<event>
 4    1  0.5956049E+000  0.1000000E+03  0.7546771E-02  0.1280296E+00
         21   -1    0    0  501  502  0.00000000000E+00  0.00000000000E+00  0.94504269947E+03  0.94504269947E+03  0.00000000000E+00 0.  1.
         21   -1    0    0  502  503 -0.00000000000E+00 -0.00000000000E+00 -0.21120361107E+03  0.21120361107E+03  0.00000000000E+00 0.  1.
          6    1    1    2  501    0  0.71947779276E+02 -0.29043579996E+03  0.73324172177E+03  0.81061819582E+03  0.17300000000E+03 0.  1.
         -6    1    1    2    0  503 -0.71947779276E+02  0.29043579996E+03  0.59736662414E+00  0.34562811472E+03  0.17300000000E+03 0.  1.
</event>
<event>
 4    1  0.5956049E+000  0.1000000E+03  0.7546771E-02  0.1280296E+00
         21   -1    0    0  501  502  0.00000000000E+00  0.00000000000E+00  0.15145175194E+03  0.15145175194E+03  0.00000000000E+00 0.  1.
         21   -1    0    0  502  503 -0.00000000000E+00 -0.00000000000E+00 -0.46522653651E+03  0.46522653651E+03  0.00000000000E+00 0.  1.
          6    1    1    2  501    0 -0.64470482511E+02  0.18438640417E+03 -0.10027069311E+03  0.27953175321E+03  0.17300000000E+03 0.  1.
         -6    1    1    2    0  503  0.64470482511E+02 -0.18438640417E+03 -0.21350409146E+03  0.33714653525E+03  0.17300000000E+03 0.  1.
</event>
<event>
 4    1  0.5956049E+000  0.1000000E+03  0.7546771E-02  0.1280296E+00
         21   -1    0    0  501  502  0.00000000000E+00  0.00000000000E+00  0.15777257798E+04  0.15777257798E+04  0.00000000000E+00 0. -1.
         21   -1    0    0  502  503 -0.00000000000E+00 -0.00000000000E+00 -0.19686688268E+02  0.19686688268E+02  0.00000000000E+00 0. -1.
          6    1    1    2  501    0  0.86293062175E+01 -0.30009389201E+02  0.72238519344E+03  0.74346781777E+03  0.17300000000E+03 0. -1.
         -6    1    1    2    0  503 -0.86293062175E+01  0.30009389201E+02  0.83565389806E+03  0.85394465026E+03  0.17300000000E+03 0. -1.
</event>
<event>
 4    1  0.5956049E+000  0.1000000E+03  0.7546771E-02  0.1280296E+00
         21   -1    0    0  503  502  0.00000000000E+00  0.00000000000E+00  0.17217979265E+03  0.17217979265E+03  0.00000000000E+00 0.  1.
         21   -1    0    0  501  503 -0.00000000000E+00 -0.00000000000E+00 -0.33003599996E+03  0.33003599996E+03  0.00000000000E+00 0. -1.
          6    1    1    2  501    0  0.67790877748E+02 -0.74904348434E+02 -0.21501623318E+03  0.29388304656E+03  0.17300000000E+03 0. -1.
         -6    1    1    2    0  502 -0.67790877748E+02  0.74904348434E+02  0.57160025877E+02  0.20833274605E+03  0.17300000000E+03 0. -1.
</event>
<event>
 4    1  0.5956049E+000  0.1000000E+03  0.7546771E-02  0.1280296E+00
         21   -1    0    0  503  502  0.00000000000E+00  0.00000000000E+00  0.54492149014E+03  0.54492149014E+03  0.00000000000E+00 0.  1.
         21   -1    0    0  501  503 -0.00000000000E+00 -0.00000000000E+00 -0.18617365417E+03  0.18617365417E+03  0.00000000000E+00 0. -1.
          6    1    1    2  501    0  0.75334267399E+02  0.17845256289E+02 -0.11441068274E+03  0.22138769013E+03  0.17300000000E+03 0. -1.
         -6    1    1    2    0  502 -0.75334267399E+02 -0.17845256289E+02  0.47315851871E+03  0.50970745418E+03  0.17300000000E+03 0. -1.
</event>
<event>
 4    1  0.5956049E+000  0.1000000E+03  0.7546771E-02  0.1280296E+00
         21   -1    0    0  503  502  0.00000000000E+00  0.00000000000E+00  0.33913585646E+03  0.33913585646E+03  0.00000000000E+00 0. -1.
         21   -1    0    0  501  503 -0.00000000000E+00 -0.00000000000E+00 -0.18444693579E+03  0.18444693579E+03  0.00000000000E+00 0. -1.
          6    1    1    2  501    0  0.19728032195E+02 -0.17284475173E+03  0.12818414466E+03  0.27681162981E+03  0.17300000000E+03 0.  1.
         -6    1    1    2    0  502 -0.19728032195E+02  0.17284475173E+03  0.26504776015E+02  0.24677116243E+03  0.17300000000E+03 0.  1.
</event>
<event>
 4    1  0.5956049E+000  0.1000000E+03  0.7546771E-02  0.1280296E+00
         21   -1    0    0  503  502  0.00000000000E+00  0.00000000000E+00  0.16975558121E+03  0.16975558121E+03  0.00000000000E+00 0. -1.
         21   -1    0    0  501  503 -0.00000000000E+00 -0.00000000000E+00 -0.25023239671E+03  0.25023239671E+03  0.00000000000E+00 0. -1.
          6    1    1    2  501    0 -0.14400711217E+02  0.53442647557E+02 -0.13947256033E+03  0.22900893464E+03  0.17300000000E+03 0.  1.
         -6    1    1    2    0  502  0.14400711217E+02 -0.53442647557E+02  0.58995744836E+02  0.19097904327E+03  0.17300000000E+03 0.  1.
</event>
<event>
 4    1  0.5956049E+000  0.1000000E+03  0.7546771E-02  0.1280296E+00
         21   -1    0    0  503  502  0.00000000000E+00  0.00000000000E+00  0.23684918214E+03  0.23684918214E+03  0.00000000000E+00 0.  1.
         21   -1    0    0  501  503 -0.00000000000E+00 -0.00000000000E+00 -0.25545085809E+03  0.25545085809E+03  0.00000000000E+00 0. -1.
          6    1    1    2  501    0  0.22368515298E+02 -0.14617076973E+03 -0.10268463172E+03  0.24967854932E+03  0.17300000000E+03 0. -1.
         -6    1    1    2    0  502 -0.22368515298E+02  0.14617076973E+03  0.84082955776E+02  0.24262149091E+03  0.17300000000E+03 0.  1.
</event>
<event>
 4    1  0.5956049E+000  0.1000000E+03  0.7546771E-02  0.1280296E+00
         21   -1    0    0  501  502  0.00000000000E+00  0.00000000000E+00  0.12725460400E+03  0.12725460400E+03  0.00000000000E+00 0.  1.
         21   -1    0    0  502  503 -0.00000000000E+00 -0.00000000000E+00 -0.10332666375E+04  0.10332666375E+04  0.00000000000E+00 0.  1.
          6    1    1    2  501    0 -0.18149509416E+03  0.42115420180E+02 -0.39279055223E+02  0.25726644165E+03  0.17300000000E+03 0.  1.
         -6    1    1    2    0  503  0.18149509416E+03 -0.42115420180E+02 -0.86673297827E+03  0.90325479984E+03  0.17300000000E+03 0.  1.
</event>
<event>
 4    1  0.5956049E+000  0.1000000E+03  0.7546771E-02  0.1280296E+00
         21   -1    0    0  501  502  0.00000000000E+00  0.00000000000E+00  0.34040059028E+03  0.34040059028E+03  0.00000000000E+00 0.  1.
         21   -1    0    0  502  503 -0.00000000000E+00 -0.00000000000E+00 -0.10711153915E+03  0.10711153915E+03  0.00000000000E+00 0.  1.
          6    1    1    2  501    0  0.32173805879E+02 -0.72767895057E+02  0.13327906245E+03  0.23242768515E+03  0.17300000000E+03 0.  1.
         -6    1    1    2    0  503 -0.32173805879E+02  0.72767895057E+02  0.10000998868E+03  0.21508444428E+03  0.17300000000E+03 0.  1.
</event>
<event>
 4    1  0.5956049E+000  0.1000000E+03  0.7546771E-02  0.1280296E+00
         21   -1    0    0  501  502  0.00000000000E+00  0.00000000000E+00  0.49317593296E+02  0.49317593296E+02  0.00000000000E+00 0. -1.
         21   -1    0    0  502  503 -0.00000000000E+00 -0.00000000000E+00 -0.23678022505E+04  0.23678022505E+04  0.00000000000E+00 0. -1.
          6    1    1    2  501    0  0.10366310476E+03  0.15441500142E+03 -0.19677043275E+04  0.19840310865E+04  0.17300000000E+03 0. -1.
         -6    1    1    2    0  503 -0.10366310476E+03 -0.15441500142E+03 -0.35078032976E+03  0.43308875729E+03  0.17300000000E+03 0. -1.
</event>
<event>
 4    1  0.5956049E+000  0.1000000E+03  0.7546771E-02  0.1280296E+00
         21   -1    0    0  501  502  0.00000000000E+00  0.00000000000E+00  0.59286386205E+03  0.59286386205E+03  0.00000000000E+00 0.  1.
         21   -1    0    0  502  503 -0.00000000000E+00 -0.00000000000E+00 -0.16097442723E+03  0.16097442723E+03  0.00000000000E+00 0.  1.
          6    1    1    2  501    0  0.18144969762E+03 -0.12246939593E+03  0.37773530818E+03  0.46961229621E+03  0.17300000000E+03 0.  1.
         -6    1    1    2    0  503 -0.18144969762E+03  0.12246939593E+03  0.54154126641E+02  0.28422599307E+03  0.17300000000E+03 0.  1.
</event>
<event>
 4    1  0.5956049E+000  0.1000000E+03  0.7546771E-02  0.1280296E+00
         21   -1    0    0  501  502  0.00000000000E+00  0.00000000000E+00  0.47514803294E+03  0.47514803294E+03  0.00000000000E+00 0.  1.
         21   -1    0    0  502  503 -0.00000000000E+00 -0.00000000000E+00 -0.87049329184E+02  0.87049329184E+02  0.00000000000E+00 0.  1.
          6    1    1    2  501    0  0.88642604880E+02 -0.25961729311E+02  0.26849171060E+03  0.33248807716E+03  0.17300000000E+03 0.  1.
         -6    1    1    2    0  503 -0.88642604880E+02  0.25961729311E+02  0.11960699315E+03  0.22970928497E+03  0.17300000000E+03 0.  1.
</event>
<event>
 4    1  0.5956049E+000  0.1000000E+03  0.7546771E-02  0.1280296E+00
         21   -1    0    0  503  502  0.00000000000E+00  0.00000000000E+00  0.38617105902E+03  0.38617105902E+03  0.00000000000E+00 0. -1.
         21   -1    0    0  501  503 -0.00000000000E+00 -0.00000000000E+00 -0.14909588652E+03  0.14909588652E+03  0.00000000000E+00 0.  1.
          6    1    1    2  501    0  0.39069172509E+02  0.54905033242E+02 -0.51007545067E+02  0.19254021027E+03  0.17300000000E+03 0.  1.
         -6    1    1    2    0  502 -0.39069172509E+02 -0.54905033242E+02  0.28808271757E+03  0.34272673528E+03  0.17300000000E+03 0. -1.
</event>
<event>
 4    1  0.5956049E+000  0.1000000E+03  0.7546771E-02  0.1280296E+00
         21   -1    0    0  503  502  0.00000000000E+00  0.00000000000E+00  0.73769350616E+02  0.73769350616E+02  0.00000000000E+00 0. -1.
         21   -1    0    0  501  503 -0.00000000000E+00 -0.00000000000E+00 -0.69893897742E+03  0.69893897742E+03  0.00000000000E+00 0. -1.
          6    1    1    2  501    0 -0.11486183607E+03  0.26309232343E+02 -0.46233340120E+03  0.50751018803E+03  0.17300000000E+03 0. -1.
         -6    1    1    2    0  502  0.11486183607E+03 -0.26309232343E+02 -0.16283622561E+03  0.26519814001E+03  0.17300000000E+03 0. -1.
</event>
<event>
 4    1  0.5956049E+000  0.1000000E+03  0.7546771E-02  0.1280296E+00
         21   -1    0    0  503  502  0.00000000000E+00  0.00000000000E+00  0.28009896201E+03  0.28009896201E+03  0.00000000000E+00 0. -1.
         21   -1    0    0  501  503 -0.00000000000E+00 -0.00000000000E+00 -0.17840667776E+03  0.17840667776E+03  0.00000000000E+00 0.  1.
          6    1    1    2  501    0 -0.34840875806E+02  0.28416959916E+02 -0.86825411329E+02  0.19871855044E+03  0.17300000000E+03 0. -1.
         -6    1    1    2    0  502  0.34840875806E+02 -0.28416959916E+02  0.18851769557E+03  0.25978708933E+03  0.17300000000E+03 0.  1.
</event>
<event>
 4    1  0.5956049E+000  0.1000000E+03  0.7546771E-02  0.1280296E+00
         21   -1    0    0  503  502  0.00000000000E+00  0.00000000000E+00  0.20411466858E+02  0.20411466858E+02  0.00000000000E+00 0. -1.
         21   -1    0    0  501  503 -0.00000000000E+00 -0.00000000000E+00 -0.16918823789E+04  0.16918823789E+04  0.00000000000E+00 0.  1.
          6    1    1    2  501    0 -0.51949827071E+02  0.99543827493E+01 -0.10315731978E+04  0.10473156814E+04  0.17300000000E+03 0. -1.
         -6    1    1    2    0  502  0.51949827071E+02 -0.99543827493E+01 -0.63989771430E+03  0.66497816433E+03  0.17300000000E+03 0.  1.
</event>
<event>
 4    1  0.5956049E+000  0.1000000E+03  0.7546771E-02  0.1280296E+00
         21   -1    0    0  503  502  0.00000000000E+00  0.00000000000E+00  0.29475973209E+03  0.29475973209E+03  0.00000000000E+00 0.  1.
         21   -1    0    0  501  503 -0.00000000000E+00 -0.00000000000E+00 -0.24941906597E+03  0.24941906597E+03  0.00000000000E+00 0.  1.
          6    1    1    2  501    0 -0.74681789294E+02 -0.17681050176E+03 -0.59777004223E+02  0.26521993405E+03  0.17300000000E+03 0.  1.
         -6    1    1    2    0  502  0.74681789294E+02  0.17681050176E+03  0.10511767034E+03  0.27895886400E+03  0.17300000000E+03 0.  1.
</event>
<event>
 4    1  0.5956049E+000  0.1000000E+03  0.7546771E-02  0.1280296E+00
         21   -1    0    0  503  502  0.00000000000E+00  0.00000000000E+00  0.11742626219E+04  0.11742626219E+04  0.00000000000E+00 0.  1.
         21   -1    0    0  501  503 -0.00000000000E+00 -0.00000000000E+00 -0.71171329105E+02  0.71171329105E+02  0.00000000000E+00 0.  1.
          6    1    1    2  501    0 -0.21051813577E+03  0.34647221987E+02  0.35736419327E+03  0.45072883435E+03  0.17300000000E+03 0.  1.
         -6    1    1    2    0  502  0.21051813577E+03 -0.34647221987E+02  0.74572709952E+03  0.79470511666E+03  0.17300000000E+03 0.  1.
</event>
<event>
 4    1  0.5956049E+000  0.1000000E+03  0.7546771E-02  0.1280296E+00
         21   -1    0    0  503  502  0.00000000000E+00  0.00000000000E+00  0.12250254063E+03  0.12250254063E+03  0.00000000000E+00 0.  1.
         21   -1    0    0  501  503 -0.00000000000E+00 -0.00000000000E+00 -0.34205103510E+03  0.34205103510E+03  0.00000000000E+00 0.  1.
          6    1    1    2  501    0 -0.30109191530E+02  0.86440444274E+02 -0.17780629091E+03  0.26442880121E+03  0.17300000000E+03 0.  1.
         -6    1    1    2    0  502  0.30109191530E+02 -0.86440444274E+02 -0.41742203555E+02  0.20012477452E+03  0.17300000000E+03 0.  1.
</event>
<event>
 4    1  0.5956049E+000  0.1000000E+03  0.7546771E-02  0.1280296E+00
         21   -1    0    0  503  502  0.00000000000E+00  0.00000000000E+00  0.27542687997E+03  0.27542687997E+03  0.00000000000E+00 0.  1.
         21   -1    0    0  501  503 -0.00000000000E+00 -0.00000000000E+00 -0.16027372201E+03  0.16027372201E+03  0.00000000000E+00 0.  1.
          6    1    1    2  501    0 -0.24443310338E+02 -0.67707338720E+02 -0.40969242373E+02  0.19180520837E+03  0.17300000000E+03 0.  1.
         -6    1    1    2    0  502  0.24443310338E+02  0.67707338720E+02  0.15612240033E+03  0.24389539361E+03  0.17300000000E+03 0.  1.
</event>
<event>
 4    1  0.5956049E+000  0.1000000E+03  0.7546771E-02  0.1280296E+00
         21   -1    0    0  501  502  0.00000000000E+00  0.00000000000E+00  0.63482003671E+03  0.63482003671E+03  0.00000000000E+00 0. -1.
         21   -1    0    0  502  503 -0.00000000000E+00 -0.00000000000E+00 -0.91791258523E+02  0.91791258523E+02  0.00000000000E+00 0. -1.
          6    1    1    2  501    0  0.25243774322E+02  0.62030158741E+02  0.50397723781E+03  0.53703542245E+03  0.17300000000E+03 0. -1.
         -6    1    1    2    0  503 -0.25243774322E+02 -0.62030158741E+02  0.39051540376E+02  0.18957587278E+03  0.17300000000E+03 0. -1.
</event>
<event>
 4    1  0.5956049E+000  0.1000000E+03  0.7546771E-02  0.1280296E+00
         21   -1    0    0  501  502  0.00000000000E+00  0.00000000000E+00  0.76466174792E+03  0.76466174792E+03  0.00000000000E+00 0. -1.
         21   -1    0    0  502  503 -0.00000000000E+00 -0.00000000000E+00 -0.89528865895E+02  0.89528865895E+02  0.00000000000E+00 0. -1.
          6    1    1    2  501    0 -0.84062325139E+02  0.10440153661E+03  0.57164621552E+03  0.61210665008E+03  0.17300000000E+03 0. -1.
         -6    1    1    2    0  503  0.84062325139E+02 -0.10440153661E+03  0.10348666651E+03  0.24208396374E+03  0.17300000000E+03 0. -1.
</event>
<event>
 4    1  0.5956049E+000  0.1000000E+03  0.7546771E-02  0.1280296E+00
         21   -1    0    0  501  502  0.00000000000E+00  0.00000000000E+00  0.13650899208E+04  0.13650899208E+04  0.00000000000E+00 0. -1.
         21   -1    0    0  502  503 -0.00000000000E+00 -0.00000000000E+00 -0.42401997513E+02  0.42401997513E+02  0.00000000000E+00 0. -1.
          6    1    1    2  501    0 -0.70614673403E+02  0.10959010807E+02  0.11034808875E+04  0.11192433163E+04  0.17300000000E+03 0. -1.
         -6    1    1    2    0  503  0.70614673403E+02 -0.10959010807E+02  0.21920703576E+03  0.28824860199E+03  0.17300000000E+03 0. -1.
</event>
<event>
 4    1  0.5956049E+000  0.1000000E+03  0.7546771E-02  0.1280296E+00
         21   -1    0    0  501  502  0.00000000000E+00  0.00000000000E+00  0.86256608204E+03  0.86256608204E+03  0.00000000000E+00 0. -1.
         21   -1    0    0  502  503 -0.00000000000E+00 -0.00000000000E+00 -0.55740006407E+02  0.55740006407E+02  0.00000000000E+00 0. -1.
          6    1    1    2  501    0 -0.20171205871E+02  0.27252297479E+01  0.68228654564E+03  0.70417202074E+03  0.17300000000E+03 0. -1.
         -6    1    1    2    0  503  0.20171205871E+02 -0.27252297479E+01  0.12453952999E+03  0.21413406771E+03  0.17300000000E+03 0. -1.
</event>
<event>
 4    1  0.5956049E+000  0.1000000E+03  0.7546771E-02  0.1280296E+00
         21   -1    0    0  501  502  0.00000000000E+00  0.00000000000E+00  0.13748069591E+03  0.13748069591E+03  0.00000000000E+00 0.  1.
         21   -1    0    0  502  503 -0.00000000000E+00 -0.00000000000E+00 -0.14384691603E+04  0.14384691603E+04  0.00000000000E+00 0. -1.
          6    1    1    2  501    0  0.90190490235E+02  0.14607160540E+02  0.57127637577E+02  0.20381427978E+03  0.17300000000E+03 0.  1.
         -6    1    1    2    0  503 -0.90190490235E+02 -0.14607160540E+02 -0.13581161020E+04  0.13721355764E+04  0.17300000000E+03 0. -1.
</event>
<event>
 4    1  0.5956049E+000  0.1000000E+03  0.7546771E-02  0.1280296E+00
         21   -1    0    0  501  502  0.00000000000E+00  0.00000000000E+00  0.89642242551E+02  0.89642242551E+02  0.00000000000E+00 0.  1.
         21   -1    0    0  502  503 -0.00000000000E+00 -0.00000000000E+00 -0.60825699631E+03  0.60825699631E+03  0.00000000000E+00 0. -1.
          6    1    1    2  501    0  0.19864909166E+02 -0.61096580351E+02 -0.45505091401E+02  0.19007135526E+03  0.17300000000E+03 0.  1.
         -6    1    1    2    0  503 -0.19864909166E+02  0.61096580351E+02 -0.47310966236E+03  0.50782788360E+03  0.17300000000E+03 0. -1.
</event>
<event>
 4    1  0.5956049E+000  0.1000000E+03  0.7546771E-02  0.1280296E+00
         21   -1    0    0  503  502  0.00000000000E+00  0.00000000000E+00  0.12047424415E+03  0.12047424415E+03  0.00000000000E+00 0. -1.
         21   -1    0    0  501  503 -0.00000000000E+00 -0.00000000000E+00 -0.44802693648E+03  0.44802693648E+03  0.00000000000E+00 0. -1.
          6    1    1    2  501    0 -0.93958270796E+02  0.52280343291E+02 -0.30048687695E+03  0.36301894464E+03  0.17300000000E+03 0. -1.
         -6    1    1    2    0  502  0.93958270796E+02 -0.52280343291E+02 -0.27065815368E+02  0.20548223599E+03  0.17300000000E+03 0. -1.
</event>
<event>
 4    1  0.5956049E+000  0.1000000E+03  0.7546771E-02  0.1280296E+00
         21   -1    0    0  503  502  0.00000000000E+00  0.00000000000E+00  0.26606213318E+03  0.26606213318E+03  0.00000000000E+00 0. -1.
         21   -1    0    0  501  503 -0.00000000000E+00 -0.00000000000E+00 -0.18986365268E+03  0.18986365268E+03  0.00000000000E+00 0. -1.
          6    1    1    2  501    0 -0.23207250796E+02  0.83403450247E+02 -0.77952501573E+02  0.20856726614E+03  0.17300000000E+03 0. -1.
         -6    1    1    2    0  502  0.23207250796E+02 -0.83403450247E+02  0.15415098207E+03  0.24735851972E+03  0.17300000000E+03 0. -1.
</event>
<event>
 4    1  0.5956049E+000  0.1000000E+03  0.7546771E-02  0.1280296E+00
         21   -1    0    0  503  502  0.00000000000E+00  0.00000000000E+00  0.19229152026E+03  0.19229152026E+03  0.00000000000E+00 0. -1.
         21   -1    0    0  501  503 -0.00000000000E+00 -0.00000000000E+00 -0.25780102558E+03  0.25780102558E+03  0.00000000000E+00 0. -1.
          6    1    1    2  501    0 -0.31100968922E+01  0.33210044748E+02 -0.17034993166E+03  0.24507280345E+03  0.17300000000E+03 0. -1.
         -6    1    1    2    0  502  0.31100968922E+01 -0.33210044748E+02  0.10484042633E+03  0.20501974239E+03  0.17300000000E+03 0. -1.
</event>
<event>
 4    1  0.5956049E+000  0.1000000E+03  0.7546771E-02  0.1280296E+00
         21   -1    0    0  501  502  0.00000000000E+00  0.00000000000E+00  0.12180449547E+03  0.12180449547E+03  0.00000000000E+00 0. -1.
         21   -1    0    0  502  503 -0.00000000000E+00 -0.00000000000E+00 -0.50350238917E+03  0.50350238917E+03  0.00000000000E+00 0. -1.
          6    1    1    2  501    0 -0.77284617432E+02 -0.15588114194E+03 -0.14844681977E+03  0.28677046711E+03  0.17300000000E+03 0. -1.
         -6    1    1    2    0  503  0.77284617432E+02  0.15588114194E+03 -0.23325107393E+03  0.33853641753E+03  0.17300000000E+03 0. -1.
</event>
<event>
 4    1  0.5956049E+000  0.1000000E+03  0.7546771E-02  0.1280296E+00
         21   -1    0    0  501  502  0.00000000000E+00  0.00000000000E+00  0.77040640336E+03  0.77040640336E+03  0.00000000000E+00 0. -1.
         21   -1    0    0  502  503 -0.00000000000E+00 -0.00000000000E+00 -0.26401392795E+03  0.26401392795E+03  0.00000000000E+00 0. -1.
          6    1    1    2  501    0 -0.29671280700E+03  0.24602058517E+03  0.72215749894E+02  0.42861256713E+03  0.17300000000E+03 0. -1.
         -6    1    1    2    0  503  0.29671280700E+03 -0.24602058517E+03  0.43417672552E+03  0.60580776419E+03  0.17300000000E+03 0. -1.
</event>
<event>
 4    1  0.5956049E+000  0.1000000E+03  0.7546771E-02  0.1280296E+00
         21   -1    0    0  501  502  0.00000000000E+00  0.00000000000E+00  0.43042671130E+02  0.43042671130E+02  0.00000000000E+00 0. -1.
         21   -1    0    0  502  503 -0.00000000000E+00 -0.00000000000E+00 -0.80012044564E+03  0.80012044564E+03  0.00000000000E+00 0. -1.
          6    1    1    2  501    0 -0.42800739459E+00 -0.21638052635E+02 -0.23411173368E+03  0.29190014108E+03  0.17300000000E+03 0. -1.
         -6    1    1    2    0  503  0.42800739459E+00  0.21638052635E+02 -0.52296604082E+03  0.55126297569E+03  0.17300000000E+03 0. -1.
</event>
<event>
 4    1  0.5956049E+000  0.1000000E+03  0.7546771E-02  0.1280296E+00
         21   -1    0    0  501  502  0.00000000000E+00  0.00000000000E+00  0.10353942645E+03  0.10353942645E+03  0.00000000000E+00 0. -1.
         21   -1    0    0  502  503 -0.00000000000E+00 -0.00000000000E+00 -0.50668389422E+03  0.50668389422E+03  0.00000000000E+00 0. -1.
          6    1    1    2  501    0  0.12582511815E+03  0.29143386127E+02 -0.30347115608E+03  0.37243125525E+03  0.17300000000E+03 0. -1.
         -6    1    1    2    0  503 -0.12582511815E+03 -0.29143386127E+02 -0.99673311689E+02  0.23779206542E+03  0.17300000000E+03 0. -1.
</event>
<event>
 4    1  0.5956049E+000  0.1000000E+03  0.7546771E-02  0.1280296E+00
         21   -1    0    0  501  502  0.00000000000E+00  0.00000000000E+00  0.21358021883E+03  0.21358021883E+03  0.00000000000E+00 0. -1.
         21   -1    0    0  502  503 -0.00000000000E+00 -0.00000000000E+00 -0.23416528346E+03  0.23416528346E+03  0.00000000000E+00 0. -1.
          6    1    1    2  501    0  0.86408761250E+02 -0.39721791704E+02  0.94889033852E+02  0.21903703683E+03  0.17300000000E+03 0. -1.
         -6    1    1    2    0  503 -0.86408761250E+02  0.39721791704E+02 -0.11547409848E+03  0.22870846547E+03  0.17300000000E+03 0. -1.
</event>
<event>
 4    1  0.5956049E+000  0.1000000E+03  0.7546771E-02  0.1280296E+00
         21   -1    0    0  503  502  0.00000000000E+00  0.00000000000E+00  0.11221761660E+03  0.11221761660E+03  0.00000000000E+00 0. -1.
         21   -1    0    0  501  503 -0.00000000000E+00 -0.00000000000E+00 -0.43202425013E+03  0.43202425013E+03  0.00000000000E+00 0. -1.
          6    1    1    2  501    0 -0.68039380049E+02 -0.11394676702E+03 -0.19776470404E+03  0.29436898803E+03  0.17300000000E+03 0. -1.
         -6    1    1    2    0  502  0.68039380049E+02  0.11394676702E+03 -0.12204192950E+03  0.24987287870E+03  0.17300000000E+03 0. -1.
</event>
<event>
 4    1  0.5956049E+000  0.1000000E+03  0.7546771E-02  0.1280296E+00
         21   -1    0    0  503  502  0.00000000000E+00  0.00000000000E+00  0.21547878812E+03  0.21547878812E+03  0.00000000000E+00 0. -1.
         21   -1    0    0  501  503 -0.00000000000E+00 -0.00000000000E+00 -0.22308863659E+03  0.22308863659E+03  0.00000000000E+00 0. -1.
          6    1    1    2  501    0  0.12531189442E+03  0.33315464676E+02  0.32654343523E+02  0.21865108557E+03  0.17300000000E+03 0. -1.
         -6    1    1    2    0  502 -0.12531189442E+03 -0.33315464676E+02 -0.40264191992E+02  0.21991633915E+03  0.17300000000E+03 0. -1.
</event>
<event>
 4    1  0.5956049E+000  0.1000000E+03  0.7546771E-02  0.1280296E+00
         21   -1    0    0  503  502  0.00000000000E+00  0.00000000000E+00  0.13664652021E+04  0.13664652021E+04  0.00000000000E+00 0. -1.
         21   -1    0    0  501  503 -0.00000000000E+00 -0.00000000000E+00 -0.90790659137E+02  0.90790659137E+02  0.00000000000E+00 0. -1.
          6    1    1    2  501    0 -0.27074565705E+03 -0.14195557406E+03  0.69172857002E+03  0.77580410569E+03  0.17300000000E+03 0. -1.
         -6    1    1    2    0  502  0.27074565705E+03  0.14195557406E+03  0.58394597290E+03  0.68145175551E+03  0.17300000000E+03 0. -1.
</event>
<event>
 4    1  0.5956049E+000  0.1000000E+03  0.7546771E-02  0.1280296E+00
         21   -1    0    0  503  502  0.00000000000E+00  0.00000000000E+00  0.10813184745E+03  0.10813184745E+03  0.00000000000E+00 0. -1.
         21   -1    0    0  501  503 -0.00000000000E+00 -0.00000000000E+00 -0.16240298870E+04  0.16240298870E+04  0.00000000000E+00 0. -1.
          6    1    1    2  501    0 -0.21291629109E+03  0.10974035634E+03 -0.13720997299E+04  0.14035536903E+04  0.17300000000E+03 0. -1.
         -6    1    1    2    0  502  0.21291629109E+03 -0.10974035634E+03 -0.14379830968E+03  0.32860804416E+03  0.17300000000E+03 0. -1.
</event>
<event>
 4    1  0.5956049E+000  0.1000000E+03  0.7546771E-02  0.1280296E+00
         21   -1    0    0  503  502  0.00000000000E+00  0.00000000000E+00  0.11222358319E+03  0.11222358319E+03  0.00000000000E+00 0. -1.
         21   -1    0    0  501  503 -0.00000000000E+00 -0.00000000000E+00 -0.18144844389E+04  0.18144844389E+04  0.00000000000E+00 0. -1.
          6    1    1    2  501    0 -0.17520621566E+03 -0.80681237403E+02 -0.16398474995E+04  0.16601914052E+04  0.17300000000E+03 0. -1.
         -6    1    1    2    0  502  0.17520621566E+03  0.80681237403E+02 -0.62413356194E+02  0.26651661694E+03  0.17300000000E+03 0. -1.
</event>
<event>
 4    1  0.5956049E+000  0.1000000E+03  0.7546771E-02  0.1280296E+00
         21   -1    0    0  501  502  0.00000000000E+00  0.00000000000E+00  0.45055310154E+03  0.45055310154E+03  0.00000000000E+00 0. -1.
         21   -1    0    0  502  503 -0.00000000000E+00 -0.00000000000E+00 -0.10490360324E+03  0.10490360324E+03  0.00000000000E+00 0. -1.
          6    1    1    2  501    0 -0.14612618475E+02  0.63818266841E+02  0.31875534746E+03  0.36853801885E+03  0.17300000000E+03 0. -1.
         -6    1    1    2    0  503  0.14612618475E+02 -0.63818266841E+02  0.26894150835E+02  0.18691868593E+03  0.17300000000E+03 0. -1.
</event>
<event>
 4    1  0.5956049E+000  0.1000000E+03  0.7546771E-02  0.1280296E+00
         21   -1    0    0  503  502  0.00000000000E+00  0.00000000000E+00  0.79344804001E+02  0.79344804001E+02  0.00000000000E+00 0. -1.
         21   -1    0    0  501  503 -0.00000000000E+00 -0.00000000000E+00 -0.47919503226E+03  0.47919503226E+03  0.00000000000E+00 0. -1.
          6    1    1    2  501    0  0.21988170471E+02  0.83428810137E+02 -0.23640561582E+03  0.30538575801E+03  0.17300000000E+03 0. -1.
         -6    1    1    2    0  502 -0.21988170471E+02 -0.83428810137E+02 -0.16344461244E+03  0.25315407825E+03  0.17300000000E+03 0. -1.
</event>
<event>
 4    1  0.5956049E+000  0.1000000E+03  0.7546771E-02  0.1280296E+00
         21   -1    0    0  503  502  0.00000000000E+00  0.00000000000E+00  0.28269121855E+03  0.28269121855E+03  0.00000000000E+00 0. -1.
         21   -1    0    0  501  503 -0.00000000000E+00 -0.00000000000E+00 -0.14050030864E+03  0.14050030864E+03  0.00000000000E+00 0. -1.
          6    1    1    2  501    0 -0.36025601659E+02  0.82182691148E+02  0.11534997898E+03  0.22646513275E+03  0.17300000000E+03 0. -1.
         -6    1    1    2    0  502  0.36025601659E+02 -0.82182691148E+02  0.26840930932E+02  0.19672639445E+03  0.17300000000E+03 0. -1.
</event>
<event>
 4    1  0.5956049E+000  0.1000000E+03  0.7546771E-02  0.1280296E+00
         21   -1    0    0  503  502  0.00000000000E+00  0.00000000000E+00  0.84399889710E+03  0.84399889710E+03  0.00000000000E+00 0. -1.
         21   -1    0    0  501  503 -0.00000000000E+00 -0.00000000000E+00 -0.72778729962E+02  0.72778729962E+02  0.00000000000E+00 0. -1.
          6    1    1    2  501    0  0.12544635809E+03 -0.40569787562E+02  0.60533421608E+03  0.64322718349E+03  0.17300000000E+03 0. -1.
         -6    1    1    2    0  502 -0.12544635809E+03  0.40569787562E+02  0.16588595106E+03  0.27355044357E+03  0.17300000000E+03 0. -1.
</event>
<event>
 4    1  0.5956049E+000  0.1000000E+03  0.7546771E-02  0.1280296E+00
         21   -1    0    0  503  502  0.00000000000E+00  0.00000000000E+00  0.39751281154E+03  0.39751281154E+03  0.00000000000E+00 0. -1.
         21   -1    0    0  501  503 -0.00000000000E+00 -0.00000000000E+00 -0.14627144817E+03  0.14627144817E+03  0.00000000000E+00 0. -1.
          6    1    1    2  501    0 -0.12262960711E+03  0.11476310122E+03  0.12259833201E+03  0.27049573186E+03  0.17300000000E+03 0. -1.
         -6    1    1    2    0  502  0.12262960711E+03 -0.11476310122E+03  0.12864303136E+03  0.27328852786E+03  0.17300000000E+03 0. -1.
</event>
<event>
 4    1  0.5956049E+000  0.1000000E+03  0.7546771E-02  0.1280296E+00
         21   -1    0    0  503  502  0.00000000000E+00  0.00000000000E+00  0.58859030390E+03  0.58859030390E+03  0.00000000000E+00 0. -1.
         21   -1    0    0  501  503 -0.00000000000E+00 -0.00000000000E+00 -0.53869624063E+02  0.53869624063E+02  0.00000000000E+00 0. -1.
          6    1    1    2  501    0  0.53330760455E+01  0.39541352735E+02  0.24274522613E+03  0.30074275566E+03  0.17300000000E+03 0. -1.
         -6    1    1    2    0  502 -0.53330760455E+01 -0.39541352735E+02  0.29197545371E+03  0.34171717230E+03  0.17300000000E+03 0. -1.
</event>
<event>
 4    1  0.5956049E+000  0.1000000E+03  0.7546771E-02  0.1280296E+00
         21   -1    0    0  503  502  0.00000000000E+00  0.00000000000E+00  0.56651047379E+03  0.56651047379E+03  0.00000000000E+00 0. -1.
         21   -1    0    0  501  503 -0.00000000000E+00 -0.00000000000E+00 -0.17538694447E+03  0.17538694447E+03  0.00000000000E+00 0. -1.
          6    1    1    2  501    0 -0.32331126413E+02  0.21855334639E+03  0.26579304747E+02  0.28186224720E+03  0.17300000000E+03 0. -1.
         -6    1    1    2    0  502  0.32331126413E+02 -0.21855334639E+03  0.36454422457E+03  0.46003517107E+03  0.17300000000E+03 0. -1.
</event>
<event>
 4    1  0.5956049E+000  0.1000000E+03  0.7546771E-02  0.1280296E+00
         21   -1    0    0  503  502  0.00000000000E+00  0.00000000000E+00  0.28136033450E+03  0.28136033450E+03  0.00000000000E+00 0. -1.
         21   -1    0    0  501  503 -0.00000000000E+00 -0.00000000000E+00 -0.31012764157E+03  0.31012764157E+03  0.00000000000E+00 0. -1.
          6    1    1    2  501    0 -0.45155900855E+00 -0.46247484414E+02 -0.24958662718E+03  0.30718319972E+03  0.17300000000E+03 0. -1.
         -6    1    1    2    0  502  0.45155900855E+00  0.46247484414E+02  0.22081932011E+03  0.28430477635E+03  0.17300000000E+03 0. -1.
</event>
<event>
 4    1  0.5956049E+000  0.1000000E+03  0.7546771E-02  0.1280296E+00
         21   -1    0    0  503  502  0.00000000000E+00  0.00000000000E+00  0.11346300493E+03  0.11346300493E+03  0.00000000000E+00 0. -1.
         21   -1    0    0  501  503 -0.00000000000E+00 -0.00000000000E+00 -0.65051503598E+03  0.65051503598E+03  0.00000000000E+00 0.  1.
          6    1    1    2  501    0 -0.19075864242E+03 -0.22367257955E+02 -0.15096263179E+03  0.29934573671E+03  0.17300000000E+03 0. -1.
         -6    1    1    2    0  502  0.19075864242E+03  0.22367257955E+02 -0.38608939926E+03  0.46463230421E+03  0.17300000000E+03 0. -1.
</event>
<event>
 4    1  0.5956049E+000  0.1000000E+03  0.7546771E-02  0.1280296E+00
         21   -1    0    0  503  502  0.00000000000E+00  0.00000000000E+00  0.20289543327E+03  0.20289543327E+03  0.00000000000E+00 0. -1.
         21   -1    0    0  501  503 -0.00000000000E+00 -0.00000000000E+00 -0.26017474575E+03  0.26017474575E+03  0.00000000000E+00 0.  1.
          6    1    1    2  501    0  0.14233328285E+03  0.49395725931E+02 -0.15870101874E+02  0.22995556371E+03  0.17300000000E+03 0. -1.
         -6    1    1    2    0  502 -0.14233328285E+03 -0.49395725931E+02 -0.41409210609E+02  0.23311461531E+03  0.17300000000E+03 0. -1.
</event>
<event>
 4    1  0.5956049E+000  0.1000000E+03  0.7546771E-02  0.1280296E+00
         21   -1    0    0  501  502  0.00000000000E+00  0.00000000000E+00  0.22911671465E+04  0.22911671465E+04  0.00000000000E+00 0.  1.
         21   -1    0    0  502  503 -0.00000000000E+00 -0.00000000000E+00 -0.46701453556E+02  0.46701453556E+02  0.00000000000E+00 0. -1.
          6    1    1    2  501    0 -0.15757934465E+03 -0.21547421962E+03  0.84981305652E+03  0.90739826989E+03  0.17300000000E+03 0.  1.
         -6    1    1    2    0  503  0.15757934465E+03  0.21547421962E+03  0.13946526364E+04  0.14304703301E+04  0.17300000000E+03 0. -1.
</event>
<event>
 4    1  0.5956049E+000  0.1000000E+03  0.7546771E-02  0.1280296E+00
         21   -1    0    0  503  502  0.00000000000E+00  0.00000000000E+00  0.23481370127E+03  0.23481370127E+03  0.00000000000E+00 0. -1.
         21   -1    0    0  501  503 -0.00000000000E+00 -0.00000000000E+00 -0.13768717497E+03  0.13768717497E+03  0.00000000000E+00 0.  1.
          6    1    1    2  501    0 -0.29258620323E+02  0.38716089067E+02  0.55651915807E+02  0.18809874574E+03  0.17300000000E+03 0.  1.
         -6    1    1    2    0  502  0.29258620323E+02 -0.38716089067E+02  0.41474610495E+02  0.18440213050E+03  0.17300000000E+03 0. -1.
</event>
<event>
 4    1  0.5956049E+000  0.1000000E+03  0.7546771E-02  0.1280296E+00
         21   -1    0    0  501  502  0.00000000000E+00  0.00000000000E+00  0.64443864050E+03  0.64443864050E+03  0.00000000000E+00 0.  1.
         21   -1    0    0  502  503 -0.00000000000E+00 -0.00000000000E+00 -0.74128444172E+02  0.74128444172E+02  0.00000000000E+00 0.  1.
          6    1    1    2  501    0  0.75852382801E+02  0.69548976010E+02  0.42513661914E+03  0.47038366147E+03  0.17300000000E+03 0.  1.
         -6    1    1    2    0  503 -0.75852382801E+02 -0.69548976010E+02  0.14517357719E+03  0.24818342321E+03  0.17300000000E+03 0.  1.
</event>
<event>
 4    1  0.5956049E+000  0.1000000E+03  0.7546771E-02  0.1280296E+00
         21   -1    0    0  503  502  0.00000000000E+00  0.00000000000E+00  0.52564252672E+03  0.52564252672E+03  0.00000000000E+00 0.  1.
         21   -1    0    0  501  503 -0.00000000000E+00 -0.00000000000E+00 -0.10340942863E+03  0.10340942863E+03  0.00000000000E+00 0.  1.
          6    1    1    2  501    0 -0.83991815591E+02  0.16736760435E+02  0.34742009380E+02  0.19613962234E+03  0.17300000000E+03 0.  1.
         -6    1    1    2    0  502  0.83991815591E+02 -0.16736760435E+02  0.38749108871E+03  0.43291233300E+03  0.17300000000E+03 0.  1.
</event>
<event>
 4    1  0.5956049E+000  0.1000000E+03  0.7546771E-02  0.1280296E+00
         21   -1    0    0  503  502  0.00000000000E+00  0.00000000000E+00  0.10616123656E+03  0.10616123656E+03  0.00000000000E+00 0. -1.
         21   -1    0    0  501  503 -0.00000000000E+00 -0.00000000000E+00 -0.72388412533E+03  0.72388412533E+03  0.00000000000E+00 0. -1.
          6    1    1    2  501    0  0.29088876960E+01  0.36487702988E+02 -0.62848565605E+03  0.65288822470E+03  0.17300000000E+03 0. -1.
         -6    1    1    2    0  502 -0.29088876960E+01 -0.36487702988E+02  0.10762767280E+02  0.17715713719E+03  0.17300000000E+03 0. -1.
</event>
<event>
 4    1  0.5956049E+000  0.1000000E+03  0.7546771E-02  0.1280296E+00
         21   -1    0    0  501  502  0.00000000000E+00  0.00000000000E+00  0.28176618722E+02  0.28176618722E+02  0.00000000000E+00 0.  1.
         21   -1    0    0  502  503 -0.00000000000E+00 -0.00000000000E+00 -0.20769959062E+04  0.20769959062E+04  0.00000000000E+00 0. -1.
          6    1    1    2  501    0 -0.65182778314E+02  0.47964839586E+02 -0.37839314600E+03  0.42386294172E+03  0.17300000000E+03 0.  1.
         -6    1    1    2    0  503  0.65182778314E+02 -0.47964839586E+02 -0.16704261415E+04  0.16813095832E+04  0.17300000000E+03 0. -1.
</event>
<event>
 4    1  0.5956049E+000  0.1000000E+03  0.7546771E-02  0.1280296E+00
         21   -1    0    0  501  502  0.00000000000E+00  0.00000000000E+00  0.64852197276E+03  0.64852197276E+03  0.00000000000E+00 0.  1.
         21   -1    0    0  502  503 -0.00000000000E+00 -0.00000000000E+00 -0.50877544042E+03  0.50877544042E+03  0.00000000000E+00 0. -1.
          6    1    1    2  501    0  0.15499928873E+03 -0.10767070040E+03  0.58786716229E+03  0.64119775400E+03  0.17300000000E+03 0.  1.
         -6    1    1    2    0  503 -0.15499928873E+03  0.10767070040E+03 -0.44812062995E+03  0.51609965919E+03  0.17300000000E+03 0. -1.
</event>
<event>
 4    1  0.5956049E+000  0.1000000E+03  0.7546771E-02  0.1280296E+00
         21   -1    0    0  501  502  0.00000000000E+00  0.00000000000E+00  0.11758640933E+03  0.11758640933E+03  0.00000000000E+00 0.  1.
         21   -1    0    0  502  503 -0.00000000000E+00 -0.00000000000E+00 -0.50466331525E+03  0.50466331525E+03  0.00000000000E+00 0. -1.
          6    1    1    2  501    0 -0.76128679567E+01  0.15750312544E+03 -0.10741234843E+03  0.25754922418E+03  0.17300000000E+03 0.  1.
         -6    1    1    2    0  503  0.76128679567E+01 -0.15750312544E+03 -0.27966455749E+03  0.36470050041E+03  0.17300000000E+03 0. -1.
</event>
<event>
 4    1  0.5956049E+000  0.1000000E+03  0.7546771E-02  0.1280296E+00
         21   -1    0    0  503  502  0.00000000000E+00  0.00000000000E+00  0.21117339448E+03  0.21117339448E+03  0.00000000000E+00 0. -1.
         21   -1    0    0  501  503 -0.00000000000E+00 -0.00000000000E+00 -0.19327049745E+03  0.19327049745E+03  0.00000000000E+00 0.  1.
          6    1    1    2  501    0 -0.40332209702E+02  0.32243914395E+00 -0.87360396665E+02  0.19795865733E+03  0.17300000000E+03 0.  1.
         -6    1    1    2    0  502  0.40332209702E+02 -0.32243914395E+00  0.10526329370E+03  0.20648523460E+03  0.17300000000E+03 0. -1.
</event>
<event>
 4    1  0.5956049E+000  0.1000000E+03  0.7546771E-02  0.1280296E+00
         21   -1    0    0  503  502  0.00000000000E+00  0.00000000000E+00  0.13493256713E+04  0.13493256713E+04  0.00000000000E+00 0. -1.
         21   -1    0    0  501  503 -0.00000000000E+00 -0.00000000000E+00 -0.36588299399E+02  0.36588299399E+02  0.00000000000E+00 0.  1.
          6    1    1    2  501    0  0.59730961467E+02 -0.71460907154E+01  0.26408248263E+03  0.32138359013E+03  0.17300000000E+03 0.  1.
         -6    1    1    2    0  502 -0.59730961467E+02  0.71460907154E+01  0.10486548892E+04  0.10645303805E+04  0.17300000000E+03 0. -1.
</event>
<event>
 4    1  0.5956049E+000  0.1000000E+03  0.7546771E-02  0.1280296E+00
         21   -1    0    0  501  502  0.00000000000E+00  0.00000000000E+00  0.21977852789E+03  0.21977852789E+03  0.00000000000E+00 0.  1.
         21   -1    0    0  502  503 -0.00000000000E+00 -0.00000000000E+00 -0.28608308101E+03  0.28608308101E+03  0.00000000000E+00 0. -1.
          6    1    1    2  501    0 -0.17059953298E+03  0.43398795453E+02  0.11485077123E+02  0.24708007426E+03  0.17300000000E+03 0.  1.
         -6    1    1    2    0  503  0.17059953298E+03 -0.43398795453E+02 -0.77789630243E+02  0.25878153464E+03  0.17300000000E+03 0. -1.
</event>
<event>
 4    1  0.5956049E+000  0.1000000E+03  0.7546771E-02  0.1280296E+00
         21   -1    0    0  501  502  0.00000000000E+00  0.00000000000E+00  0.29670445055E+03  0.29670445055E+03  0.00000000000E+00 0.  1.
         21   -1    0    0  502  503 -0.00000000000E+00 -0.00000000000E+00 -0.83193043943E+03  0.83193043943E+03  0.00000000000E+00 0. -1.
          6    1    1    2  501    0 -0.18951024511E+02  0.22232361578E+03  0.19672491616E+03  0.34411716624E+03  0.17300000000E+03 0.  1.
         -6    1    1    2    0  503  0.18951024511E+02 -0.22232361578E+03 -0.73195090505E+03  0.78451772374E+03  0.17300000000E+03 0. -1.
</event>
<event>
 4    1  0.5956049E+000  0.1000000E+03  0.7546771E-02  0.1280296E+00
         21   -1    0    0  503  502  0.00000000000E+00  0.00000000000E+00  0.73491129380E+03  0.73491129380E+03  0.00000000000E+00 0. -1.
         21   -1    0    0  501  503 -0.00000000000E+00 -0.00000000000E+00 -0.58990524836E+02  0.58990524836E+02  0.00000000000E+00 0. -1.
          6    1    1    2  501    0  0.77572052915E+02  0.96458279603E+01  0.17492344302E+03  0.25814274405E+03  0.17300000000E+03 0. -1.
         -6    1    1    2    0  502 -0.77572052915E+02 -0.96458279603E+01  0.50099732595E+03  0.53575907459E+03  0.17300000000E+03 0. -1.
</event>
<event>
 4    1  0.5956049E+000  0.1000000E+03  0.7546771E-02  0.1280296E+00
         21   -1    0    0  503  502  0.00000000000E+00  0.00000000000E+00  0.27249543531E+03  0.27249543531E+03  0.00000000000E+00 0. -1.
         21   -1    0    0  501  503 -0.00000000000E+00 -0.00000000000E+00 -0.70729475992E+03  0.70729475992E+03  0.00000000000E+00 0. -1.
          6    1    1    2  501    0 -0.55455098191E+02  0.20737573911E+03 -0.59864660332E+03  0.65908020813E+03  0.17300000000E+03 0. -1.
         -6    1    1    2    0  502  0.55455098191E+02 -0.20737573911E+03  0.16384727871E+03  0.32070998710E+03  0.17300000000E+03 0. -1.
</event>
<event>
 4    1  0.5956049E+000  0.1000000E+03  0.7546771E-02  0.1280296E+00
         21   -1    0    0  501  502  0.00000000000E+00  0.00000000000E+00  0.10090914378E+04  0.10090914378E+04  0.00000000000E+00 0.  1.
         21   -1    0    0  502  503 -0.00000000000E+00 -0.00000000000E+00 -0.60560008033E+02  0.60560008033E+02  0.00000000000E+00 0.  1.
          6    1    1    2  501    0 -0.17015333787E+02 -0.96847035344E+02  0.79158881142E+03  0.81621732167E+03  0.17300000000E+03 0.  1.
         -6    1    1    2    0  503  0.17015333787E+02  0.96847035344E+02  0.15694261837E+03  0.25343412418E+03  0.17300000000E+03 0.  1.
</event>
<event>
 4    1  0.5956049E+000  0.1000000E+03  0.7546771E-02  0.1280296E+00
         21   -1    0    0  501  502  0.00000000000E+00  0.00000000000E+00  0.25490509317E+04  0.25490509317E+04  0.00000000000E+00 0.  1.
         21   -1    0    0  502  503 -0.00000000000E+00 -0.00000000000E+00 -0.42217600302E+02  0.42217600302E+02  0.00000000000E+00 0.  1.
          6    1    1    2  501    0 -0.49021862621E+02 -0.13262101717E+03  0.22020819045E+04  0.22133877182E+04  0.17300000000E+03 0.  1.
         -6    1    1    2    0  503  0.49021862621E+02  0.13262101717E+03  0.30475142696E+03  0.37788081381E+03  0.17300000000E+03 0.  1.
</event>
<event>
 4    1  0.5956049E+000  0.1000000E+03  0.7546771E-02  0.1280296E+00
         21   -1    0    0  501  502  0.00000000000E+00  0.00000000000E+00  0.15911684588E+04  0.15911684588E+04  0.00000000000E+00 0.  1.
         21   -1    0    0  502  503 -0.00000000000E+00 -0.00000000000E+00 -0.54686210854E+02  0.54686210854E+02  0.00000000000E+00 0. -1.
          6    1    1    2  501    0  0.12335640525E+03  0.17833007559E+03  0.10481563371E+04  0.10842412672E+04  0.17300000000E+03 0.  1.
         -6    1    1    2    0  503 -0.12335640525E+03 -0.17833007559E+03  0.48832591085E+03  0.56161340243E+03  0.17300000000E+03 0. -1.
</event>
<event>
 4    1  0.5956049E+000  0.1000000E+03  0.7546771E-02  0.1280296E+00
         21   -1    0    0  501  502  0.00000000000E+00  0.00000000000E+00  0.47982716076E+02  0.47982716076E+02  0.00000000000E+00 0.  1.
         21   -1    0    0  502  503 -0.00000000000E+00 -0.00000000000E+00 -0.97118829817E+03  0.97118829817E+03  0.00000000000E+00 0. -1.
          6    1    1    2  501    0  0.65731663445E+02  0.10846375329E+03 -0.51875741882E+03  0.56135843891E+03  0.17300000000E+03 0.  1.
         -6    1    1    2    0  503 -0.65731663445E+02 -0.10846375329E+03 -0.40444816327E+03  0.45781257533E+03  0.17300000000E+03 0. -1.
</event>
<event>
 4    1  0.5956049E+000  0.1000000E+03  0.7546771E-02  0.1280296E+00
         21   -1    0    0  501  502  0.00000000000E+00  0.00000000000E+00  0.40834330785E+02  0.40834330785E+02  0.00000000000E+00 0. -1.
         21   -1    0    0  502  503 -0.00000000000E+00 -0.00000000000E+00 -0.11994306219E+04  0.11994306219E+04  0.00000000000E+00 0.  1.
          6    1    1    2  501    0 -0.17613973524E+02  0.15894769832E+02 -0.19831456251E+03  0.26423580658E+03  0.17300000000E+03 0.  1.
         -6    1    1    2    0  503  0.17613973524E+02 -0.15894769832E+02 -0.96028172858E+03  0.97602914609E+03  0.17300000000E+03 0. -1.
</event>
<event>
 4    1  0.5956049E+000  0.1000000E+03  0.7546771E-02  0.1280296E+00
         21   -1    0    0  501  502  0.00000000000E+00  0.00000000000E+00  0.76365989457E+03  0.76365989457E+03  0.00000000000E+00 0. -1.
         21   -1    0    0  502  503 -0.00000000000E+00 -0.00000000000E+00 -0.12289801181E+03  0.12289801181E+03  0.00000000000E+00 0.  1.
          6    1    1    2  501    0 -0.67655929043E+02  0.70013464355E+02  0.65800236320E+03  0.68729565684E+03  0.17300000000E+03 0.  1.
         -6    1    1    2    0  503  0.67655929043E+02 -0.70013464355E+02 -0.17240480448E+02  0.19926224954E+03  0.17300000000E+03 0. -1.
</event>
<event>
 4    1  0.5956049E+000  0.1000000E+03  0.7546771E-02  0.1280296E+00
         21   -1    0    0  501  502  0.00000000000E+00  0.00000000000E+00  0.65827558904E+02  0.65827558904E+02  0.00000000000E+00 0.  1.
         21   -1    0    0  502  503 -0.00000000000E+00 -0.00000000000E+00 -0.75739885830E+03  0.75739885830E+03  0.00000000000E+00 0.  1.
          6    1    1    2  501    0  0.67089857026E+02 -0.42255866687E+02 -0.13047580369E+03  0.23073695529E+03  0.17300000000E+03 0.  1.
         -6    1    1    2    0  503 -0.67089857026E+02  0.42255866687E+02 -0.56109549570E+03  0.59248946192E+03  0.17300000000E+03 0.  1.
</event>
<event>
 4    1  0.5956049E+000  0.1000000E+03  0.7546771E-02  0.1280296E+00
         21   -1    0    0  501  502  0.00000000000E+00  0.00000000000E+00  0.72870474344E+03  0.72870474344E+03  0.00000000000E+00 0.  1.
         21   -1    0    0  502  503 -0.00000000000E+00 -0.00000000000E+00 -0.12593974651E+03  0.12593974651E+03  0.00000000000E+00 0.  1.
          6    1    1    2  501    0  0.91907313345E+02  0.13924290709E+02  0.62674429912E+03  0.65679392248E+03  0.17300000000E+03 0.  1.
         -6    1    1    2    0  503 -0.91907313345E+02 -0.13924290709E+02 -0.23979302196E+02  0.19785056748E+03  0.17300000000E+03 0.  1.
</event>
<event>
 4    1  0.5956049E+000  0.1000000E+03  0.7546771E-02  0.1280296E+00
         21   -1    0    0  501  502  0.00000000000E+00  0.00000000000E+00  0.73729631792E+03  0.73729631792E+03  0.00000000000E+00 0.  1.
         21   -1    0    0  502  503 -0.00000000000E+00 -0.00000000000E+00 -0.37725246580E+03  0.37725246580E+03  0.00000000000E+00 0.  1.
          6    1    1    2  501    0 -0.38588392010E+02 -0.22010278122E+03  0.65053896974E+03  0.70927022315E+03  0.17300000000E+03 0.  1.
         -6    1    1    2    0  503  0.38588392010E+02  0.22010278122E+03 -0.29049511762E+03  0.40527856057E+03  0.17300000000E+03 0.  1.
</event>
<event>
 4    1  0.5956049E+000  0.1000000E+03  0.7546771E-02  0.1280296E+00
         21   -1    0    0  503  502  0.00000000000E+00  0.00000000000E+00  0.11526917342E+04  0.11526917342E+04  0.00000000000E+00 0.  1.
         21   -1    0    0  501  503 -0.00000000000E+00 -0.00000000000E+00 -0.68218346596E+02  0.68218346596E+02  0.00000000000E+00 0. -1.
          6    1    1    2  501    0  0.61112341526E+02  0.14320923203E+03  0.20175516041E+03  0.30802231604E+03  0.17300000000E+03 0.  1.
         -6    1    1    2    0  502 -0.61112341526E+02 -0.14320923203E+03  0.88271822714E+03  0.91288776471E+03  0.17300000000E+03 0. -1.
</event>
<event>
 4    1  0.5956049E+000  0.1000000E+03  0.7546771E-02  0.1280296E+00
         21   -1    0    0  503  502  0.00000000000E+00  0.00000000000E+00  0.17266022135E+03  0.17266022135E+03  0.00000000000E+00 0. -1.
         21   -1    0    0  501  503 -0.00000000000E+00 -0.00000000000E+00 -0.65075638642E+03  0.65075638642E+03  0.00000000000E+00 0.  1.
          6    1    1    2  501    0  0.24786703008E+03 -0.42250118778E+02 -0.40927211084E+03  0.51054460907E+03  0.17300000000E+03 0.  1.
         -6    1    1    2    0  502 -0.24786703008E+03  0.42250118778E+02 -0.68824054225E+02  0.31287199871E+03  0.17300000000E+03 0. -1.
</event>
<event>
 4    1  0.5956049E+000  0.1000000E+03  0.7546771E-02  0.1280296E+00
         21   -1    0    0  503  502  0.00000000000E+00  0.00000000000E+00  0.79649924159E+02  0.79649924159E+02  0.00000000000E+00 0.  1.
         21   -1    0    0  501  503 -0.00000000000E+00 -0.00000000000E+00 -0.58194879265E+03  0.58194879265E+03  0.00000000000E+00 0.  1.
          6    1    1    2  501    0 -0.61747858012E+02 -0.10748714481E+03 -0.20119833085E+03  0.29287548993E+03  0.17300000000E+03 0.  1.
         -6    1    1    2    0  502  0.61747858012E+02  0.10748714481E+03 -0.30110053765E+03  0.36872322688E+03  0.17300000000E+03 0.  1.
</event>
<event>
 4    1  0.5956049E+000  0.1000000E+03  0.7546771E-02  0.1280296E+00
         21   -1    0    0  503  502  0.00000000000E+00  0.00000000000E+00  0.23188076735E+03  0.23188076735E+03  0.00000000000E+00 0.  1.
         21   -1    0    0  501  503 -0.00000000000E+00 -0.00000000000E+00 -0.22751159206E+03  0.22751159206E+03  0.00000000000E+00 0.  1.
          6    1    1    2  501    0  0.71988640271E+01  0.10715098988E+03 -0.10409064892E+03  0.22868542032E+03  0.17300000000E+03 0.  1.
         -6    1    1    2    0  502 -0.71988640271E+01 -0.10715098988E+03  0.10845982422E+03  0.23070693909E+03  0.17300000000E+03 0.  1.
</event>
<event>
 4    1  0.5956049E+000  0.1000000E+03  0.7546771E-02  0.1280296E+00
         21   -1    0    0  503  502  0.00000000000E+00  0.00000000000E+00  0.65004437615E+03  0.65004437615E+03  0.00000000000E+00 0.  1.
         21   -1    0    0  501  503 -0.00000000000E+00 -0.00000000000E+00 -0.24498559849E+03  0.24498559849E+03  0.00000000000E+00 0.  1.
          6    1    1    2  501    0 -0.16171662890E+03  0.14892427216E+03 -0.11661435805E+03  0.30308186254E+03  0.17300000000E+03 0.  1.
         -6    1    1    2    0  502  0.16171662890E+03 -0.14892427216E+03  0.52167313570E+03  0.59194811210E+03  0.17300000000E+03 0.  1.
</event>
<event>
 4    1  0.5956049E+000  0.1000000E+03  0.7546771E-02  0.1280296E+00
         21   -1    0    0  501  502  0.00000000000E+00  0.00000000000E+00  0.30882763686E+03  0.30882763686E+03  0.00000000000E+00 0. -1.
         21   -1    0    0  502  503 -0.00000000000E+00 -0.00000000000E+00 -0.25591346920E+03  0.25591346920E+03  0.00000000000E+00 0. -1.
          6    1    1    2  501    0 -0.13311729541E+03 -0.17043422074E+03  0.75004013568E+02  0.28691922206E+03  0.17300000000E+03 0. -1.
         -6    1    1    2    0  503  0.13311729541E+03  0.17043422074E+03 -0.22089845901E+02  0.27782188400E+03  0.17300000000E+03 0. -1.
</event>
<event>
 4    1  0.5956049E+000  0.1000000E+03  0.7546771E-02  0.1280296E+00
         21   -1    0    0  501  502  0.00000000000E+00  0.00000000000E+00  0.28292652054E+03  0.28292652054E+03  0.00000000000E+00 0. -1.
         21   -1    0    0  502  503 -0.00000000000E+00 -0.00000000000E+00 -0.26668358352E+03  0.26668358352E+03  0.00000000000E+00 0. -1.
          6    1    1    2  501    0 -0.13930338082E+03  0.11201782499E+03  0.12466028363E+03  0.27824918928E+03  0.17300000000E+03 0. -1.
         -6    1    1    2    0  503  0.13930338082E+03 -0.11201782499E+03 -0.10841734661E+03  0.27136091478E+03  0.17300000000E+03 0. -1.
</event>
<event>
 4    1  0.5956049E+000  0.1000000E+03  0.7546771E-02  0.1280296E+00
         21   -1    0    0  501  502  0.00000000000E+00  0.00000000000E+00  0.64058229384E+02  0.64058229384E+02  0.00000000000E+00 0.  1.
         21   -1    0    0  502  503 -0.00000000000E+00 -0.00000000000E+00 -0.73438779224E+03  0.73438779224E+03  0.00000000000E+00 0. -1.
          6    1    1    2  501    0  0.72837895405E+02 -0.91848897481E+02 -0.44206380022E+03  0.48896930623E+03  0.17300000000E+03 0.  1.
         -6    1    1    2    0  503 -0.72837895405E+02  0.91848897481E+02 -0.22826576264E+03  0.30947671539E+03  0.17300000000E+03 0. -1.
</event>
<event>
 4    1  0.5956049E+000  0.1000000E+03  0.7546771E-02  0.1280296E+00
         21   -1    0    0  501  502  0.00000000000E+00  0.00000000000E+00  0.52636069948E+03  0.52636069948E+03  0.00000000000E+00 0. -1.
         21   -1    0    0  502  503 -0.00000000000E+00 -0.00000000000E+00 -0.37404573093E+03  0.37404573093E+03  0.00000000000E+00 0.  1.
          6    1    1    2  501    0  0.25059590937E+02  0.90546719189E+02  0.47962438773E+03  0.51845466992E+03  0.17300000000E+03 0. -1.
         -6    1    1    2    0  503 -0.25059590937E+02 -0.90546719189E+02 -0.32730941918E+03  0.38195176048E+03  0.17300000000E+03 0.  1.
</event>
<event>
 4    1  0.5956049E+000  0.1000000E+03  0.7546771E-02  0.1280296E+00
         21   -1    0    0  501  502  0.00000000000E+00  0.00000000000E+00  0.83677201792E+03  0.83677201792E+03  0.00000000000E+00 0. -1.
         21   -1    0    0  502  503 -0.00000000000E+00 -0.00000000000E+00 -0.64230764471E+02  0.64230764471E+02  0.00000000000E+00 0.  1.
          6    1    1    2  501    0 -0.82431573146E+02 -0.33657780147E+02  0.63122139761E+03  0.66052801849E+03  0.17300000000E+03 0. -1.
         -6    1    1    2    0  503  0.82431573146E+02  0.33657780147E+02  0.14131985584E+03  0.24047476389E+03  0.17300000000E+03 0.  1.
</event>
<event>
 4    1  0.5956049E+000  0.1000000E+03  0.7546771E-02  0.1280296E+00
         21   -1    0    0  503  502  0.00000000000E+00  0.00000000000E+00  0.23435532197E+03  0.23435532197E+03  0.00000000000E+00 0.  1.
         21   -1    0    0  501  503 -0.00000000000E+00 -0.00000000000E+00 -0.17101839488E+03  0.17101839488E+03  0.00000000000E+00 0.  1.
          6    1    1    2  501    0 -0.23948171425E+02 -0.74315725160E+02 -0.32792104470E+02  0.19261532659E+03  0.17300000000E+03 0.  1.
         -6    1    1    2    0  502  0.23948171425E+02  0.74315725160E+02  0.96129031561E+02  0.21275839027E+03  0.17300000000E+03 0.  1.
</event>
<event>
 4    1  0.5956049E+000  0.1000000E+03  0.7546771E-02  0.1280296E+00
         21   -1    0    0  503  502  0.00000000000E+00  0.00000000000E+00  0.23408880405E+04  0.23408880405E+04  0.00000000000E+00 0.  1.
         21   -1    0    0  501  503 -0.00000000000E+00 -0.00000000000E+00 -0.22657134318E+02  0.22657134318E+02  0.00000000000E+00 0.  1.
          6    1    1    2  501    0 -0.64603521850E+02  0.15605285111E+02  0.45755482382E+03  0.49366239148E+03  0.17300000000E+03 0.  1.
         -6    1    1    2    0  502  0.64603521850E+02 -0.15605285111E+02  0.18606760823E+04  0.18698827833E+04  0.17300000000E+03 0.  1.
</event>
<event>
 4    1  0.5956049E+000  0.1000000E+03  0.7546771E-02  0.1280296E+00
         21   -1    0    0  503  502  0.00000000000E+00  0.00000000000E+00  0.35856098084E+03  0.35856098084E+03  0.00000000000E+00 0.  1.
         21   -1    0    0  501  503 -0.00000000000E+00 -0.00000000000E+00 -0.16468495946E+03  0.16468495946E+03  0.00000000000E+00 0.  1.
          6    1    1    2  501    0 -0.47492797782E+01  0.70633603498E+02 -0.70231256469E+02  0.19968247541E+03  0.17300000000E+03 0.  1.
         -6    1    1    2    0  502  0.47492797782E+01 -0.70633603498E+02  0.26410727785E+03  0.32356346489E+03  0.17300000000E+03 0.  1.
</event>
<event>
 4    1  0.5956049E+000  0.1000000E+03  0.7546771E-02  0.1280296E+00
         21   -1    0    0  503  502  0.00000000000E+00  0.00000000000E+00  0.14361443362E+04  0.14361443362E+04  0.00000000000E+00 0.  1.
         21   -1    0    0  501  503 -0.00000000000E+00 -0.00000000000E+00 -0.39493674474E+02  0.39493674474E+02  0.00000000000E+00 0.  1.
          6    1    1    2  501    0  0.12916600231E+03 -0.11408272755E+02  0.38889933454E+03  0.44495583741E+03  0.17300000000E+03 0.  1.
         -6    1    1    2    0  502 -0.12916600231E+03  0.11408272755E+02  0.10077513272E+04  0.10306821733E+04  0.17300000000E+03 0.  1.
</event>
<event>
 4    1  0.5956049E+000  0.1000000E+03  0.7546771E-02  0.1280296E+00
         21   -1    0    0  503  502  0.00000000000E+00  0.00000000000E+00  0.32437074029E+04  0.32437074029E+04  0.00000000000E+00 0.  1.
         21   -1    0    0  501  503 -0.00000000000E+00 -0.00000000000E+00 -0.10839676035E+02  0.10839676035E+02  0.00000000000E+00 0.  1.
          6    1    1    2  501    0  0.61965326895E+02 -0.14795340325E+02  0.19136725309E+04  0.19225322259E+04  0.17300000000E+03 0.  1.
         -6    1    1    2    0  502 -0.61965326895E+02  0.14795340325E+02  0.13191951959E+04  0.13320148530E+04  0.17300000000E+03 0.  1.
</event>
<event>
 4    1  0.5956049E+000  0.1000000E+03  0.7546771E-02  0.1280296E+00
         21   -1    0    0  503  502  0.00000000000E+00  0.00000000000E+00  0.71996159456E+03  0.71996159456E+03  0.00000000000E+00 0. -1.
         21   -1    0    0  501  503 -0.00000000000E+00 -0.00000000000E+00 -0.62496013500E+02  0.62496013500E+02  0.00000000000E+00 0.  1.
          6    1    1    2  501    0  0.11691808285E+03  0.31103400968E+02  0.36691052478E+03  0.42330791729E+03  0.17300000000E+03 0.  1.
         -6    1    1    2    0  502 -0.11691808285E+03 -0.31103400968E+02  0.29055505628E+03  0.35914969077E+03  0.17300000000E+03 0.  1.
</event>
<event>
 4    1  0.5956049E+000  0.1000000E+03  0.7546771E-02  0.1280296E+00
         21   -1    0    0  503  502  0.00000000000E+00  0.00000000000E+00  0.16176603263E+04  0.16176603263E+04  0.00000000000E+00 0. -1.
         21   -1    0    0  501  503 -0.00000000000E+00 -0.00000000000E+00 -0.20458719094E+03  0.20458719094E+03  0.00000000000E+00 0.  1.
          6    1    1    2  501    0  0.15160123889E+03 -0.60531464800E+02 -0.12306203210E+03  0.26780638082E+03  0.17300000000E+03 0.  1.
         -6    1    1    2    0  502 -0.15160123889E+03  0.60531464800E+02  0.15361351674E+04  0.15544411364E+04  0.17300000000E+03 0.  1.
</event>
<event>
 4    1  0.5956049E+000  0.1000000E+03  0.7546771E-02  0.1280296E+00
         21   -1    0    0  503  502  0.00000000000E+00  0.00000000000E+00  0.49361106833E+03  0.49361106833E+03  0.00000000000E+00 0. -1.
         21   -1    0    0  501  503 -0.00000000000E+00 -0.00000000000E+00 -0.95029950278E+02  0.95029950278E+02  0.00000000000E+00 0.  1.
          6    1    1    2  501    0  0.40409300428E+02  0.36803310626E+02  0.38548680832E+02  0.18547882906E+03  0.17300000000E+03 0.  1.
         -6    1    1    2    0  502 -0.40409300428E+02 -0.36803310626E+02  0.36003243722E+03  0.40316218955E+03  0.17300000000E+03 0.  1.
</event>
<event>
 4    1  0.5956049E+000  0.1000000E+03  0.7546771E-02  0.1280296E+00
         21   -1    0    0  501  502  0.00000000000E+00  0.00000000000E+00  0.75865344243E+03  0.75865344243E+03  0.00000000000E+00 0.  1.
         21   -1    0    0  502  503 -0.00000000000E+00 -0.00000000000E+00 -0.10154219142E+03  0.10154219142E+03  0.00000000000E+00 0. -1.
          6    1    1    2  501    0  0.68791943835E+02  0.66118842606E+02  0.63063926009E+03  0.66086224681E+03  0.17300000000E+03 0.  1.
         -6    1    1    2    0  503 -0.68791943835E+02 -0.66118842606E+02  0.26471990919E+02  0.19933338704E+03  0.17300000000E+03 0. -1.
</event>
<event>
 4    1  0.5956049E+000  0.1000000E+03  0.7546771E-02  0.1280296E+00
         21   -1    0    0  503  502  0.00000000000E+00  0.00000000000E+00  0.49058783046E+02  0.49058783046E+02  0.00000000000E+00 0. -1.
         21   -1    0    0  501  503 -0.00000000000E+00 -0.00000000000E+00 -0.85032195840E+03  0.85032195840E+03  0.00000000000E+00 0. -1.
          6    1    1    2  501    0  0.20065549925E+02 -0.14428105991E+02 -0.63339032974E+03  0.65705639510E+03  0.17300000000E+03 0. -1.
         -6    1    1    2    0  502 -0.20065549925E+02  0.14428105991E+02 -0.16787284562E+03  0.24232434634E+03  0.17300000000E+03 0. -1.
</event>
<event>
 4    1  0.5956049E+000  0.1000000E+03  0.7546771E-02  0.1280296E+00
         21   -1    0    0  501  502  0.00000000000E+00  0.00000000000E+00  0.30411809832E+02  0.30411809832E+02  0.00000000000E+00 0. -1.
         21   -1    0    0  502  503 -0.00000000000E+00 -0.00000000000E+00 -0.11421775127E+04  0.11421775127E+04  0.00000000000E+00 0. -1.
          6    1    1    2  501    0 -0.38875988549E+02 -0.15631902208E+02 -0.72964218560E+03  0.75104088961E+03  0.17300000000E+03 0. -1.
         -6    1    1    2    0  503  0.38875988549E+02  0.15631902208E+02 -0.38212351726E+03  0.42154843292E+03  0.17300000000E+03 0. -1.
</event>
<event>
 4    1  0.5956049E+000  0.1000000E+03  0.7546771E-02  0.1280296E+00
         21   -1    0    0  501  502  0.00000000000E+00  0.00000000000E+00  0.15553604309E+03  0.15553604309E+03  0.00000000000E+00 0. -1.
         21   -1    0    0  502  503 -0.00000000000E+00 -0.00000000000E+00 -0.28327355514E+03  0.28327355514E+03  0.00000000000E+00 0. -1.
          6    1    1    2  501    0  0.43981914249E+02 -0.10769924185E+03 -0.89402242245E+02  0.22683759917E+03  0.17300000000E+03 0. -1.
         -6    1    1    2    0  503 -0.43981914249E+02  0.10769924185E+03 -0.38335269813E+02  0.21197199907E+03  0.17300000000E+03 0. -1.
</event>
<event>
 4    1  0.5956049E+000  0.1000000E+03  0.7546771E-02  0.1280296E+00
         21   -1    0    0  501  502  0.00000000000E+00  0.00000000000E+00  0.93051025638E+02  0.93051025638E+02  0.00000000000E+00 0.  1.
         21   -1    0    0  502  503 -0.00000000000E+00 -0.00000000000E+00 -0.84656901812E+03  0.84656901812E+03  0.00000000000E+00 0.  1.
          6    1    1    2  501    0  0.13749151415E+03  0.54885156577E+02 -0.10207133025E+03  0.24952725970E+03  0.17300000000E+03 0.  1.
         -6    1    1    2    0  503 -0.13749151415E+03 -0.54885156577E+02 -0.65144666223E+03  0.69009278406E+03  0.17300000000E+03 0.  1.
</event>
<event>
 4    1  0.5956049E+000  0.1000000E+03  0.7546771E-02  0.1280296E+00
         21   -1    0    0  501  502  0.00000000000E+00  0.00000000000E+00  0.31048904861E+03  0.31048904861E+03  0.00000000000E+00 0.  1.
         21   -1    0    0  502  503 -0.00000000000E+00 -0.00000000000E+00 -0.21752951048E+03  0.21752951048E+03  0.00000000000E+00 0.  1.
          6    1    1    2  501    0  0.92669489358E+02  0.16095635124E+03  0.10319527880E+03  0.27399424598E+03  0.17300000000E+03 0.  1.
         -6    1    1    2    0  503 -0.92669489358E+02 -0.16095635124E+03 -0.10235740663E+02  0.25402431311E+03  0.17300000000E+03 0.  1.
</event>
<event>
 4    1  0.5956049E+000  0.1000000E+03  0.7546771E-02  0.1280296E+00
         21   -1    0    0  501  502  0.00000000000E+00  0.00000000000E+00  0.21220762230E+03  0.21220762230E+03  0.00000000000E+00 0.  1.
         21   -1    0    0  502  503 -0.00000000000E+00 -0.00000000000E+00 -0.22393185422E+03  0.22393185422E+03  0.00000000000E+00 0.  1.
          6    1    1    2  501    0 -0.10647489024E+03 -0.24465512969E+02  0.69368679812E+02  0.21604739599E+03  0.17300000000E+03 0.  1.
         -6    1    1    2    0  503  0.10647489024E+03  0.24465512969E+02 -0.81092911729E+02  0.22009208052E+03  0.17300000000E+03 0.  1.
</event>
<event>
 4    1  0.5956049E+000  0.1000000E+03  0.7546771E-02  0.1280296E+00
         21   -1    0    0  501  502  0.00000000000E+00  0.00000000000E+00  0.31864945736E+03  0.31864945736E+03  0.00000000000E+00 0.  1.
         21   -1    0    0  502  503 -0.00000000000E+00 -0.00000000000E+00 -0.33225600875E+03  0.33225600875E+03  0.00000000000E+00 0.  1.
          6    1    1    2  501    0 -0.51594890802E+02  0.90933142877E+00  0.26396114892E+03  0.31979266374E+03  0.17300000000E+03 0.  1.
         -6    1    1    2    0  503  0.51594890802E+02 -0.90933142877E+00 -0.27756770031E+03  0.33111280238E+03  0.17300000000E+03 0.  1.
</event>
<event>
 4    1  0.5956049E+000  0.1000000E+03  0.7546771E-02  0.1280296E+00
         21   -1    0    0  501  502  0.00000000000E+00  0.00000000000E+00  0.16708278507E+03  0.16708278507E+03  0.00000000000E+00 0. -1.
         21   -1    0    0  502  503 -0.00000000000E+00 -0.00000000000E+00 -0.20519744016E+03  0.20519744016E+03  0.00000000000E+00 0.  1.
          6    1    1    2  501    0 -0.55454120642E+02  0.25975305499E+02 -0.43806147022E+02  0.18867393702E+03  0.17300000000E+03 0. -1.
         -6    1    1    2    0  503  0.55454120642E+02 -0.25975305499E+02  0.56914919264E+01  0.18360628822E+03  0.17300000000E+03 0.  1.
</event>
<event>
 4    1  0.5956049E+000  0.1000000E+03  0.7546771E-02  0.1280296E+00
         21   -1    0    0  501  502  0.00000000000E+00  0.00000000000E+00  0.80854775884E+03  0.80854775884E+03  0.00000000000E+00 0.  1.
         21   -1    0    0  502  503 -0.00000000000E+00 -0.00000000000E+00 -0.16663822669E+03  0.16663822669E+03  0.00000000000E+00 0. -1.
          6    1    1    2  501    0  0.21042443298E+03  0.47001423852E+02  0.64174420209E+03  0.69875045385E+03  0.17300000000E+03 0.  1.
         -6    1    1    2    0  503 -0.21042443298E+03 -0.47001423852E+02  0.16533006389E+00  0.27643553168E+03  0.17300000000E+03 0. -1.
</event>
<event>
 4    1  0.5956049E+000  0.1000000E+03  0.7546771E-02  0.1280296E+00
         21   -1    0    0  501  502  0.00000000000E+00  0.00000000000E+00  0.13328147817E+04  0.13328147817E+04  0.00000000000E+00 0.  1.
         21   -1    0    0  502  503 -0.00000000000E+00 -0.00000000000E+00 -0.26425431978E+02  0.26425431978E+02  0.00000000000E+00 0. -1.
          6    1    1    2  501    0 -0.63509926030E+01  0.27536528845E+02  0.89592255925E+03  0.91291008742E+03  0.17300000000E+03 0.  1.
         -6    1    1    2    0  503  0.63509926030E+01 -0.27536528845E+02  0.41046679042E+03  0.44633012622E+03  0.17300000000E+03 0. -1.
</event>
<event>
 4    1  0.5956049E+000  0.1000000E+03  0.7546771E-02  0.1280296E+00
         21   -1    0    0  501  502  0.00000000000E+00  0.00000000000E+00  0.28282801486E+04  0.28282801486E+04  0.00000000000E+00 0. -1.
         21   -1    0    0  502  503 -0.00000000000E+00 -0.00000000000E+00 -0.11705637624E+02  0.11705637624E+02  0.00000000000E+00 0. -1.
          6    1    1    2  501    0  0.22141838336E+02  0.42032687960E+02  0.16451046137E+04  0.16548580597E+04  0.17300000000E+03 0. -1.
         -6    1    1    2    0  503 -0.22141838336E+02 -0.42032687960E+02  0.11714698973E+04  0.11851277265E+04  0.17300000000E+03 0. -1.
</event>
<event>
 4    1  0.5956049E+000  0.1000000E+03  0.7546771E-02  0.1280296E+00
         21   -1    0    0  501  502  0.00000000000E+00  0.00000000000E+00  0.39168565423E+03  0.39168565423E+03  0.00000000000E+00 0. -1.
         21   -1    0    0  502  503 -0.00000000000E+00 -0.00000000000E+00 -0.16529240161E+03  0.16529240161E+03  0.00000000000E+00 0.  1.
          6    1    1    2  501    0 -0.43038216332E+02  0.16947128101E+03  0.18447203961E+03  0.30746013815E+03  0.17300000000E+03 0. -1.
         -6    1    1    2    0  503  0.43038216332E+02 -0.16947128101E+03  0.41921213013E+02  0.24951791770E+03  0.17300000000E+03 0.  1.
</event>
<event>
 4    1  0.5956049E+000  0.1000000E+03  0.7546771E-02  0.1280296E+00
         21   -1    0    0  501  502  0.00000000000E+00  0.00000000000E+00  0.68177791251E+02  0.68177791251E+02  0.00000000000E+00 0. -1.
         21   -1    0    0  502  503 -0.00000000000E+00 -0.00000000000E+00 -0.80131663311E+03  0.80131663311E+03  0.00000000000E+00 0.  1.
          6    1    1    2  501    0 -0.26666938057E+02 -0.12335971955E+03 -0.19234127358E+03  0.28784181682E+03  0.17300000000E+03 0. -1.
         -6    1    1    2    0  503  0.26666938057E+02  0.12335971955E+03 -0.54079756828E+03  0.58165260753E+03  0.17300000000E+03 0.  1.
</event>
<event>
 4    1  0.5956049E+000  0.1000000E+03  0.7546771E-02  0.1280296E+00
         21   -1    0    0  501  502  0.00000000000E+00  0.00000000000E+00  0.78040728505E+03  0.78040728505E+03  0.00000000000E+00 0. -1.
         21   -1    0    0  502  503 -0.00000000000E+00 -0.00000000000E+00 -0.66310516510E+02  0.66310516510E+02  0.00000000000E+00 0.  1.
          6    1    1    2  501    0 -0.74172723306E+01  0.28224433775E+02  0.62653754175E+03  0.65063809127E+03  0.17300000000E+03 0. -1.
         -6    1    1    2    0  503  0.74172723306E+01 -0.28224433775E+02  0.87559226789E+02  0.19607971029E+03  0.17300000000E+03 0.  1.
</event>
<event>
 4    1  0.5956049E+000  0.1000000E+03  0.7546771E-02  0.1280296E+00
         21   -1    0    0  501  502  0.00000000000E+00  0.00000000000E+00  0.13601584588E+03  0.13601584588E+03  0.00000000000E+00 0.  1.
         21   -1    0    0  502  503 -0.00000000000E+00 -0.00000000000E+00 -0.60222292839E+03  0.60222292839E+03  0.00000000000E+00 0. -1.
          6    1    1    2  501    0 -0.11035709729E+03 -0.14501025451E+03 -0.56378826328E+02  0.25751550418E+03  0.17300000000E+03 0.  1.
         -6    1    1    2    0  503  0.11035709729E+03  0.14501025451E+03 -0.40982825618E+03  0.48072327008E+03  0.17300000000E+03 0.  1.
</event>
<event>
 4    1  0.5956049E+000  0.1000000E+03  0.7546771E-02  0.1280296E+00
         21   -1    0    0  501  502  0.00000000000E+00  0.00000000000E+00  0.11529126816E+03  0.11529126816E+03  0.00000000000E+00 0. -1.
         21   -1    0    0  502  503 -0.00000000000E+00 -0.00000000000E+00 -0.11674995519E+04  0.11674995519E+04  0.00000000000E+00 0. -1.
          6    1    1    2  501    0  0.25315670743E+03  0.19519973281E+03 -0.43900336826E+03  0.56995106066E+03  0.17300000000E+03 0. -1.
         -6    1    1    2    0  503 -0.25315670743E+03 -0.19519973281E+03 -0.61320491549E+03  0.71283975940E+03  0.17300000000E+03 0. -1.
</event>
<event>
 4    1  0.5956049E+000  0.1000000E+03  0.7546771E-02  0.1280296E+00
         21   -1    0    0  501  502  0.00000000000E+00  0.00000000000E+00  0.34731633720E+03  0.34731633720E+03  0.00000000000E+00 0. -1.
         21   -1    0    0  502  503 -0.00000000000E+00 -0.00000000000E+00 -0.15552269584E+03  0.15552269584E+03  0.00000000000E+00 0. -1.
          6    1    1    2  501    0  0.22842235642E+02 -0.51056739815E+02  0.25250504406E+03  0.31115326719E+03  0.17300000000E+03 0. -1.
         -6    1    1    2    0  503 -0.22842235642E+02  0.51056739815E+02 -0.60711402698E+02  0.19168576584E+03  0.17300000000E+03 0. -1.
</event>
<event>
 4    1  0.5956049E+000  0.1000000E+03  0.7546771E-02  0.1280296E+00
         21   -1    0    0  501  502  0.00000000000E+00  0.00000000000E+00  0.43879991847E+03  0.43879991847E+03  0.00000000000E+00 0. -1.
         21   -1    0    0  502  503 -0.00000000000E+00 -0.00000000000E+00 -0.76944026527E+02  0.76944026527E+02  0.00000000000E+00 0. -1.
          6    1    1    2  501    0 -0.54028446687E+02 -0.29662209869E+02  0.18924398042E+03  0.26370666254E+03  0.17300000000E+03 0. -1.
         -6    1    1    2    0  503  0.54028446687E+02  0.29662209869E+02  0.17261191153E+03  0.25203728245E+03  0.17300000000E+03 0. -1.
</event>
<event>
 4    1  0.5956049E+000  0.1000000E+03  0.7546771E-02  0.1280296E+00
         21   -1    0    0  503  502  0.00000000000E+00  0.00000000000E+00  0.37936242695E+03  0.37936242695E+03  0.00000000000E+00 0. -1.
         21   -1    0    0  501  503 -0.00000000000E+00 -0.00000000000E+00 -0.63065643558E+03  0.63065643558E+03  0.00000000000E+00 0.  1.
          6    1    1    2  501    0  0.74334411127E+02 -0.57111525748E+02 -0.58799257578E+03  0.62004161169E+03  0.17300000000E+03 0. -1.
         -6    1    1    2    0  502 -0.74334411127E+02  0.57111525748E+02  0.33669856715E+03  0.38997725084E+03  0.17300000000E+03 0. -1.
</event>
<event>
 4    1  0.5956049E+000  0.1000000E+03  0.7546771E-02  0.1280296E+00
         21   -1    0    0  503  502  0.00000000000E+00  0.00000000000E+00  0.48448482617E+03  0.48448482617E+03  0.00000000000E+00 0. -1.
         21   -1    0    0  501  503 -0.00000000000E+00 -0.00000000000E+00 -0.24136072025E+03  0.24136072025E+03  0.00000000000E+00 0.  1.
          6    1    1    2  501    0  0.46740314725E+02 -0.21293165601E+03 -0.89320540229E+02  0.29228702684E+03  0.17300000000E+03 0. -1.
         -6    1    1    2    0  502 -0.46740314725E+02  0.21293165601E+03  0.33244464615E+03  0.43355851959E+03  0.17300000000E+03 0. -1.
</event>
<event>
 4    1  0.5956049E+000  0.1000000E+03  0.7546771E-02  0.1280296E+00
         21   -1    0    0  503  502  0.00000000000E+00  0.00000000000E+00  0.20167160155E+03  0.20167160155E+03  0.00000000000E+00 0. -1.
         21   -1    0    0  501  503 -0.00000000000E+00 -0.00000000000E+00 -0.26020649022E+03  0.26020649022E+03  0.00000000000E+00 0.  1.
          6    1    1    2  501    0 -0.11197338368E+03 -0.66133371515E+02 -0.10494828360E+03  0.24053025529E+03  0.17300000000E+03 0. -1.
         -6    1    1    2    0  502  0.11197338368E+03  0.66133371515E+02  0.46413394932E+02  0.22134783647E+03  0.17300000000E+03 0. -1.
</event>
<event>
 4    1  0.5956049E+000  0.1000000E+03  0.7546771E-02  0.1280296E+00
         21   -1    0    0  503  502  0.00000000000E+00  0.00000000000E+00  0.10674051795E+03  0.10674051795E+03  0.00000000000E+00 0. -1.
         21   -1    0    0  501  503 -0.00000000000E+00 -0.00000000000E+00 -0.26015203586E+04  0.26015203586E+04  0.00000000000E+00 0.  1.
          6    1    1    2  501    0 -0.20681873831E+03 -0.89810767985E+02 -0.23877071213E+04  0.24045611370E+04  0.17300000000E+03 0. -1.
         -6    1    1    2    0  502  0.20681873831E+03  0.89810767985E+02 -0.10707271935E+03  0.30369973953E+03  0.17300000000E+03 0. -1.
</event>
<event>
 4    1  0.5956049E+000  0.1000000E+03  0.7546771E-02  0.1280296E+00
         21   -1    0    0  501  502  0.00000000000E+00  0.00000000000E+00  0.75073775960E+02  0.75073775960E+02  0.00000000000E+00 0.  1.
         21   -1    0    0  502  503 -0.00000000000E+00 -0.00000000000E+00 -0.90401476798E+03  0.90401476798E+03  0.00000000000E+00 0. -1.
          6    1    1    2  501    0 -0.68280755986E+02  0.11494283271E+02 -0.72360861079E+02  0.19989866033E+03  0.17300000000E+03 0.  1.
         -6    1    1    2    0  503  0.68280755986E+02 -0.11494283271E+02 -0.75658013094E+03  0.77918988361E+03  0.17300000000E+03 0. -1.
</event>
<event>
 4    1  0.5956049E+000  0.1000000E+03  0.7546771E-02  0.1280296E+00
         21   -1    0    0  501  502  0.00000000000E+00  0.00000000000E+00  0.21369538608E+03  0.21369538608E+03  0.00000000000E+00 0.  1.
         21   -1    0    0  502  503 -0.00000000000E+00 -0.00000000000E+00 -0.17356829153E+03  0.17356829153E+03  0.00000000000E+00 0. -1.
          6    1    1    2  501    0  0.60125259237E+02 -0.44280642747E+02  0.60102690044E+02  0.19778057405E+03  0.17300000000E+03 0.  1.
         -6    1    1    2    0  503 -0.60125259237E+02  0.44280642747E+02 -0.19975595486E+02  0.18948310356E+03  0.17300000000E+03 0. -1.
</event>
<event>
 4    1  0.5956049E+000  0.1000000E+03  0.7546771E-02  0.1280296E+00
         21   -1    0    0  501  502  0.00000000000E+00  0.00000000000E+00  0.12114902308E+04  0.12114902308E+04  0.00000000000E+00 0.  1.
         21   -1    0    0  502  503 -0.00000000000E+00 -0.00000000000E+00 -0.48384134994E+02  0.48384134994E+02  0.00000000000E+00 0. -1.
          6    1    1    2  501    0 -0.11315933888E+03 -0.92743369468E+02  0.35953035562E+03  0.42496758131E+03  0.17300000000E+03 0.  1.
         -6    1    1    2    0  503  0.11315933888E+03  0.92743369468E+02  0.80357574024E+03  0.83490678453E+03  0.17300000000E+03 0. -1.
</event>
<event>
 4    1  0.5956049E+000  0.1000000E+03  0.7546771E-02  0.1280296E+00
         21   -1    0    0  503  502  0.00000000000E+00  0.00000000000E+00  0.11863026597E+04  0.11863026597E+04  0.00000000000E+00 0.  1.
         21   -1    0    0  501  503 -0.00000000000E+00 -0.00000000000E+00 -0.42713639878E+02  0.42713639878E+02  0.00000000000E+00 0. -1.
          6    1    1    2  501    0 -0.13459982864E+03  0.43500702831E+02  0.49789136599E+03  0.54574191459E+03  0.17300000000E+03 0.  1.
         -6    1    1    2    0  502  0.13459982864E+03 -0.43500702831E+02  0.64569765388E+03  0.68327438503E+03  0.17300000000E+03 0. -1.
</event>
<event>
 4    1  0.5956049E+000  0.1000000E+03  0.7546771E-02  0.1280296E+00
         21   -1    0    0  503  502  0.00000000000E+00  0.00000000000E+00  0.30291954302E+03  0.30291954302E+03  0.00000000000E+00 0.  1.
         21   -1    0    0  501  503 -0.00000000000E+00 -0.00000000000E+00 -0.30858128776E+03  0.30858128776E+03  0.00000000000E+00 0. -1.
          6    1    1    2  501    0  0.18819544856E+02 -0.59633105809E+02 -0.24704621345E+03  0.30801154874E+03  0.17300000000E+03 0.  1.
         -6    1    1    2    0  502 -0.18819544856E+02  0.59633105809E+02  0.24138446871E+03  0.30348928204E+03  0.17300000000E+03 0. -1.
</event>
<event>
 4    1  0.5956049E+000  0.1000000E+03  0.7546771E-02  0.1280296E+00
         21   -1    0    0  503  502  0.00000000000E+00  0.00000000000E+00  0.93179462699E+02  0.93179462699E+02  0.00000000000E+00 0. -1.
         21   -1    0    0  501  503 -0.00000000000E+00 -0.00000000000E+00 -0.52660199175E+03  0.52660199175E+03  0.00000000000E+00 0.  1.
          6    1    1    2  501    0 -0.13175938950E+03  0.34755275508E+02 -0.18328139377E+03  0.28651271386E+03  0.17300000000E+03 0.  1.
         -6    1    1    2    0  502  0.13175938950E+03 -0.34755275508E+02 -0.25014113528E+03  0.33326874059E+03  0.17300000000E+03 0. -1.
</event>
<event>
 4    1  0.5956049E+000  0.1000000E+03  0.7546771E-02  0.1280296E+00
         21   -1    0    0  503  502  0.00000000000E+00  0.00000000000E+00  0.34435591862E+03  0.34435591862E+03  0.00000000000E+00 0. -1.
         21   -1    0    0  501  503 -0.00000000000E+00 -0.00000000000E+00 -0.12902875777E+03  0.12902875777E+03  0.00000000000E+00 0.  1.
          6    1    1    2  501    0  0.18660021657E+02 -0.10432160420E+03  0.43436410550E+02  0.20747750546E+03  0.17300000000E+03 0.  1.
         -6    1    1    2    0  502 -0.18660021657E+02  0.10432160420E+03  0.17189075031E+03  0.26590717093E+03  0.17300000000E+03 0. -1.
</event>
<event>
 4    1  0.5956049E+000  0.1000000E+03  0.7546771E-02  0.1280296E+00
         21   -1    0    0  503  502  0.00000000000E+00  0.00000000000E+00  0.27611555408E+03  0.27611555408E+03  0.00000000000E+00 0. -1.
         21   -1    0    0  501  503 -0.00000000000E+00 -0.00000000000E+00 -0.23250021223E+03  0.23250021223E+03  0.00000000000E+00 0.  1.
          6    1    1    2  501    0 -0.28550927353E+02 -0.66172577826E+02 -0.14933361859E+03  0.23963199943E+03  0.17300000000E+03 0.  1.
         -6    1    1    2    0  502  0.28550927353E+02  0.66172577826E+02  0.19294896045E+03  0.26898376688E+03  0.17300000000E+03 0. -1.
</event>
<event>
 4    1  0.5956049E+000  0.1000000E+03  0.7546771E-02  0.1280296E+00
         21   -1    0    0  503  502  0.00000000000E+00  0.00000000000E+00  0.17881861584E+03  0.17881861584E+03  0.00000000000E+00 0. -1.
         21   -1    0    0  501  503 -0.00000000000E+00 -0.00000000000E+00 -0.14832447529E+04  0.14832447529E+04  0.00000000000E+00 0. -1.
          6    1    1    2  501    0 -0.85420855006E+02 -0.34026739025E+03 -0.11927781373E+04  0.12552797712E+04  0.17300000000E+03 0. -1.
         -6    1    1    2    0  502  0.85420855006E+02  0.34026739025E+03 -0.11164799980E+03  0.40678359750E+03  0.17300000000E+03 0. -1.
</event>
<event>
 4    1  0.5956049E+000  0.1000000E+03  0.7546771E-02  0.1280296E+00
         21   -1    0    0  503  502  0.00000000000E+00  0.00000000000E+00  0.22775865507E+03  0.22775865507E+03  0.00000000000E+00 0.  1.
         21   -1    0    0  501  503 -0.00000000000E+00 -0.00000000000E+00 -0.37874076579E+03  0.37874076579E+03  0.00000000000E+00 0.  1.
          6    1    1    2  501    0 -0.11905197593E+03 -0.45131049726E+02 -0.28230739585E+03  0.35473461964E+03  0.17300000000E+03 0.  1.
         -6    1    1    2    0  502  0.11905197593E+03  0.45131049726E+02  0.13132528512E+03  0.25176480122E+03  0.17300000000E+03 0.  1.
</event>
<event>
 4    1  0.5956049E+000  0.1000000E+03  0.7546771E-02  0.1280296E+00
         21   -1    0    0  503  502  0.00000000000E+00  0.00000000000E+00  0.25653012151E+03  0.25653012151E+03  0.00000000000E+00 0. -1.
         21   -1    0    0  501  503 -0.00000000000E+00 -0.00000000000E+00 -0.23310088228E+03  0.23310088228E+03  0.00000000000E+00 0. -1.
          6    1    1    2  501    0 -0.78701664900E+02  0.25391576978E+02 -0.14021485600E+03  0.23754555370E+03  0.17300000000E+03 0. -1.
         -6    1    1    2    0  502  0.78701664900E+02 -0.25391576978E+02  0.16364409523E+03  0.25208545008E+03  0.17300000000E+03 0. -1.
</event>
<event>
 4    1  0.5956049E+000  0.1000000E+03  0.7546771E-02  0.1280296E+00
         21   -1    0    0  503  502  0.00000000000E+00  0.00000000000E+00  0.64200366797E+03  0.64200366797E+03  0.00000000000E+00 0. -1.
         21   -1    0    0  501  503 -0.00000000000E+00 -0.00000000000E+00 -0.16782528637E+03  0.16782528637E+03  0.00000000000E+00 0. -1.
          6    1    1    2  501    0 -0.18568426550E+03 -0.20722157449E+03  0.21254065866E+03  0.39054059836E+03  0.17300000000E+03 0. -1.
         -6    1    1    2    0  502  0.18568426550E+03  0.20722157449E+03  0.26163772294E+03  0.41928835597E+03  0.17300000000E+03 0. -1.
</event>
<event>
 4    1  0.5956049E+000  0.1000000E+03  0.7546771E-02  0.1280296E+00
         21   -1    0    0  501  502  0.00000000000E+00  0.00000000000E+00  0.21846857946E+04  0.21846857946E+04  0.00000000000E+00 0.  1.
         21   -1    0    0  502  503 -0.00000000000E+00 -0.00000000000E+00 -0.13718097380E+03  0.13718097380E+03  0.00000000000E+00 0.  1.
          6    1    1    2  501    0  0.75537195563E+02 -0.11587515694E+03  0.20854163753E+04  0.20971464847E+04  0.17300000000E+03 0.  1.
         -6    1    1    2    0  503 -0.75537195563E+02  0.11587515694E+03 -0.37911554565E+02  0.22472028364E+03  0.17300000000E+03 0.  1.
</event>
<event>
 4    1  0.5956049E+000  0.1000000E+03  0.7546771E-02  0.1280296E+00
         21   -1    0    0  501  502  0.00000000000E+00  0.00000000000E+00  0.58586882023E+03  0.58586882023E+03  0.00000000000E+00 0.  1.
         21   -1    0    0  502  503 -0.00000000000E+00 -0.00000000000E+00 -0.25881007578E+03  0.25881007578E+03  0.00000000000E+00 0.  1.
          6    1    1    2  501    0  0.39314805967E+01  0.25162672973E+02  0.54088888448E+03  0.56845263832E+03  0.17300000000E+03 0.  1.
         -6    1    1    2    0  503 -0.39314805967E+01 -0.25162672973E+02 -0.21383014004E+03  0.27622625770E+03  0.17300000000E+03 0.  1.
</event>
<event>
 4    1  0.5956049E+000  0.1000000E+03  0.7546771E-02  0.1280296E+00
         21   -1    0    0  501  502  0.00000000000E+00  0.00000000000E+00  0.72546289874E+02  0.72546289874E+02  0.00000000000E+00 0. -1.
         21   -1    0    0  502  503 -0.00000000000E+00 -0.00000000000E+00 -0.82085245263E+03  0.82085245263E+03  0.00000000000E+00 0.  1.
          6    1    1    2  501    0  0.11002246647E+03  0.10149715097E+03 -0.21867512237E+03  0.31647183750E+03  0.17300000000E+03 0. -1.
         -6    1    1    2    0  503 -0.11002246647E+03 -0.10149715097E+03 -0.52963104039E+03  0.57692690501E+03  0.17300000000E+03 0.  1.
</event>
<event>
 4    1  0.5956049E+000  0.1000000E+03  0.7546771E-02  0.1280296E+00
         21   -1    0    0  501  502  0.00000000000E+00  0.00000000000E+00  0.89545528797E+02  0.89545528797E+02  0.00000000000E+00 0. -1.
         21   -1    0    0  502  503 -0.00000000000E+00 -0.00000000000E+00 -0.15672522690E+04  0.15672522690E+04  0.00000000000E+00 0.  1.
          6    1    1    2  501    0 -0.32171851342E+03  0.64234895876E+02 -0.85549845173E+03  0.93243526566E+03  0.17300000000E+03 0. -1.
         -6    1    1    2    0  503  0.32171851342E+03 -0.64234895876E+02 -0.62220828846E+03  0.72436253213E+03  0.17300000000E+03 0.  1.
</event>
<event>
 4    1  0.5956049E+000  0.1000000E+03  0.7546771E-02  0.1280296E+00
         21   -1    0    0  501  502  0.00000000000E+00  0.00000000000E+00  0.97896510526E+03  0.97896510526E+03  0.00000000000E+00 0.  1.
         21   -1    0    0  502  503 -0.00000000000E+00 -0.00000000000E+00 -0.65835705344E+02  0.65835705344E+02  0.00000000000E+00 0.  1.
          6    1    1    2  501    0 -0.12497493791E+03 -0.13748366109E+03  0.45896973110E+03  0.52450234150E+03  0.17300000000E+03 0.  1.
         -6    1    1    2    0  503  0.12497493791E+03  0.13748366109E+03  0.45415966881E+03  0.52029846910E+03  0.17300000000E+03 0.  1.
</event>
<event>
 4    1  0.5956049E+000  0.1000000E+03  0.7546771E-02  0.1280296E+00
         21   -1    0    0  503  502  0.00000000000E+00  0.00000000000E+00  0.27969651780E+02  0.27969651780E+02  0.00000000000E+00 0. -1.
         21   -1    0    0  501  503 -0.00000000000E+00 -0.00000000000E+00 -0.19931353857E+04  0.19931353857E+04  0.00000000000E+00 0. -1.
          6    1    1    2  501    0 -0.17253426859E+02 -0.48409639906E+02 -0.16341764155E+04  0.16441115323E+04  0.17300000000E+03 0. -1.
         -6    1    1    2    0  502  0.17253426859E+02  0.48409639906E+02 -0.33098931849E+03  0.37699350515E+03  0.17300000000E+03 0. -1.
</event>
<event>
 4    1  0.5956049E+000  0.1000000E+03  0.7546771E-02  0.1280296E+00
         21   -1    0    0  501  502  0.00000000000E+00  0.00000000000E+00  0.19006558155E+03  0.19006558155E+03  0.00000000000E+00 0. -1.
         21   -1    0    0  502  503 -0.00000000000E+00 -0.00000000000E+00 -0.25082548175E+03  0.25082548175E+03  0.00000000000E+00 0. -1.
          6    1    1    2  501    0  0.21229855963E+02 -0.12900781292E+03 -0.46279928861E+01  0.21689661338E+03  0.17300000000E+03 0.  1.
         -6    1    1    2    0  503 -0.21229855963E+02  0.12900781292E+03 -0.56131907307E+02  0.22399444992E+03  0.17300000000E+03 0.  1.
</event>
<event>
 4    1  0.5956049E+000  0.1000000E+03  0.7546771E-02  0.1280296E+00
         21   -1    0    0  501  502  0.00000000000E+00  0.00000000000E+00  0.18634515387E+03  0.18634515387E+03  0.00000000000E+00 0. -1.
         21   -1    0    0  502  503 -0.00000000000E+00 -0.00000000000E+00 -0.38605585310E+03  0.38605585310E+03  0.00000000000E+00 0. -1.
          6    1    1    2  501    0 -0.16621006122E+03 -0.94003144672E+02 -0.20374090262E+02  0.25846949378E+03  0.17300000000E+03 0.  1.
         -6    1    1    2    0  503  0.16621006122E+03  0.94003144672E+02 -0.17933660897E+03  0.31393151320E+03  0.17300000000E+03 0.  1.
</event>
<event>
 4    1  0.5956049E+000  0.1000000E+03  0.7546771E-02  0.1280296E+00
         21   -1    0    0  501  502  0.00000000000E+00  0.00000000000E+00  0.28232753718E+03  0.28232753718E+03  0.00000000000E+00 0. -1.
         21   -1    0    0  502  503 -0.00000000000E+00 -0.00000000000E+00 -0.12224484890E+03  0.12224484890E+03  0.00000000000E+00 0. -1.
          6    1    1    2  501    0 -0.23969310467E+02 -0.50087566876E+02  0.12222410619E+03  0.21897722332E+03  0.17300000000E+03 0.  1.
         -6    1    1    2    0  503  0.23969310467E+02  0.50087566876E+02  0.37858582095E+02  0.18559516276E+03  0.17300000000E+03 0.  1.
</event>
<event>
 4    1  0.5956049E+000  0.1000000E+03  0.7546771E-02  0.1280296E+00
         21   -1    0    0  501  502  0.00000000000E+00  0.00000000000E+00  0.45408733344E+02  0.45408733344E+02  0.00000000000E+00 0. -1.
         21   -1    0    0  502  503 -0.00000000000E+00 -0.00000000000E+00 -0.77292255024E+03  0.77292255024E+03  0.00000000000E+00 0.  1.
          6    1    1    2  501    0  0.67383741470E+01 -0.71575086576E+02 -0.36334671188E+03  0.40880096837E+03  0.17300000000E+03 0. -1.
         -6    1    1    2    0  503 -0.67383741470E+01  0.71575086576E+02 -0.36416710501E+03  0.40953031521E+03  0.17300000000E+03 0.  1.
</event>
<event>
 4    1  0.5956049E+000  0.1000000E+03  0.7546771E-02  0.1280296E+00
         21   -1    0    0  501  502  0.00000000000E+00  0.00000000000E+00  0.26512517622E+03  0.26512517622E+03  0.00000000000E+00 0. -1.
         21   -1    0    0  502  503 -0.00000000000E+00 -0.00000000000E+00 -0.36296258989E+03  0.36296258989E+03  0.00000000000E+00 0. -1.
          6    1    1    2  501    0  0.71167919118E+02 -0.20037266837E+03 -0.19592836510E+03  0.33694362020E+03  0.17300000000E+03 0. -1.
         -6    1    1    2    0  503 -0.71167919118E+02  0.20037266837E+03  0.98090951436E+02  0.29114414591E+03  0.17300000000E+03 0. -1.
</event>
<event>
 4    1  0.5956049E+000  0.1000000E+03  0.7546771E-02  0.1280296E+00
         21   -1    0    0  501  502  0.00000000000E+00  0.00000000000E+00  0.26541384401E+03  0.26541384401E+03  0.00000000000E+00 0. -1.
         21   -1    0    0  502  503 -0.00000000000E+00 -0.00000000000E+00 -0.13328727286E+03  0.13328727286E+03  0.00000000000E+00 0. -1.
          6    1    1    2  501    0  0.16342465970E+02 -0.43163302282E+02  0.12710732564E+03  0.21958009721E+03  0.17300000000E+03 0. -1.
         -6    1    1    2    0  503 -0.16342465970E+02  0.43163302282E+02  0.50192455077E+01  0.17912101966E+03  0.17300000000E+03 0. -1.
</event>
<event>
 4    1  0.5956049E+000  0.1000000E+03  0.7546771E-02  0.1280296E+00
         21   -1    0    0  501  502  0.00000000000E+00  0.00000000000E+00  0.15722961660E+04  0.15722961660E+04  0.00000000000E+00 0. -1.
         21   -1    0    0  502  503 -0.00000000000E+00 -0.00000000000E+00 -0.82321476409E+02  0.82321476409E+02  0.00000000000E+00 0. -1.
          6    1    1    2  501    0  0.14008183837E+03 -0.20201933969E+03  0.11995205807E+04  0.12366136659E+04  0.17300000000E+03 0. -1.
         -6    1    1    2    0  503 -0.14008183837E+03  0.20201933969E+03  0.29045410890E+03  0.41800397657E+03  0.17300000000E+03 0. -1.
</event>
<event>
 4    1  0.5956049E+000  0.1000000E+03  0.7546771E-02  0.1280296E+00
         21   -1    0    0  501  502  0.00000000000E+00  0.00000000000E+00  0.84477787915E+03  0.84477787915E+03  0.00000000000E+00 0. -1.
         21   -1    0    0  502  503 -0.00000000000E+00 -0.00000000000E+00 -0.96810701289E+02  0.96810701289E+02  0.00000000000E+00 0. -1.
          6    1    1    2  501    0  0.27096079796E+02  0.96632606694E+02  0.71049155377E+03  0.73810521350E+03  0.17300000000E+03 0. -1.
         -6    1    1    2    0  503 -0.27096079796E+02 -0.96632606694E+02  0.37475624082E+02  0.20348336693E+03  0.17300000000E+03 0. -1.
</event>
<event>
 4    1  0.5956049E+000  0.1000000E+03  0.7546771E-02  0.1280296E+00
         21   -1    0    0  501  502  0.00000000000E+00  0.00000000000E+00  0.76599861924E+02  0.76599861924E+02  0.00000000000E+00 0. -1.
         21   -1    0    0  502  503 -0.00000000000E+00 -0.00000000000E+00 -0.99724006856E+03  0.99724006856E+03  0.00000000000E+00 0. -1.
          6    1    1    2  501    0  0.18212858740E+03  0.48633857600E+02 -0.25728358221E+03  0.36284971563E+03  0.17300000000E+03 0. -1.
         -6    1    1    2    0  503 -0.18212858740E+03 -0.48633857600E+02 -0.66335662442E+03  0.71099021485E+03  0.17300000000E+03 0. -1.
</event>
<event>
 4    1  0.5956049E+000  0.1000000E+03  0.7546771E-02  0.1280296E+00
         21   -1    0    0  501  502  0.00000000000E+00  0.00000000000E+00  0.67243177093E+02  0.67243177093E+02  0.00000000000E+00 0. -1.
         21   -1    0    0  502  503 -0.00000000000E+00 -0.00000000000E+00 -0.16945480470E+04  0.16945480470E+04  0.00000000000E+00 0. -1.
          6    1    1    2  501    0 -0.39245419233E+02  0.19033568666E+02 -0.65852416370E+02  0.19017891684E+03  0.17300000000E+03 0. -1.
         -6    1    1    2    0  503  0.39245419233E+02 -0.19033568666E+02 -0.15614524535E+04  0.15716123072E+04  0.17300000000E+03 0. -1.
</event>
<event>
 4    1  0.5956049E+000  0.1000000E+03  0.7546771E-02  0.1280296E+00
         21   -1    0    0  501  502  0.00000000000E+00  0.00000000000E+00  0.78452394136E+03  0.78452394136E+03  0.00000000000E+00 0.  1.
         21   -1    0    0  502  503 -0.00000000000E+00 -0.00000000000E+00 -0.21169308336E+03  0.21169308336E+03  0.00000000000E+00 0. -1.
          6    1    1    2  501    0 -0.28757755787E+03 -0.19523347169E+03  0.43776166829E+03  0.58513352192E+03  0.17300000000E+03 0.  1.
         -6    1    1    2    0  503  0.28757755787E+03  0.19523347169E+03  0.13506918971E+03  0.41108350279E+03  0.17300000000E+03 0. -1.
</event>
<event>
 4    1  0.5956049E+000  0.1000000E+03  0.7546771E-02  0.1280296E+00
         21   -1    0    0  501  502  0.00000000000E+00  0.00000000000E+00  0.24256972638E+04  0.24256972638E+04  0.00000000000E+00 0. -1.
         21   -1    0    0  502  503 -0.00000000000E+00 -0.00000000000E+00 -0.59097560505E+02  0.59097560505E+02  0.00000000000E+00 0. -1.
          6    1    1    2  501    0  0.64593681713E+02  0.87483050395E+02  0.22292244807E+04  0.22385701716E+04  0.17300000000E+03 0. -1.
         -6    1    1    2    0  503 -0.64593681713E+02 -0.87483050395E+02  0.13737522263E+03  0.24622465274E+03  0.17300000000E+03 0. -1.
</event>
<event>
 4    1  0.5956049E+000  0.1000000E+03  0.7546771E-02  0.1280296E+00
         21   -1    0    0  501  502  0.00000000000E+00  0.00000000000E+00  0.53571200233E+03  0.53571200233E+03  0.00000000000E+00 0. -1.
         21   -1    0    0  502  503 -0.00000000000E+00 -0.00000000000E+00 -0.50194479217E+03  0.50194479217E+03  0.00000000000E+00 0. -1.
          6    1    1    2  501    0  0.26597890124E+02  0.55615866311E+02  0.50208209750E+03  0.53461762501E+03  0.17300000000E+03 0. -1.
         -6    1    1    2    0  503 -0.26597890124E+02 -0.55615866311E+02 -0.46831488733E+03  0.50303916949E+03  0.17300000000E+03 0. -1.
</event>
<event>
 4    1  0.5956049E+000  0.1000000E+03  0.7546771E-02  0.1280296E+00
         21   -1    0    0  501  502  0.00000000000E+00  0.00000000000E+00  0.31354937311E+04  0.31354937311E+04  0.00000000000E+00 0.  1.
         21   -1    0    0  502  503 -0.00000000000E+00 -0.00000000000E+00 -0.13812676006E+03  0.13812676006E+03  0.00000000000E+00 0.  1.
          6    1    1    2  501    0 -0.84842142124E+02  0.23756879179E+03  0.29479397687E+04  0.29637670286E+04  0.17300000000E+03 0.  1.
         -6    1    1    2    0  503  0.84842142124E+02 -0.23756879179E+03  0.49427202303E+02  0.30985346253E+03  0.17300000000E+03 0.  1.
</event>
<event>
 4    1  0.5956049E+000  0.1000000E+03  0.7546771E-02  0.1280296E+00
         21   -1    0    0  503  502  0.00000000000E+00  0.00000000000E+00  0.19232870673E+03  0.19232870673E+03  0.00000000000E+00 0. -1.
         21   -1    0    0  501  503 -0.00000000000E+00 -0.00000000000E+00 -0.70988153678E+03  0.70988153678E+03  0.00000000000E+00 0.  1.
          6    1    1    2  501    0  0.26028275398E+03 -0.18091185397E+02 -0.49840932238E+03  0.58857051883E+03  0.17300000000E+03 0.  1.
         -6    1    1    2    0  502 -0.26028275398E+03  0.18091185397E+02 -0.19143507672E+02  0.31363972467E+03  0.17300000000E+03 0. -1.
</event>
<event>
 4    1  0.5956049E+000  0.1000000E+03  0.7546771E-02  0.1280296E+00
         21   -1    0    0  503  502  0.00000000000E+00  0.00000000000E+00  0.29626295688E+03  0.29626295688E+03  0.00000000000E+00 0. -1.
         21   -1    0    0  501  503 -0.00000000000E+00 -0.00000000000E+00 -0.15887236691E+03  0.15887236691E+03  0.00000000000E+00 0.  1.
          6    1    1    2  501    0 -0.92531917251E+02 -0.91178198543E+02  0.85718334068E+02  0.23270636518E+03  0.17300000000E+03 0.  1.
         -6    1    1    2    0  502  0.92531917251E+02  0.91178198543E+02  0.51672255895E+02  0.22242895861E+03  0.17300000000E+03 0. -1.
</event>
<event>
 4    1  0.5956049E+000  0.1000000E+03  0.7546771E-02  0.1280296E+00
         21   -1    0    0  501  502  0.00000000000E+00  0.00000000000E+00  0.34786979158E+03  0.34786979158E+03  0.00000000000E+00 0.  1.
         21   -1    0    0  502  503 -0.00000000000E+00 -0.00000000000E+00 -0.12921185061E+03  0.12921185061E+03  0.00000000000E+00 0.  1.
          6    1    1    2  501    0  0.29436592845E+02 -0.31570391646E+02  0.23838449882E+03  0.29769006014E+03  0.17300000000E+03 0.  1.
         -6    1    1    2    0  503 -0.29436592845E+02  0.31570391646E+02 -0.19726557854E+02  0.17939158205E+03  0.17300000000E+03 0.  1.
</event>
<event>
 4    1  0.5956049E+000  0.1000000E+03  0.7546771E-02  0.1280296E+00
         21   -1    0    0  501  502  0.00000000000E+00  0.00000000000E+00  0.53275231083E+03  0.53275231083E+03  0.00000000000E+00 0.  1.
         21   -1    0    0  502  503 -0.00000000000E+00 -0.00000000000E+00 -0.10118882743E+03  0.10118882743E+03  0.00000000000E+00 0.  1.
          6    1    1    2  501    0  0.36858798692E+02 -0.35808929218E+02  0.41520429991E+03  0.45273000908E+03  0.17300000000E+03 0.  1.
         -6    1    1    2    0  503 -0.36858798692E+02  0.35808929218E+02  0.16359183488E+02  0.18121112918E+03  0.17300000000E+03 0.  1.
</event>
<event>
 4    1  0.5956049E+000  0.1000000E+03  0.7546771E-02  0.1280296E+00
         21   -1    0    0  503  502  0.00000000000E+00  0.00000000000E+00  0.60549935871E+02  0.60549935871E+02  0.00000000000E+00 0.  1.
         21   -1    0    0  501  503 -0.00000000000E+00 -0.00000000000E+00 -0.74860915204E+03  0.74860915204E+03  0.00000000000E+00 0. -1.
          6    1    1    2  501    0  0.47732414634E+02 -0.96602617604E+02 -0.22706092329E+03  0.30511655481E+03  0.17300000000E+03 0. -1.
         -6    1    1    2    0  502 -0.47732414634E+02  0.96602617604E+02 -0.46099829288E+03  0.50404253310E+03  0.17300000000E+03 0.  1.
</event>
<event>
 4    1  0.5956049E+000  0.1000000E+03  0.7546771E-02  0.1280296E+00
         21   -1    0    0  503  502  0.00000000000E+00  0.00000000000E+00  0.38064949429E+03  0.38064949429E+03  0.00000000000E+00 0.  1.
         21   -1    0    0  501  503 -0.00000000000E+00 -0.00000000000E+00 -0.21870701626E+03  0.21870701626E+03  0.00000000000E+00 0. -1.
          6    1    1    2  501    0  0.86187081616E+02  0.54863913463E+02 -0.13411177787E+03  0.24156413435E+03  0.17300000000E+03 0. -1.
         -6    1    1    2    0  502 -0.86187081616E+02 -0.54863913463E+02  0.29605425590E+03  0.35779237621E+03  0.17300000000E+03 0. -1.
</event>
<event>
 4    1  0.5956049E+000  0.1000000E+03  0.7546771E-02  0.1280296E+00
         21   -1    0    0  503  502  0.00000000000E+00  0.00000000000E+00  0.58053826133E+03  0.58053826133E+03  0.00000000000E+00 0.  1.
         21   -1    0    0  501  503 -0.00000000000E+00 -0.00000000000E+00 -0.13504929265E+03  0.13504929265E+03  0.00000000000E+00 0. -1.
          6    1    1    2  501    0 -0.13823519477E+03  0.76717603127E+02  0.26950574779E+02  0.23590229584E+03  0.17300000000E+03 0. -1.
         -6    1    1    2    0  502  0.13823519477E+03 -0.76717603127E+02  0.41853839390E+03  0.47968525814E+03  0.17300000000E+03 0. -1.
</event>
<event>
 4    1  0.5956049E+000  0.1000000E+03  0.7546771E-02  0.1280296E+00
         21   -1    0    0  503  502  0.00000000000E+00  0.00000000000E+00  0.53853353761E+03  0.53853353761E+03  0.00000000000E+00 0.  1.
         21   -1    0    0  501  503 -0.00000000000E+00 -0.00000000000E+00 -0.27495699290E+03  0.27495699290E+03  0.00000000000E+00 0. -1.
          6    1    1    2  501    0  0.15600401618E+03 -0.35485607601E+02 -0.18977574997E+03  0.30255630333E+03  0.17300000000E+03 0. -1.
         -6    1    1    2    0  502 -0.15600401618E+03  0.35485607601E+02  0.45335229468E+03  0.51093422717E+03  0.17300000000E+03 0. -1.
</event>
<event>
 4    1  0.5956049E+000  0.1000000E+03  0.7546771E-02  0.1280296E+00
         21   -1    0    0  503  502  0.00000000000E+00  0.00000000000E+00  0.19593970295E+03  0.19593970295E+03  0.00000000000E+00 0.  1.
         21   -1    0    0  501  503 -0.00000000000E+00 -0.00000000000E+00 -0.45067681750E+03  0.45067681750E+03  0.00000000000E+00 0. -1.
          6    1    1    2  501    0 -0.60137089543E+02  0.12226949916E+03 -0.34444867521E+03  0.40882782417E+03  0.17300000000E+03 0. -1.
         -6    1    1    2    0  502  0.60137089543E+02 -0.12226949916E+03  0.89711560658E+02  0.23778869628E+03  0.17300000000E+03 0. -1.
</event>
<event>
 4    1  0.5956049E+000  0.1000000E+03  0.7546771E-02  0.1280296E+00
         21   -1    0    0  503  502  0.00000000000E+00  0.00000000000E+00  0.19472615085E+03  0.19472615085E+03  0.00000000000E+00 0. -1.
         21   -1    0    0  501  503 -0.00000000000E+00 -0.00000000000E+00 -0.48624585432E+03  0.48624585432E+03  0.00000000000E+00 0. -1.
          6    1    1    2  501    0  0.53885826236E+02  0.56156052372E+02 -0.41384517315E+03  0.45525159179E+03  0.17300000000E+03 0. -1.
         -6    1    1    2    0  502 -0.53885826236E+02 -0.56156052372E+02  0.12232546967E+03  0.22572041338E+03  0.17300000000E+03 0. -1.
</event>
<event>
 4    1  0.5956049E+000  0.1000000E+03  0.7546771E-02  0.1280296E+00
         21   -1    0    0  503  502  0.00000000000E+00  0.00000000000E+00  0.26804632115E+03  0.26804632115E+03  0.00000000000E+00 0. -1.
         21   -1    0    0  501  503 -0.00000000000E+00 -0.00000000000E+00 -0.18971499936E+03  0.18971499936E+03  0.00000000000E+00 0. -1.
          6    1    1    2  501    0  0.41158894849E+02 -0.15482781157E+02 -0.10070018092E+03  0.20494706042E+03  0.17300000000E+03 0. -1.
         -6    1    1    2    0  502 -0.41158894849E+02  0.15482781157E+02  0.17903150271E+03  0.25281426008E+03  0.17300000000E+03 0. -1.
</event>
<event>
 4    1  0.5956049E+000  0.1000000E+03  0.7546771E-02  0.1280296E+00
         21   -1    0    0  503  502  0.00000000000E+00  0.00000000000E+00  0.17447865337E+03  0.17447865337E+03  0.00000000000E+00 0.  1.
         21   -1    0    0  501  503 -0.00000000000E+00 -0.00000000000E+00 -0.46348338544E+03  0.46348338544E+03  0.00000000000E+00 0. -1.
          6    1    1    2  501    0  0.44314154169E+02 -0.36105635076E+02 -0.38941232814E+03  0.42992827594E+03  0.17300000000E+03 0. -1.
         -6    1    1    2    0  502 -0.44314154169E+02  0.36105635076E+02  0.10040759607E+03  0.20803376287E+03  0.17300000000E+03 0.  1.
</event>
<event>
 4    1  0.5956049E+000  0.1000000E+03  0.7546771E-02  0.1280296E+00
         21   -1    0    0  503  502  0.00000000000E+00  0.00000000000E+00  0.81738333064E+03  0.81738333064E+03  0.00000000000E+00 0.  1.
         21   -1    0    0  501  503 -0.00000000000E+00 -0.00000000000E+00 -0.15862772420E+03  0.15862772420E+03  0.00000000000E+00 0. -1.
          6    1    1    2  501    0 -0.14506393907E+03  0.19001195621E+03  0.49712732131E+02  0.29924646307E+03  0.17300000000E+03 0. -1.
         -6    1    1    2    0  502  0.14506393907E+03 -0.19001195621E+03  0.60904287431E+03  0.67676459176E+03  0.17300000000E+03 0.  1.
</event>
<event>
 4    1  0.5956049E+000  0.1000000E+03  0.7546771E-02  0.1280296E+00
         21   -1    0    0  503  502  0.00000000000E+00  0.00000000000E+00  0.98985765864E+02  0.98985765864E+02  0.00000000000E+00 0.  1.
         21   -1    0    0  501  503 -0.00000000000E+00 -0.00000000000E+00 -0.13564284174E+04  0.13564284174E+04  0.00000000000E+00 0.  1.
          6    1    1    2  501    0  0.10577600294E+03  0.26784452756E+03 -0.91930317518E+03  0.97876278109E+03  0.17300000000E+03 0. -1.
         -6    1    1    2    0  502 -0.10577600294E+03 -0.26784452756E+03 -0.33813947640E+03  0.47665140222E+03  0.17300000000E+03 0. -1.
</event>
<event>
 4    1  0.5956049E+000  0.1000000E+03  0.7546771E-02  0.1280296E+00
         21   -1    0    0  503  502  0.00000000000E+00  0.00000000000E+00  0.21534664052E+02  0.21534664052E+02  0.00000000000E+00 0.  1.
         21   -1    0    0  501  503 -0.00000000000E+00 -0.00000000000E+00 -0.26034996017E+04  0.26034996017E+04  0.00000000000E+00 0.  1.
          6    1    1    2  501    0  0.11295373425E+03 -0.54724293304E+02 -0.18558188688E+04  0.18680861779E+04  0.17300000000E+03 0. -1.
         -6    1    1    2    0  502 -0.11295373425E+03  0.54724293304E+02 -0.72614606878E+03  0.75694808776E+03  0.17300000000E+03 0. -1.
</event>
<event>
 4    1  0.5956049E+000  0.1000000E+03  0.7546771E-02  0.1280296E+00
         21   -1    0    0  503  502  0.00000000000E+00  0.00000000000E+00  0.71884443153E+02  0.71884443153E+02  0.00000000000E+00 0. -1.
         21   -1    0    0  501  503 -0.00000000000E+00 -0.00000000000E+00 -0.46997446496E+03  0.46997446496E+03  0.00000000000E+00 0. -1.
          6    1    1    2  501    0  0.19887287262E+02 -0.70802306638E+01 -0.28511050667E+03  0.33415959492E+03  0.17300000000E+03 0. -1.
         -6    1    1    2    0  502 -0.19887287262E+02  0.70802306638E+01 -0.11297951513E+03  0.20769931319E+03  0.17300000000E+03 0. -1.
</event>
<event>
 4    1  0.5956049E+000  0.1000000E+03  0.7546771E-02  0.1280296E+00
         21   -1    0    0  503  502  0.00000000000E+00  0.00000000000E+00  0.71078320002E+03  0.71078320002E+03  0.00000000000E+00 0. -1.
         21   -1    0    0  501  503 -0.00000000000E+00 -0.00000000000E+00 -0.14898067937E+03  0.14898067937E+03  0.00000000000E+00 0. -1.
          6    1    1    2  501    0 -0.82434818796E+01  0.15906968120E+02 -0.82427648785E+02  0.19246896870E+03  0.17300000000E+03 0. -1.
         -6    1    1    2    0  502  0.82434818796E+01 -0.15906968120E+02  0.64423016943E+03  0.66729491069E+03  0.17300000000E+03 0. -1.
</event>
<event>
 4    1  0.5956049E+000  0.1000000E+03  0.7546771E-02  0.1280296E+00
         21   -1    0    0  501  502  0.00000000000E+00  0.00000000000E+00  0.54759361317E+02  0.54759361317E+02  0.00000000000E+00 0. -1.
         21   -1    0    0  502  503 -0.00000000000E+00 -0.00000000000E+00 -0.79192530802E+03  0.79192530802E+03  0.00000000000E+00 0. -1.
          6    1    1    2  501    0 -0.85173008883E+02  0.66587079352E+02 -0.28358735845E+03  0.34934090864E+03  0.17300000000E+03 0.  1.
         -6    1    1    2    0  503  0.85173008883E+02 -0.66587079352E+02 -0.45357858826E+03  0.49734376070E+03  0.17300000000E+03 0.  1.
</event>
<event>
 4    1  0.5956049E+000  0.1000000E+03  0.7546771E-02  0.1280296E+00
         21   -1    0    0  501  502  0.00000000000E+00  0.00000000000E+00  0.85671202959E+02  0.85671202959E+02  0.00000000000E+00 0. -1.
         21   -1    0    0  502  503 -0.00000000000E+00 -0.00000000000E+00 -0.40979984123E+03  0.40979984123E+03  0.00000000000E+00 0. -1.
          6    1    1    2  501    0  0.58561323138E+02  0.41625164887E+02 -0.15661892565E+03  0.24417323930E+03  0.17300000000E+03 0.  1.
         -6    1    1    2    0  503 -0.58561323138E+02 -0.41625164887E+02 -0.16750971262E+03  0.25129780489E+03  0.17300000000E+03 0.  1.
</event>
<event>
 4    1  0.5956049E+000  0.1000000E+03  0.7546771E-02  0.1280296E+00
         21   -1    0    0  503  502  0.00000000000E+00  0.00000000000E+00  0.28891268994E+03  0.28891268994E+03  0.00000000000E+00 0. -1.
         21   -1    0    0  501  503 -0.00000000000E+00 -0.00000000000E+00 -0.14373607934E+03  0.14373607934E+03  0.00000000000E+00 0. -1.
          6    1    1    2  501    0 -0.47150558644E+02  0.81205973043E+02  0.12856508522E+03  0.23510756342E+03  0.17300000000E+03 0. -1.
         -6    1    1    2    0  502  0.47150558644E+02 -0.81205973043E+02  0.16611525370E+02  0.19754120586E+03  0.17300000000E+03 0. -1.
</event>
<event>
 4    1  0.5956049E+000  0.1000000E+03  0.7546771E-02  0.1280296E+00
         21   -1    0    0  503  502  0.00000000000E+00  0.00000000000E+00  0.38283430440E+03  0.38283430440E+03  0.00000000000E+00 0. -1.
         21   -1    0    0  501  503 -0.00000000000E+00 -0.00000000000E+00 -0.19678916515E+03  0.19678916515E+03  0.00000000000E+00 0. -1.
          6    1    1    2  501    0  0.11766867039E+02  0.48579892838E+02 -0.12569824248E+03  0.21960763491E+03  0.17300000000E+03 0. -1.
         -6    1    1    2    0  502 -0.11766867039E+02 -0.48579892838E+02  0.31174338172E+03  0.36001583464E+03  0.17300000000E+03 0. -1.
</event>
<event>
 4    1  0.5956049E+000  0.1000000E+03  0.7546771E-02  0.1280296E+00
         21   -1    0    0  501  502  0.00000000000E+00  0.00000000000E+00  0.79573827707E+02  0.79573827707E+02  0.00000000000E+00 0. -1.
         21   -1    0    0  502  503 -0.00000000000E+00 -0.00000000000E+00 -0.97870834066E+03  0.97870834066E+03  0.00000000000E+00 0. -1.
          6    1    1    2  501    0 -0.74763118470E+02 -0.14513291798E+03 -0.17285790637E+03  0.29404411839E+03  0.17300000000E+03 0. -1.
         -6    1    1    2    0  503  0.74763118470E+02  0.14513291798E+03 -0.72627660658E+03  0.76423804998E+03  0.17300000000E+03 0. -1.
</event>
<event>
 4    1  0.5956049E+000  0.1000000E+03  0.7546771E-02  0.1280296E+00
         21   -1    0    0  501  502  0.00000000000E+00  0.00000000000E+00  0.35615080726E+03  0.35615080726E+03  0.00000000000E+00 0.  1.
         21   -1    0    0  502  503 -0.00000000000E+00 -0.00000000000E+00 -0.16774873730E+03  0.16774873730E+03  0.00000000000E+00 0. -1.
          6    1    1    2  501    0  0.16116770733E+03 -0.18183907679E+02  0.15768634581E+03  0.28478003449E+03  0.17300000000E+03 0.  1.
         -6    1    1    2    0  503 -0.16116770733E+03  0.18183907679E+02  0.30715724144E+02  0.23911951007E+03  0.17300000000E+03 0. -1.
</event>
<event>
 4    1  0.5956049E+000  0.1000000E+03  0.7546771E-02  0.1280296E+00
         21   -1    0    0  501  502  0.00000000000E+00  0.00000000000E+00  0.27435276855E+03  0.27435276855E+03  0.00000000000E+00 0.  1.
         21   -1    0    0  502  503 -0.00000000000E+00 -0.00000000000E+00 -0.20384418085E+03  0.20384418085E+03  0.00000000000E+00 0.  1.
          6    1    1    2  501    0  0.15214959067E+02  0.16043555652E+03  0.40324952102E+02  0.23984612680E+03  0.17300000000E+03 0.  1.
         -6    1    1    2    0  503 -0.15214959067E+02 -0.16043555652E+03  0.30183635594E+02  0.23835082260E+03  0.17300000000E+03 0.  1.
</event>
<event>
 4    1  0.5956049E+000  0.1000000E+03  0.7546771E-02  0.1280296E+00
         21   -1    0    0  501  502  0.00000000000E+00  0.00000000000E+00  0.13658339919E+03  0.13658339919E+03  0.00000000000E+00 0.  1.
         21   -1    0    0  502  503 -0.00000000000E+00 -0.00000000000E+00 -0.67589957086E+03  0.67589957086E+03  0.00000000000E+00 0.  1.
          6    1    1    2  501    0 -0.30120986747E+02  0.11134646390E+03  0.26556820974E+02  0.20961768438E+03  0.17300000000E+03 0.  1.
         -6    1    1    2    0  503  0.30120986747E+02 -0.11134646390E+03 -0.56587299264E+03  0.60286528567E+03  0.17300000000E+03 0.  1.
</event>
<event>
 4    1  0.5956049E+000  0.1000000E+03  0.7546771E-02  0.1280296E+00
         21   -1    0    0  503  502  0.00000000000E+00  0.00000000000E+00  0.29913215664E+03  0.29913215664E+03  0.00000000000E+00 0. -1.
         21   -1    0    0  501  503 -0.00000000000E+00 -0.00000000000E+00 -0.18540742318E+03  0.18540742318E+03  0.00000000000E+00 0. -1.
          6    1    1    2  501    0 -0.45481282174E+02 -0.83985739210E+02 -0.74921032337E+02  0.21133933024E+03  0.17300000000E+03 0. -1.
         -6    1    1    2    0  502  0.45481282174E+02  0.83985739210E+02  0.18864576579E+03  0.27320024958E+03  0.17300000000E+03 0. -1.
</event>
<event>
 4    1  0.5956049E+000  0.1000000E+03  0.7546771E-02  0.1280296E+00
         21   -1    0    0  501  502  0.00000000000E+00  0.00000000000E+00  0.55516205842E+02  0.55516205842E+02  0.00000000000E+00 0. -1.
         21   -1    0    0  502  503 -0.00000000000E+00 -0.00000000000E+00 -0.73672798256E+03  0.73672798256E+03  0.00000000000E+00 0. -1.
          6    1    1    2  501    0 -0.45298157141E+02  0.65610431505E+02 -0.20754914565E+03  0.28171315132E+03  0.17300000000E+03 0. -1.
         -6    1    1    2    0  503  0.45298157141E+02 -0.65610431505E+02 -0.47366263106E+03  0.51053103709E+03  0.17300000000E+03 0. -1.
</event>
<event>
 4    1  0.5956049E+000  0.1000000E+03  0.7546771E-02  0.1280296E+00
         21   -1    0    0  501  502  0.00000000000E+00  0.00000000000E+00  0.16511822423E+04  0.16511822423E+04  0.00000000000E+00 0. -1.
         21   -1    0    0  502  503 -0.00000000000E+00 -0.00000000000E+00 -0.96091426273E+02  0.96091426273E+02  0.00000000000E+00 0. -1.
          6    1    1    2  501    0 -0.22078867888E+03  0.23977850020E+02  0.13956138674E+04  0.14237238654E+04  0.17300000000E+03 0. -1.
         -6    1    1    2    0  503  0.22078867888E+03 -0.23977850020E+02  0.15947694869E+03  0.32354980324E+03  0.17300000000E+03 0. -1.
</event>
<event>
 4    1  0.5956049E+000  0.1000000E+03  0.7546771E-02  0.1280296E+00
         21   -1    0    0  501  502  0.00000000000E+00  0.00000000000E+00  0.37414516098E+02  0.37414516098E+02  0.00000000000E+00 0. -1.
         21   -1    0    0  502  503 -0.00000000000E+00 -0.00000000000E+00 -0.86713121476E+03  0.86713121476E+03  0.00000000000E+00 0. -1.
          6    1    1    2  501    0 -0.38027283816E+02  0.17939204775E+01 -0.33291507102E+03  0.37710838890E+03  0.17300000000E+03 0. -1.
         -6    1    1    2    0  503  0.38027283816E+02 -0.17939204775E+01 -0.49680162765E+03  0.52743734197E+03  0.17300000000E+03 0. -1.
</event>
<event>
 4    1  0.5956049E+000  0.1000000E+03  0.7546771E-02  0.1280296E+00
         21   -1    0    0  501  502  0.00000000000E+00  0.00000000000E+00  0.30418002451E+03  0.30418002451E+03  0.00000000000E+00 0. -1.
         21   -1    0    0  502  503 -0.00000000000E+00 -0.00000000000E+00 -0.32908294472E+03  0.32908294472E+03  0.00000000000E+00 0. -1.
          6    1    1    2  501    0 -0.51608441052E+02  0.23543576036E+03  0.97533705240E+02  0.31230634336E+03  0.17300000000E+03 0. -1.
         -6    1    1    2    0  503  0.51608441052E+02 -0.23543576036E+03 -0.12243662545E+03  0.32095662588E+03  0.17300000000E+03 0. -1.
</event>
<event>
 4    1  0.5956049E+000  0.1000000E+03  0.7546771E-02  0.1280296E+00
         21   -1    0    0  501  502  0.00000000000E+00  0.00000000000E+00  0.61457035422E+03  0.61457035422E+03  0.00000000000E+00 0.  1.
         21   -1    0    0  502  503 -0.00000000000E+00 -0.00000000000E+00 -0.14233548270E+03  0.14233548270E+03  0.00000000000E+00 0.  1.
          6    1    1    2  501    0  0.16388709670E+03  0.15880176364E+03  0.33074787788E+03  0.43749301631E+03  0.17300000000E+03 0.  1.
         -6    1    1    2    0  503 -0.16388709670E+03 -0.15880176364E+03  0.14148699364E+03  0.31941282060E+03  0.17300000000E+03 0.  1.
</event>
<event>
 4    1  0.5956049E+000  0.1000000E+03  0.7546771E-02  0.1280296E+00
         21   -1    0    0  501  502  0.00000000000E+00  0.00000000000E+00  0.69025861625E+02  0.69025861625E+02  0.00000000000E+00 0.  1.
         21   -1    0    0  502  503 -0.00000000000E+00 -0.00000000000E+00 -0.60733360717E+03  0.60733360717E+03  0.00000000000E+00 0.  1.
          6    1    1    2  501    0  0.47149084616E+02 -0.90033761535E+02 -0.20178583272E+03  0.28456218421E+03  0.17300000000E+03 0.  1.
         -6    1    1    2    0  503 -0.47149084616E+02  0.90033761535E+02 -0.33652191282E+03  0.39179728458E+03  0.17300000000E+03 0.  1.
</event>
<event>
 4    1  0.5956049E+000  0.1000000E+03  0.7546771E-02  0.1280296E+00
         21   -1    0    0  503  502  0.00000000000E+00  0.00000000000E+00  0.17782416964E+04  0.17782416964E+04  0.00000000000E+00 0. -1.
         21   -1    0    0  501  503 -0.00000000000E+00 -0.00000000000E+00 -0.18032698125E+02  0.18032698125E+02  0.00000000000E+00 0. -1.
          6    1    1    2  501    0  0.18131036773E+02  0.82189343059E+01  0.67081735587E+03  0.69305209783E+03  0.17300000000E+03 0. -1.
         -6    1    1    2    0  502 -0.18131036773E+02 -0.82189343059E+01  0.10893916424E+04  0.11032222967E+04  0.17300000000E+03 0. -1.
</event>
<event>
 4    1  0.5956049E+000  0.1000000E+03  0.7546771E-02  0.1280296E+00
         21   -1    0    0  503  502  0.00000000000E+00  0.00000000000E+00  0.11117360198E+03  0.11117360198E+03  0.00000000000E+00 0.  1.
         21   -1    0    0  501  503 -0.00000000000E+00 -0.00000000000E+00 -0.52512204437E+03  0.52512204437E+03  0.00000000000E+00 0.  1.
          6    1    1    2  501    0 -0.48174112485E+02  0.40727581822E+02 -0.41295461082E+03  0.45215040820E+03  0.17300000000E+03 0.  1.
         -6    1    1    2    0  502  0.48174112485E+02 -0.40727581822E+02 -0.99383156528E+00  0.18414523816E+03  0.17300000000E+03 0.  1.
</event>
<event>
 4    1  0.5956049E+000  0.1000000E+03  0.7546771E-02  0.1280296E+00
         21   -1    0    0  503  502  0.00000000000E+00  0.00000000000E+00  0.36427618080E+03  0.36427618080E+03  0.00000000000E+00 0.  1.
         21   -1    0    0  501  503 -0.00000000000E+00 -0.00000000000E+00 -0.95767465125E+02  0.95767465125E+02  0.00000000000E+00 0.  1.
          6    1    1    2  501    0 -0.61145208299E+02 -0.10146665876E+02  0.93129490625E+02  0.20601891503E+03  0.17300000000E+03 0.  1.
         -6    1    1    2    0  502  0.61145208299E+02  0.10146665876E+02  0.17537922505E+03  0.25402473089E+03  0.17300000000E+03 0.  1.
</event>
<event>
 4    1  0.5956049E+000  0.1000000E+03  0.7546771E-02  0.1280296E+00
         21   -1    0    0  503  502  0.00000000000E+00  0.00000000000E+00  0.18204137925E+03  0.18204137925E+03  0.00000000000E+00 0.  1.
         21   -1    0    0  501  503 -0.00000000000E+00 -0.00000000000E+00 -0.24161812509E+03  0.24161812509E+03  0.00000000000E+00 0.  1.
          6    1    1    2  501    0 -0.29453057682E+02  0.49394273040E+02 -0.13450253374E+03  0.22655508910E+03  0.17300000000E+03 0.  1.
         -6    1    1    2    0  502  0.29453057682E+02 -0.49394273040E+02  0.74925787894E+02  0.19710441524E+03  0.17300000000E+03 0.  1.
</event>
<event>
 4    1  0.5956049E+000  0.1000000E+03  0.7546771E-02  0.1280296E+00
         21   -1    0    0  503  502  0.00000000000E+00  0.00000000000E+00  0.30421495023E+02  0.30421495023E+02  0.00000000000E+00 0. -1.
         21   -1    0    0  501  503 -0.00000000000E+00 -0.00000000000E+00 -0.15403086358E+04  0.15403086358E+04  0.00000000000E+00 0.  1.
          6    1    1    2  501    0 -0.22903876238E+02 -0.12109900137E+03 -0.90628019449E+03  0.93083959231E+03  0.17300000000E+03 0.  1.
         -6    1    1    2    0  502  0.22903876238E+02  0.12109900137E+03 -0.60360694630E+03  0.63989053853E+03  0.17300000000E+03 0. -1.
</event>
<event>
 4    1  0.5956049E+000  0.1000000E+03  0.7546771E-02  0.1280296E+00
         21   -1    0    0  503  502  0.00000000000E+00  0.00000000000E+00  0.17142485581E+03  0.17142485581E+03  0.00000000000E+00 0. -1.
         21   -1    0    0  501  503 -0.00000000000E+00 -0.00000000000E+00 -0.38325089114E+03  0.38325089114E+03  0.00000000000E+00 0.  1.
          6    1    1    2  501    0 -0.19621251543E+02 -0.12997359711E+03 -0.25304867542E+03  0.33352775235E+03  0.17300000000E+03 0.  1.
         -6    1    1    2    0  502  0.19621251543E+02  0.12997359711E+03  0.41222640092E+02  0.22114799460E+03  0.17300000000E+03 0. -1.
</event>
<event>
 4    1  0.5956049E+000  0.1000000E+03  0.7546771E-02  0.1280296E+00
         21   -1    0    0  503  502  0.00000000000E+00  0.00000000000E+00  0.17888409659E+04  0.17888409659E+04  0.00000000000E+00 0. -1.
         21   -1    0    0  501  503 -0.00000000000E+00 -0.00000000000E+00 -0.29755199879E+02  0.29755199879E+02  0.00000000000E+00 0.  1.
          6    1    1    2  501    0  0.89643117062E+02  0.48968382318E+02  0.43251364562E+03  0.47689710059E+03  0.17300000000E+03 0.  1.
         -6    1    1    2    0  502 -0.89643117062E+02 -0.48968382318E+02  0.13265721204E+04  0.13416990652E+04  0.17300000000E+03 0. -1.
</event>
<event>
 4    1  0.5956049E+000  0.1000000E+03  0.7546771E-02  0.1280296E+00
         21   -1    0    0  501  502  0.00000000000E+00  0.00000000000E+00  0.11324134897E+04  0.11324134897E+04  0.00000000000E+00 0.  1.
         21   -1    0    0  502  503 -0.00000000000E+00 -0.00000000000E+00 -0.30237340730E+03  0.30237340730E+03  0.00000000000E+00 0.  1.
          6    1    1    2  501    0  0.98466795062E+02 -0.11895665057E+03  0.10736759464E+04  0.10984331715E+04  0.17300000000E+03 0.  1.
         -6    1    1    2    0  503 -0.98466795062E+02  0.11895665057E+03 -0.24363586397E+03  0.33635372550E+03  0.17300000000E+03 0.  1.
</event>
<event>
 4    1  0.5956049E+000  0.1000000E+03  0.7546771E-02  0.1280296E+00
         21   -1    0    0  501  502  0.00000000000E+00  0.00000000000E+00  0.13621898150E+04  0.13621898150E+04  0.00000000000E+00 0.  1.
         21   -1    0    0  502  503 -0.00000000000E+00 -0.00000000000E+00 -0.39284284519E+02  0.39284284519E+02  0.00000000000E+00 0.  1.
          6    1    1    2  501    0  0.62772652679E+02  0.12512607229E+03  0.47018829855E+03  0.52019513260E+03  0.17300000000E+03 0.  1.
         -6    1    1    2    0  503 -0.62772652679E+02 -0.12512607229E+03  0.85271723188E+03  0.88127896687E+03  0.17300000000E+03 0.  1.
</event>
<event>
 4    1  0.5956049E+000  0.1000000E+03  0.7546771E-02  0.1280296E+00
         21   -1    0    0  501  502  0.00000000000E+00  0.00000000000E+00  0.10348387009E+03  0.10348387009E+03  0.00000000000E+00 0. -1.
         21   -1    0    0  502  503 -0.00000000000E+00 -0.00000000000E+00 -0.44745393667E+03  0.44745393667E+03  0.00000000000E+00 0. -1.
          6    1    1    2  501    0 -0.11446705790E+03  0.16184153694E+02 -0.10174400864E+03  0.23161493361E+03  0.17300000000E+03 0.  1.
         -6    1    1    2    0  503  0.11446705790E+03 -0.16184153694E+02 -0.24222605793E+03  0.31932287315E+03  0.17300000000E+03 0.  1.
</event>
<event>
 4    1  0.5956049E+000  0.1000000E+03  0.7546771E-02  0.1280296E+00
         21   -1    0    0  501  502  0.00000000000E+00  0.00000000000E+00  0.42781089505E+03  0.42781089505E+03  0.00000000000E+00 0. -1.
         21   -1    0    0  502  503 -0.00000000000E+00 -0.00000000000E+00 -0.38524526371E+03  0.38524526371E+03  0.00000000000E+00 0. -1.
          6    1    1    2  501    0 -0.10722380527E+03 -0.13569779891E+03  0.34572199735E+03  0.42351332505E+03  0.17300000000E+03 0.  1.
         -6    1    1    2    0  503  0.10722380527E+03  0.13569779891E+03 -0.30315636601E+03  0.38954283371E+03  0.17300000000E+03 0.  1.
</event>
<event>
 4    1  0.5956049E+000  0.1000000E+03  0.7546771E-02  0.1280296E+00
         21   -1    0    0  501  502  0.00000000000E+00  0.00000000000E+00  0.12666688644E+03  0.12666688644E+03  0.00000000000E+00 0. -1.
         21   -1    0    0  502  503 -0.00000000000E+00 -0.00000000000E+00 -0.10488712692E+04  0.10488712692E+04  0.00000000000E+00 0. -1.
          6    1    1    2  501    0 -0.17516988869E+03 -0.26699634663E+03 -0.51097987503E+03  0.62689789576E+03  0.17300000000E+03 0.  1.
         -6    1    1    2    0  503  0.17516988869E+03  0.26699634663E+03 -0.41122450774E+03  0.54864025990E+03  0.17300000000E+03 0.  1.
</event>
<event>
 4    1  0.5956049E+000  0.1000000E+03  0.7546771E-02  0.1280296E+00
         21   -1    0    0  503  502  0.00000000000E+00  0.00000000000E+00  0.49043906737E+02  0.49043906737E+02  0.00000000000E+00 0. -1.
         21   -1    0    0  501  503 -0.00000000000E+00 -0.00000000000E+00 -0.84897652218E+03  0.84897652218E+03  0.00000000000E+00 0.  1.
          6    1    1    2  501    0 -0.13864834102E+01 -0.44878839262E+02 -0.61659931778E+03  0.64198111439E+03  0.17300000000E+03 0.  1.
         -6    1    1    2    0  502  0.13864834102E+01  0.44878839262E+02 -0.18333329766E+03  0.25603931452E+03  0.17300000000E+03 0.  1.
</event>
<event>
 4    1  0.5956049E+000  0.1000000E+03  0.7546771E-02  0.1280296E+00
         21   -1    0    0  503  502  0.00000000000E+00  0.00000000000E+00  0.90297105577E+03  0.90297105577E+03  0.00000000000E+00 0. -1.
         21   -1    0    0  501  503 -0.00000000000E+00 -0.00000000000E+00 -0.69146562766E+02  0.69146562766E+02  0.00000000000E+00 0.  1.
          6    1    1    2  501    0  0.11799678013E+03 -0.12896040901E+03  0.50290545914E+03  0.55981865639E+03  0.17300000000E+03 0.  1.
         -6    1    1    2    0  502 -0.11799678013E+03  0.12896040901E+03  0.33091903386E+03  0.41229896214E+03  0.17300000000E+03 0.  1.
</event>
<event>
 4    1  0.5956049E+000  0.1000000E+03  0.7546771E-02  0.1280296E+00
         21   -1    0    0  501  502  0.00000000000E+00  0.00000000000E+00  0.24057202932E+03  0.24057202932E+03  0.00000000000E+00 0. -1.
         21   -1    0    0  502  503 -0.00000000000E+00 -0.00000000000E+00 -0.30419165775E+03  0.30419165775E+03  0.00000000000E+00 0.  1.
          6    1    1    2  501    0 -0.94053404324E+02  0.10794918212E+03  0.12006687258E+03  0.25464509160E+03  0.17300000000E+03 0. -1.
         -6    1    1    2    0  503  0.94053404324E+02 -0.10794918212E+03 -0.18368650101E+03  0.29011859547E+03  0.17300000000E+03 0.  1.
</event>
<event>
 4    1  0.5956049E+000  0.1000000E+03  0.7546771E-02  0.1280296E+00
         21   -1    0    0  501  502  0.00000000000E+00  0.00000000000E+00  0.69286288719E+02  0.69286288719E+02  0.00000000000E+00 0. -1.
         21   -1    0    0  502  503 -0.00000000000E+00 -0.00000000000E+00 -0.13567668792E+04  0.13567668792E+04  0.00000000000E+00 0.  1.
          6    1    1    2  501    0 -0.13189140682E+03  0.21320469583E+03 -0.72512715273E+03  0.78650490980E+03  0.17300000000E+03 0. -1.
         -6    1    1    2    0  503  0.13189140682E+03 -0.21320469583E+03 -0.56235343779E+03  0.63954825816E+03  0.17300000000E+03 0.  1.
</event>
<event>
 4    1  0.5956049E+000  0.1000000E+03  0.7546771E-02  0.1280296E+00
         21   -1    0    0  503  502  0.00000000000E+00  0.00000000000E+00  0.14267991791E+04  0.14267991791E+04  0.00000000000E+00 0. -1.
         21   -1    0    0  501  503 -0.00000000000E+00 -0.00000000000E+00 -0.43051143580E+02  0.43051143580E+02  0.00000000000E+00 0. -1.
          6    1    1    2  501    0  0.11757773739E+03 -0.21365206817E+02  0.30280455423E+03  0.36864697809E+03  0.17300000000E+03 0. -1.
         -6    1    1    2    0  502 -0.11757773739E+03  0.21365206817E+02  0.10809434812E+04  0.11012033445E+04  0.17300000000E+03 0. -1.
</event>
<event>
 4    1  0.5956049E+000  0.1000000E+03  0.7546771E-02  0.1280296E+00
         21   -1    0    0  503  502  0.00000000000E+00  0.00000000000E+00  0.28597199066E+02  0.28597199066E+02  0.00000000000E+00 0. -1.
         21   -1    0    0  501  503 -0.00000000000E+00 -0.00000000000E+00 -0.10842847087E+04  0.10842847087E+04  0.00000000000E+00 0. -1.
          6    1    1    2  501    0  0.20628337249E+02 -0.24381254257E+02 -0.55201959728E+03  0.57937432601E+03  0.17300000000E+03 0. -1.
         -6    1    1    2    0  502 -0.20628337249E+02  0.24381254257E+02 -0.50366791233E+03  0.53350758173E+03  0.17300000000E+03 0. -1.
</event>
<event>
 4    1  0.5956049E+000  0.1000000E+03  0.7546771E-02  0.1280296E+00
         21   -1    0    0  503  502  0.00000000000E+00  0.00000000000E+00  0.10105669333E+04  0.10105669333E+04  0.00000000000E+00 0.  1.
         21   -1    0    0  501  503 -0.00000000000E+00 -0.00000000000E+00 -0.46434650423E+02  0.46434650423E+02  0.00000000000E+00 0.  1.
          6    1    1    2  501    0  0.39189557727E+02  0.40195713756E+02  0.19499770832E+03  0.26665450135E+03  0.17300000000E+03 0.  1.
         -6    1    1    2    0  502 -0.39189557727E+02 -0.40195713756E+02  0.76913457459E+03  0.79034708240E+03  0.17300000000E+03 0.  1.
</event>
<event>
 4    1  0.5956049E+000  0.1000000E+03  0.7546771E-02  0.1280296E+00
         21   -1    0    0  503  502  0.00000000000E+00  0.00000000000E+00  0.66165340136E+02  0.66165340136E+02  0.00000000000E+00 0.  1.
         21   -1    0    0  501  503 -0.00000000000E+00 -0.00000000000E+00 -0.55929491364E+03  0.55929491364E+03  0.00000000000E+00 0.  1.
          6    1    1    2  501    0 -0.78845791917E+02 -0.16256915284E+02 -0.28625233096E+03  0.34402084701E+03  0.17300000000E+03 0.  1.
         -6    1    1    2    0  502  0.78845791917E+02  0.16256915284E+02 -0.20687724254E+03  0.28143940676E+03  0.17300000000E+03 0.  1.
</event>
<event>
 4    1  0.5956049E+000  0.1000000E+03  0.7546771E-02  0.1280296E+00
         21   -1    0    0  501  502  0.00000000000E+00  0.00000000000E+00  0.44658179087E+02  0.44658179087E+02  0.00000000000E+00 0.  1.
         21   -1    0    0  502  503 -0.00000000000E+00 -0.00000000000E+00 -0.81749025152E+03  0.81749025152E+03  0.00000000000E+00 0.  1.
          6    1    1    2  501    0 -0.61521528040E+02  0.52189053186E+02 -0.40529610003E+03  0.44799835311E+03  0.17300000000E+03 0.  1.
         -6    1    1    2    0  503  0.61521528040E+02 -0.52189053186E+02 -0.36753597240E+03  0.41415007750E+03  0.17300000000E+03 0.  1.
</event>
<event>
 4    1  0.5956049E+000  0.1000000E+03  0.7546771E-02  0.1280296E+00
         21   -1    0    0  501  502  0.00000000000E+00  0.00000000000E+00  0.11990479584E+03  0.11990479584E+03  0.00000000000E+00 0.  1.
         21   -1    0    0  502  503 -0.00000000000E+00 -0.00000000000E+00 -0.52369264504E+03  0.52369264504E+03  0.00000000000E+00 0.  1.
          6    1    1    2  501    0 -0.92621776132E+01  0.15707740944E+03 -0.86280418084E+02  0.24926373791E+03  0.17300000000E+03 0.  1.
         -6    1    1    2    0  503  0.92621776132E+01 -0.15707740944E+03 -0.31750743111E+03  0.39433370297E+03  0.17300000000E+03 0.  1.
</event>
<event>
 4    1  0.5956049E+000  0.1000000E+03  0.7546771E-02  0.1280296E+00
         21   -1    0    0  501  502  0.00000000000E+00  0.00000000000E+00  0.27893633261E+04  0.27893633261E+04  0.00000000000E+00 0.  1.
         21   -1    0    0  502  503 -0.00000000000E+00 -0.00000000000E+00 -0.36911925983E+02  0.36911925983E+02  0.00000000000E+00 0.  1.
          6    1    1    2  501    0  0.58118643730E+02 -0.85831424126E+02  0.24753508360E+04  0.24835530136E+04  0.17300000000E+03 0.  1.
         -6    1    1    2    0  503 -0.58118643730E+02  0.85831424126E+02  0.27710056416E+03  0.34272223852E+03  0.17300000000E+03 0.  1.
</event>
<event>
 4    1  0.5956049E+000  0.1000000E+03  0.7546771E-02  0.1280296E+00
         21   -1    0    0  501  502  0.00000000000E+00  0.00000000000E+00  0.90571932658E+02  0.90571932658E+02  0.00000000000E+00 0.  1.
         21   -1    0    0  502  503 -0.00000000000E+00 -0.00000000000E+00 -0.84040501389E+03  0.84040501389E+03  0.00000000000E+00 0.  1.
          6    1    1    2  501    0  0.14746913613E+03 -0.14836293264E+03 -0.29175599145E+03  0.39850880095E+03  0.17300000000E+03 0.  1.
         -6    1    1    2    0  503 -0.14746913613E+03  0.14836293264E+03 -0.45807708979E+03  0.53246814560E+03  0.17300000000E+03 0.  1.
</event>
<event>
 4    1  0.5956049E+000  0.1000000E+03  0.7546771E-02  0.1280296E+00
         21   -1    0    0  503  502  0.00000000000E+00  0.00000000000E+00  0.75356139939E+02  0.75356139939E+02  0.00000000000E+00 0. -1.
         21   -1    0    0  501  503 -0.00000000000E+00 -0.00000000000E+00 -0.93930957310E+03  0.93930957310E+03  0.00000000000E+00 0. -1.
          6    1    1    2  501    0 -0.12181893885E+03 -0.10274687770E+03 -0.66905482847E+03  0.70919682616E+03  0.17300000000E+03 0. -1.
         -6    1    1    2    0  502  0.12181893885E+03  0.10274687770E+03 -0.19489860469E+03  0.30546888688E+03  0.17300000000E+03 0. -1.
</event>
<event>
 4    1  0.5956049E+000  0.1000000E+03  0.7546771E-02  0.1280296E+00
         21   -1    0    0  501  502  0.00000000000E+00  0.00000000000E+00  0.13530511271E+04  0.13530511271E+04  0.00000000000E+00 0. -1.
         21   -1    0    0  502  503 -0.00000000000E+00 -0.00000000000E+00 -0.31446275136E+02  0.31446275136E+02  0.00000000000E+00 0.  1.
          6    1    1    2  501    0 -0.93598116615E+01  0.65465165722E+02  0.96555358922E+03  0.98315615629E+03  0.17300000000E+03 0.  1.
         -6    1    1    2    0  503  0.93598116615E+01 -0.65465165722E+02  0.35605126277E+03  0.40134124597E+03  0.17300000000E+03 0. -1.
</event>
<event>
 4    1  0.5956049E+000  0.1000000E+03  0.7546771E-02  0.1280296E+00
         21   -1    0    0  501  502  0.00000000000E+00  0.00000000000E+00  0.65402629547E+03  0.65402629547E+03  0.00000000000E+00 0. -1.
         21   -1    0    0  502  503 -0.00000000000E+00 -0.00000000000E+00 -0.27557486727E+03  0.27557486727E+03  0.00000000000E+00 0.  1.
          6    1    1    2  501    0 -0.67133918980E+02 -0.17654501979E+02  0.60682448029E+03  0.63480988839E+03  0.17300000000E+03 0.  1.
         -6    1    1    2    0  503  0.67133918980E+02  0.17654501979E+02 -0.22837305209E+03  0.29479127436E+03  0.17300000000E+03 0. -1.
</event>
<event>
 4    1  0.5956049E+000  0.1000000E+03  0.7546771E-02  0.1280296E+00
         21   -1    0    0  503  502  0.00000000000E+00  0.00000000000E+00  0.57979536089E+03  0.57979536089E+03  0.00000000000E+00 0. -1.
         21   -1    0    0  501  503 -0.00000000000E+00 -0.00000000000E+00 -0.86421927223E+02  0.86421927223E+02  0.00000000000E+00 0. -1.
          6    1    1    2  501    0  0.10242124214E+03 -0.69856986555E+02  0.14350201439E+03  0.25669424915E+03  0.17300000000E+03 0. -1.
         -6    1    1    2    0  502 -0.10242124214E+03  0.69856986555E+02  0.34987141928E+03  0.40952303897E+03  0.17300000000E+03 0. -1.
</event>
<event>
 4    1  0.5956049E+000  0.1000000E+03  0.7546771E-02  0.1280296E+00
         21   -1    0    0  503  502  0.00000000000E+00  0.00000000000E+00  0.50357686805E+03  0.50357686805E+03  0.00000000000E+00 0. -1.
         21   -1    0    0  501  503 -0.00000000000E+00 -0.00000000000E+00 -0.18099574581E+03  0.18099574581E+03  0.00000000000E+00 0. -1.
          6    1    1    2  501    0 -0.14961848224E+03 -0.15903643225E+03  0.29373911972E+02  0.28012515724E+03  0.17300000000E+03 0. -1.
         -6    1    1    2    0  502  0.14961848224E+03  0.15903643225E+03  0.29320721027E+03  0.40444745662E+03  0.17300000000E+03 0. -1.
</event>
<event>
 4    1  0.5956049E+000  0.1000000E+03  0.7546771E-02  0.1280296E+00
         21   -1    0    0  503  502  0.00000000000E+00  0.00000000000E+00  0.14509763603E+03  0.14509763603E+03  0.00000000000E+00 0. -1.
         21   -1    0    0  501  503 -0.00000000000E+00 -0.00000000000E+00 -0.24892345926E+03  0.24892345926E+03  0.00000000000E+00 0. -1.
          6    1    1    2  501    0 -0.51244710855E+02 -0.53832173991E+02 -0.78650936924E+02  0.20405610313E+03  0.17300000000E+03 0. -1.
         -6    1    1    2    0  502  0.51244710855E+02  0.53832173991E+02 -0.25174886304E+02  0.18996499216E+03  0.17300000000E+03 0. -1.
</event>
<event>
 4    1  0.5956049E+000  0.1000000E+03  0.7546771E-02  0.1280296E+00
         21   -1    0    0  501  502  0.00000000000E+00  0.00000000000E+00  0.93154192087E+03  0.93154192087E+03  0.00000000000E+00 0. -1.
         21   -1    0    0  502  503 -0.00000000000E+00 -0.00000000000E+00 -0.50958909783E+02  0.50958909783E+02  0.00000000000E+00 0. -1.
          6    1    1    2  501    0  0.54965004483E+02  0.57147693425E+02  0.67948638356E+03  0.70563287623E+03  0.17300000000E+03 0. -1.
         -6    1    1    2    0  503 -0.54965004483E+02 -0.57147693425E+02  0.20109662753E+03  0.27686795442E+03  0.17300000000E+03 0. -1.
</event>
<event>
 4    1  0.5956049E+000  0.1000000E+03  0.7546771E-02  0.1280296E+00
         21   -1    0    0  501  502  0.00000000000E+00  0.00000000000E+00  0.20662632495E+03  0.20662632495E+03  0.00000000000E+00 0. -1.
         21   -1    0    0  502  503 -0.00000000000E+00 -0.00000000000E+00 -0.67895002921E+03  0.67895002921E+03  0.00000000000E+00 0. -1.
          6    1    1    2  501    0 -0.12617606603E+03 -0.80506346616E+02  0.11444681176E+03  0.25579043025E+03  0.17300000000E+03 0. -1.
         -6    1    1    2    0  503  0.12617606603E+03  0.80506346616E+02 -0.58677051602E+03  0.62978592391E+03  0.17300000000E+03 0. -1.
</event>
<event>
 4    1  0.5956049E+000  0.1000000E+03  0.7546771E-02  0.1280296E+00
         21   -1    0    0  501  502  0.00000000000E+00  0.00000000000E+00  0.89544899536E+02  0.89544899536E+02  0.00000000000E+00 0. -1.
         21   -1    0    0  502  503 -0.00000000000E+00 -0.00000000000E+00 -0.42398176724E+03  0.42398176724E+03  0.00000000000E+00 0. -1.
          6    1    1    2  501    0  0.79278653215E+02  0.41795846219E+02 -0.16445201958E+03  0.25496169195E+03  0.17300000000E+03 0. -1.
         -6    1    1    2    0  503 -0.79278653215E+02 -0.41795846219E+02 -0.16998484813E+03  0.25856497483E+03  0.17300000000E+03 0. -1.
</event>
<event>
 4    1  0.5956049E+000  0.1000000E+03  0.7546771E-02  0.1280296E+00
         21   -1    0    0  501  502  0.00000000000E+00  0.00000000000E+00  0.25802223481E+03  0.25802223481E+03  0.00000000000E+00 0. -1.
         21   -1    0    0  502  503 -0.00000000000E+00 -0.00000000000E+00 -0.24156105963E+03  0.24156105963E+03  0.00000000000E+00 0. -1.
          6    1    1    2  501    0  0.41969437644E+02  0.16416714229E+03  0.68982931241E+02  0.25179342547E+03  0.17300000000E+03 0. -1.
         -6    1    1    2    0  503 -0.41969437644E+02 -0.16416714229E+03 -0.52521756059E+02  0.24778986897E+03  0.17300000000E+03 0. -1.
</event>
<event>
 4    1  0.5956049E+000  0.1000000E+03  0.7546771E-02  0.1280296E+00
         21   -1    0    0  503  502  0.00000000000E+00  0.00000000000E+00  0.34051374491E+03  0.34051374491E+03  0.00000000000E+00 0. -1.
         21   -1    0    0  501  503 -0.00000000000E+00 -0.00000000000E+00 -0.53653163182E+03  0.53653163182E+03  0.00000000000E+00 0. -1.
          6    1    1    2  501    0 -0.45188763272E+01 -0.29912241816E+03 -0.35607771077E+03  0.49620054151E+03  0.17300000000E+03 0. -1.
         -6    1    1    2    0  502  0.45188763272E+01  0.29912241816E+03  0.16005982386E+03  0.38084483521E+03  0.17300000000E+03 0. -1.
</event>
<event>
 4    1  0.5956049E+000  0.1000000E+03  0.7546771E-02  0.1280296E+00
         21   -1    0    0  503  502  0.00000000000E+00  0.00000000000E+00  0.51374725853E+03  0.51374725853E+03  0.00000000000E+00 0. -1.
         21   -1    0    0  501  503 -0.00000000000E+00 -0.00000000000E+00 -0.31973084229E+03  0.31973084229E+03  0.00000000000E+00 0. -1.
          6    1    1    2  501    0  0.12724367859E+03  0.15568345384E+03 -0.21808437726E+03  0.34339203128E+03  0.17300000000E+03 0. -1.
         -6    1    1    2    0  502 -0.12724367859E+03 -0.15568345384E+03  0.41210079351E+03  0.49008606953E+03  0.17300000000E+03 0. -1.
</event>
<event>
 4    1  0.5956049E+000  0.1000000E+03  0.7546771E-02  0.1280296E+00
         21   -1    0    0  501  502  0.00000000000E+00  0.00000000000E+00  0.19468584854E+03  0.19468584854E+03  0.00000000000E+00 0. -1.
         21   -1    0    0  502  503 -0.00000000000E+00 -0.00000000000E+00 -0.30960363201E+03  0.30960363201E+03  0.00000000000E+00 0. -1.
          6    1    1    2  501    0  0.16516825712E+03 -0.39855328599E+02 -0.96935099127E+02  0.26114060163E+03  0.17300000000E+03 0. -1.
         -6    1    1    2    0  503 -0.16516825712E+03  0.39855328599E+02 -0.17982684345E+02  0.24314887891E+03  0.17300000000E+03 0. -1.
</event>
<event>
 4    1  0.5956049E+000  0.1000000E+03  0.7546771E-02  0.1280296E+00
         21   -1    0    0  501  502  0.00000000000E+00  0.00000000000E+00  0.18337374477E+03  0.18337374477E+03  0.00000000000E+00 0. -1.
         21   -1    0    0  502  503 -0.00000000000E+00 -0.00000000000E+00 -0.48258901665E+03  0.48258901665E+03  0.00000000000E+00 0. -1.
          6    1    1    2  501    0  0.15319775725E+03 -0.39034000143E+02  0.55485409745E+02  0.24083362865E+03  0.17300000000E+03 0. -1.
         -6    1    1    2    0  503 -0.15319775725E+03  0.39034000143E+02 -0.35470068163E+03  0.42512913278E+03  0.17300000000E+03 0. -1.
</event>
<event>
 4    1  0.5956049E+000  0.1000000E+03  0.7546771E-02  0.1280296E+00
         21   -1    0    0  503  502  0.00000000000E+00  0.00000000000E+00  0.42422584594E+02  0.42422584594E+02  0.00000000000E+00 0.  1.
         21   -1    0    0  501  503 -0.00000000000E+00 -0.00000000000E+00 -0.10895193313E+04  0.10895193313E+04  0.00000000000E+00 0. -1.
          6    1    1    2  501    0  0.84437280110E+02  0.92015137987E+02 -0.59293945815E+03  0.63016080561E+03  0.17300000000E+03 0.  1.
         -6    1    1    2    0  502 -0.84437280110E+02 -0.92015137987E+02 -0.45415728854E+03  0.50178111027E+03  0.17300000000E+03 0.  1.
</event>
<event>
 4    1  0.5956049E+000  0.1000000E+03  0.7546771E-02  0.1280296E+00
         21   -1    0    0  503  502  0.00000000000E+00  0.00000000000E+00  0.56001239589E+03  0.56001239589E+03  0.00000000000E+00 0.  1.
         21   -1    0    0  501  503 -0.00000000000E+00 -0.00000000000E+00 -0.84753663595E+02  0.84753663595E+02  0.00000000000E+00 0. -1.
          6    1    1    2  501    0 -0.29915630921E+02 -0.40517635836E+02  0.56410572471E+02  0.18880618759E+03  0.17300000000E+03 0.  1.
         -6    1    1    2    0  502  0.29915630921E+02  0.40517635836E+02  0.41884815983E+03  0.45595987189E+03  0.17300000000E+03 0.  1.
</event>
<event>
 4    1  0.5956049E+000  0.1000000E+03  0.7546771E-02  0.1280296E+00
         21   -1    0    0  503  502  0.00000000000E+00  0.00000000000E+00  0.39690378982E+03  0.39690378982E+03  0.00000000000E+00 0.  1.
         21   -1    0    0  501  503 -0.00000000000E+00 -0.00000000000E+00 -0.16624189835E+03  0.16624189835E+03  0.00000000000E+00 0. -1.
          6    1    1    2  501    0  0.96511289829E+02 -0.11515295888E+03 -0.11930594362E+02  0.22944710084E+03  0.17300000000E+03 0.  1.
         -6    1    1    2    0  502 -0.96511289829E+02  0.11515295888E+03  0.24259248583E+03  0.33369858733E+03  0.17300000000E+03 0.  1.
</event>
<event>
 4    1  0.5956049E+000  0.1000000E+03  0.7546771E-02  0.1280296E+00
         21   -1    0    0  503  502  0.00000000000E+00  0.00000000000E+00  0.11369649107E+03  0.11369649107E+03  0.00000000000E+00 0. -1.
         21   -1    0    0  501  503 -0.00000000000E+00 -0.00000000000E+00 -0.32700068476E+03  0.32700068476E+03  0.00000000000E+00 0.  1.
          6    1    1    2  501    0 -0.94836734892E+01  0.64021234814E+02 -0.16987963413E+03  0.25095168591E+03  0.17300000000E+03 0.  1.
         -6    1    1    2    0  502  0.94836734892E+01 -0.64021234814E+02 -0.43424559564E+02  0.18974548992E+03  0.17300000000E+03 0. -1.
</event>
<event>
 4    1  0.5956049E+000  0.1000000E+03  0.7546771E-02  0.1280296E+00
         21   -1    0    0  501  502  0.00000000000E+00  0.00000000000E+00  0.59589162577E+03  0.59589162577E+03  0.00000000000E+00 0. -1.
         21   -1    0    0  502  503 -0.00000000000E+00 -0.00000000000E+00 -0.31505688706E+03  0.31505688706E+03  0.00000000000E+00 0.  1.
          6    1    1    2  501    0  0.31491351167E+03  0.40747518259E+02  0.39134383696E+03  0.53283194236E+03  0.17300000000E+03 0. -1.
         -6    1    1    2    0  503 -0.31491351167E+03 -0.40747518259E+02 -0.11050909824E+03  0.37811657048E+03  0.17300000000E+03 0.  1.
</event>
<event>
 4    1  0.5956049E+000  0.1000000E+03  0.7546771E-02  0.1280296E+00
         21   -1    0    0  501  502  0.00000000000E+00  0.00000000000E+00  0.44786478135E+02  0.44786478135E+02  0.00000000000E+00 0. -1.
         21   -1    0    0  502  503 -0.00000000000E+00 -0.00000000000E+00 -0.78875492083E+03  0.78875492083E+03  0.00000000000E+00 0.  1.
          6    1    1    2  501    0 -0.69116398568E+02 -0.24815392537E+02 -0.36773345716E+03  0.41297672546E+03  0.17300000000E+03 0. -1.
         -6    1    1    2    0  503  0.69116398568E+02  0.24815392537E+02 -0.37623498553E+03  0.42056467350E+03  0.17300000000E+03 0.  1.
</event>
<event>
 4    1  0.5956049E+000  0.1000000E+03  0.7546771E-02  0.1280296E+00
         21   -1    0    0  503  502  0.00000000000E+00  0.00000000000E+00  0.67464515972E+02  0.67464515972E+02  0.00000000000E+00 0.  1.
         21   -1    0    0  501  503 -0.00000000000E+00 -0.00000000000E+00 -0.73032896168E+03  0.73032896168E+03  0.00000000000E+00 0.  1.
          6    1    1    2  501    0 -0.85777355249E+02  0.83980168376E+01 -0.52758410210E+03  0.56187388812E+03  0.17300000000E+03 0.  1.
         -6    1    1    2    0  502  0.85777355249E+02 -0.83980168376E+01 -0.13528034361E+03  0.23591958954E+03  0.17300000000E+03 0.  1.
</event>
<event>
 4    1  0.5956049E+000  0.1000000E+03  0.7546771E-02  0.1280296E+00
         21   -1    0    0  501  502  0.00000000000E+00  0.00000000000E+00  0.70151956123E+02  0.70151956123E+02  0.00000000000E+00 0.  1.
         21   -1    0    0  502  503 -0.00000000000E+00 -0.00000000000E+00 -0.44976054015E+03  0.44976054015E+03  0.00000000000E+00 0. -1.
          6    1    1    2  501    0  0.27661492331E+02  0.21825644981E+02 -0.16123568426E+03  0.23909718278E+03  0.17300000000E+03 0.  1.
         -6    1    1    2    0  503 -0.27661492331E+02 -0.21825644981E+02 -0.21837289977E+03  0.28081531349E+03  0.17300000000E+03 0. -1.
</event>
<event>
 4    1  0.5956049E+000  0.1000000E+03  0.7546771E-02  0.1280296E+00
         21   -1    0    0  501  502  0.00000000000E+00  0.00000000000E+00  0.25676069051E+03  0.25676069051E+03  0.00000000000E+00 0.  1.
         21   -1    0    0  502  503 -0.00000000000E+00 -0.00000000000E+00 -0.72769553339E+03  0.72769553339E+03  0.00000000000E+00 0.  1.
          6    1    1    2  501    0 -0.19859619594E+03 -0.84039985316E+02  0.14291794058E+03  0.31121970682E+03  0.17300000000E+03 0.  1.
         -6    1    1    2    0  503  0.19859619594E+03  0.84039985316E+02 -0.61385278346E+03  0.67323651709E+03  0.17300000000E+03 0.  1.
</event>
<event>
 4    1  0.5956049E+000  0.1000000E+03  0.7546771E-02  0.1280296E+00
         21   -1    0    0  501  502  0.00000000000E+00  0.00000000000E+00  0.42764063876E+02  0.42764063876E+02  0.00000000000E+00 0.  1.
         21   -1    0    0  502  503 -0.00000000000E+00 -0.00000000000E+00 -0.25671366756E+04  0.25671366756E+04  0.00000000000E+00 0.  1.
          6    1    1    2  501    0 -0.85239280251E+02 -0.15506360607E+03 -0.39445016911E+03  0.46565050493E+03  0.17300000000E+03 0.  1.
         -6    1    1    2    0  503  0.85239280251E+02  0.15506360607E+03 -0.21299224426E+04  0.21442502345E+04  0.17300000000E+03 0.  1.
</event>
<event>
 4    1  0.5956049E+000  0.1000000E+03  0.7546771E-02  0.1280296E+00
         21   -1    0    0  501  502  0.00000000000E+00  0.00000000000E+00  0.44940192348E+03  0.44940192348E+03  0.00000000000E+00 0. -1.
         21   -1    0    0  502  503 -0.00000000000E+00 -0.00000000000E+00 -0.97608135796E+02  0.97608135796E+02  0.00000000000E+00 0. -1.
          6    1    1    2  501    0  0.23870338930E+02 -0.57970111925E+02  0.30652425725E+03  0.35751426159E+03  0.17300000000E+03 0. -1.
         -6    1    1    2    0  503 -0.23870338930E+02  0.57970111925E+02  0.45269530443E+02  0.18949579769E+03  0.17300000000E+03 0. -1.
</event>
<event>
 4    1  0.5956049E+000  0.1000000E+03  0.7546771E-02  0.1280296E+00
         21   -1    0    0  501  502  0.00000000000E+00  0.00000000000E+00  0.16848640133E+03  0.16848640133E+03  0.00000000000E+00 0. -1.
         21   -1    0    0  502  503 -0.00000000000E+00 -0.00000000000E+00 -0.51236924406E+03  0.51236924406E+03  0.00000000000E+00 0. -1.
          6    1    1    2  501    0  0.50750270197E+02  0.25722864832E+02  0.95203942484E+02  0.20549950454E+03  0.17300000000E+03 0. -1.
         -6    1    1    2    0  503 -0.50750270197E+02 -0.25722864832E+02 -0.43908678521E+03  0.47535614086E+03  0.17300000000E+03 0. -1.
</event>
<event>
 4    1  0.5956049E+000  0.1000000E+03  0.7546771E-02  0.1280296E+00
         21   -1    0    0  501  502  0.00000000000E+00  0.00000000000E+00  0.11746032276E+03  0.11746032276E+03  0.00000000000E+00 0.  1.
         21   -1    0    0  502  503 -0.00000000000E+00 -0.00000000000E+00 -0.40156061914E+03  0.40156061914E+03  0.00000000000E+00 0.  1.
          6    1    1    2  501    0  0.28369677305E+02 -0.59805612654E+01  0.10962375836E+02  0.17575488439E+03  0.17300000000E+03 0.  1.
         -6    1    1    2    0  503 -0.28369677305E+02  0.59805612654E+01 -0.29506267222E+03  0.34326605751E+03  0.17300000000E+03 0.  1.
</event>
<event>
 4    1  0.5956049E+000  0.1000000E+03  0.7546771E-02  0.1280296E+00
         21   -1    0    0  501  502  0.00000000000E+00  0.00000000000E+00  0.47371864536E+02  0.47371864536E+02  0.00000000000E+00 0.  1.
         21   -1    0    0  502  503 -0.00000000000E+00 -0.00000000000E+00 -0.34962355774E+04  0.34962355774E+04  0.00000000000E+00 0.  1.
          6    1    1    2  501    0 -0.12110881382E+02  0.54767090032E+02 -0.13938624494E+03  0.22913671220E+03  0.17300000000E+03 0.  1.
         -6    1    1    2    0  503  0.12110881382E+02 -0.54767090032E+02 -0.33094774680E+04  0.33144707298E+04  0.17300000000E+03 0.  1.
</event>
<event>
 4    1  0.5956049E+000  0.1000000E+03  0.7546771E-02  0.1280296E+00
         21   -1    0    0  501  502  0.00000000000E+00  0.00000000000E+00  0.19105501512E+03  0.19105501512E+03  0.00000000000E+00 0.  1.
         21   -1    0    0  502  503 -0.00000000000E+00 -0.00000000000E+00 -0.47396020077E+03  0.47396020077E+03  0.00000000000E+00 0.  1.
          6    1    1    2  501    0  0.89094025807E+00  0.39021927868E+02  0.12717155672E+03  0.21823177923E+03  0.17300000000E+03 0.  1.
         -6    1    1    2    0  503 -0.89094025807E+00 -0.39021927868E+02 -0.41007674237E+03  0.44678343665E+03  0.17300000000E+03 0.  1.
</event>
<event>
 4    1  0.5956049E+000  0.1000000E+03  0.7546771E-02  0.1280296E+00
         21   -1    0    0  501  502  0.00000000000E+00  0.00000000000E+00  0.23600289667E+04  0.23600289667E+04  0.00000000000E+00 0.  1.
         21   -1    0    0  502  503 -0.00000000000E+00 -0.00000000000E+00 -0.18454528689E+03  0.18454528689E+03  0.00000000000E+00 0.  1.
          6    1    1    2  501    0 -0.51665144040E+03 -0.35038013350E+03  0.84458498526E+03  0.10644001814E+04  0.17300000000E+03 0.  1.
         -6    1    1    2    0  503  0.51665144040E+03  0.35038013350E+03  0.13308986945E+04  0.14801740722E+04  0.17300000000E+03 0.  1.
</event>
<event>
 4    1  0.5956049E+000  0.1000000E+03  0.7546771E-02  0.1280296E+00
         21   -1    0    0  501  502  0.00000000000E+00  0.00000000000E+00  0.10550702235E+04  0.10550702235E+04  0.00000000000E+00 0.  1.
         21   -1    0    0  502  503 -0.00000000000E+00 -0.00000000000E+00 -0.71424446673E+02  0.71424446673E+02  0.00000000000E+00 0.  1.
          6    1    1    2  501    0 -0.14911175997E+02 -0.10693575003E+03  0.86888103206E+03  0.89249137008E+03  0.17300000000E+03 0.  1.
         -6    1    1    2    0  503  0.14911175997E+02  0.10693575003E+03  0.11476474474E+03  0.23400330006E+03  0.17300000000E+03 0.  1.
</event>
<event>
 4    1  0.5956049E+000  0.1000000E+03  0.7546771E-02  0.1280296E+00
         21   -1    0    0  501  502  0.00000000000E+00  0.00000000000E+00  0.64815971052E+03  0.64815971052E+03  0.00000000000E+00 0.  1.
         21   -1    0    0  502  503 -0.00000000000E+00 -0.00000000000E+00 -0.67140601081E+02  0.67140601081E+02  0.00000000000E+00 0.  1.
          6    1    1    2  501    0 -0.58889706507E+02 -0.75684085096E+02  0.40413961733E+03  0.44994878438E+03  0.17300000000E+03 0.  1.
         -6    1    1    2    0  503  0.58889706507E+02  0.75684085096E+02  0.17687949210E+03  0.26535152722E+03  0.17300000000E+03 0.  1.
</event>
<event>
 4    1  0.5956049E+000  0.1000000E+03  0.7546771E-02  0.1280296E+00
         21   -1    0    0  503  502  0.00000000000E+00  0.00000000000E+00  0.17957049197E+04  0.17957049197E+04  0.00000000000E+00 0.  1.
         21   -1    0    0  501  503 -0.00000000000E+00 -0.00000000000E+00 -0.20813531963E+02  0.20813531963E+02  0.00000000000E+00 0. -1.
          6    1    1    2  501    0  0.84096817775E+02  0.18631711883E+02  0.91165160271E+03  0.93191043571E+03  0.17300000000E+03 0. -1.
         -6    1    1    2    0  502 -0.84096817775E+02 -0.18631711883E+02  0.86323978504E+03  0.88460801598E+03  0.17300000000E+03 0. -1.
</event>
<event>
 4    1  0.5956049E+000  0.1000000E+03  0.7546771E-02  0.1280296E+00
         21   -1    0    0  501  502  0.00000000000E+00  0.00000000000E+00  0.24271555652E+03  0.24271555652E+03  0.00000000000E+00 0. -1.
         21   -1    0    0  502  503 -0.00000000000E+00 -0.00000000000E+00 -0.21513096153E+03  0.21513096153E+03  0.00000000000E+00 0. -1.
          6    1    1    2  501    0 -0.46987726145E+02  0.40626692602E+02  0.14979006483E+03  0.23711692914E+03  0.17300000000E+03 0. -1.
         -6    1    1    2    0  503  0.46987726145E+02 -0.40626692602E+02 -0.12220546985E+03  0.22072958891E+03  0.17300000000E+03 0. -1.
</event>
<event>
 4    1  0.5956049E+000  0.1000000E+03  0.7546771E-02  0.1280296E+00
         21   -1    0    0  501  502  0.00000000000E+00  0.00000000000E+00  0.11444572584E+04  0.11444572584E+04  0.00000000000E+00 0. -1.
         21   -1    0    0  502  503 -0.00000000000E+00 -0.00000000000E+00 -0.41604188816E+02  0.41604188816E+02  0.00000000000E+00 0. -1.
          6    1    1    2  501    0  0.84999993819E+01  0.12302338920E+03  0.68672038859E+03  0.71883301008E+03  0.17300000000E+03 0. -1.
         -6    1    1    2    0  503 -0.84999993819E+01 -0.12302338920E+03  0.41613268104E+03  0.46722843718E+03  0.17300000000E+03 0. -1.
</event>
<event>
 4    1  0.5956049E+000  0.1000000E+03  0.7546771E-02  0.1280296E+00
         21   -1    0    0  501  502  0.00000000000E+00  0.00000000000E+00  0.50334169033E+03  0.50334169033E+03  0.00000000000E+00 0. -1.
         21   -1    0    0  502  503 -0.00000000000E+00 -0.00000000000E+00 -0.23788009593E+03  0.23788009593E+03  0.00000000000E+00 0. -1.
          6    1    1    2  501    0 -0.23392502411E+02 -0.11345341968E+02  0.45248755783E+03  0.48512876223E+03  0.17300000000E+03 0. -1.
         -6    1    1    2    0  503  0.23392502411E+02  0.11345341968E+02 -0.18702596344E+03  0.25609302402E+03  0.17300000000E+03 0. -1.
</event>
<event>
 4    1  0.5956049E+000  0.1000000E+03  0.7546771E-02  0.1280296E+00
         21   -1    0    0  501  502  0.00000000000E+00  0.00000000000E+00  0.19479037918E+03  0.19479037918E+03  0.00000000000E+00 0. -1.
         21   -1    0    0  502  503 -0.00000000000E+00 -0.00000000000E+00 -0.15510329445E+03  0.15510329445E+03  0.00000000000E+00 0. -1.
          6    1    1    2  501    0  0.15423012930E+01  0.16611964325E+02  0.22159244712E+02  0.17520949797E+03  0.17300000000E+03 0. -1.
         -6    1    1    2    0  503 -0.15423012930E+01 -0.16611964325E+02  0.17527840010E+02  0.17468417566E+03  0.17300000000E+03 0. -1.
</event>
<event>
 4    1  0.5956049E+000  0.1000000E+03  0.7546771E-02  0.1280296E+00
         21   -1    0    0  501  502  0.00000000000E+00  0.00000000000E+00  0.54067834610E+03  0.54067834610E+03  0.00000000000E+00 0. -1.
         21   -1    0    0  502  503 -0.00000000000E+00 -0.00000000000E+00 -0.90696568533E+02  0.90696568533E+02  0.00000000000E+00 0. -1.
          6    1    1    2  501    0  0.86779996019E+02  0.69627622947E+02  0.34193991831E+03  0.39903719290E+03  0.17300000000E+03 0. -1.
         -6    1    1    2    0  503 -0.86779996019E+02 -0.69627622947E+02  0.10804185925E+03  0.23233772173E+03  0.17300000000E+03 0. -1.
</event>
<event>
 4    1  0.5956049E+000  0.1000000E+03  0.7546771E-02  0.1280296E+00
         21   -1    0    0  501  502  0.00000000000E+00  0.00000000000E+00  0.22675357513E+03  0.22675357513E+03  0.00000000000E+00 0. -1.
         21   -1    0    0  502  503 -0.00000000000E+00 -0.00000000000E+00 -0.14013311304E+03  0.14013311304E+03  0.00000000000E+00 0. -1.
          6    1    1    2  501    0  0.31788020232E+02 -0.52612845295E+01  0.72572044505E+02  0.19035193981E+03  0.17300000000E+03 0.  1.
         -6    1    1    2    0  503 -0.31788020232E+02  0.52612845295E+01  0.14048417586E+02  0.17653474837E+03  0.17300000000E+03 0.  1.
</event>
<event>
 4    1  0.5956049E+000  0.1000000E+03  0.7546771E-02  0.1280296E+00
         21   -1    0    0  501  502  0.00000000000E+00  0.00000000000E+00  0.28977042438E+03  0.28977042438E+03  0.00000000000E+00 0. -1.
         21   -1    0    0  502  503 -0.00000000000E+00 -0.00000000000E+00 -0.13541268839E+03  0.13541268839E+03  0.00000000000E+00 0. -1.
          6    1    1    2  501    0  0.43769197805E+02  0.31536568157E+01  0.16940039782E+03  0.24607149979E+03  0.17300000000E+03 0.  1.
         -6    1    1    2    0  503 -0.43769197805E+02 -0.31536568157E+01 -0.15042661837E+02  0.17911161298E+03  0.17300000000E+03 0.  1.
</event>
<event>
 4    1  0.5956049E+000  0.1000000E+03  0.7546771E-02  0.1280296E+00
         21   -1    0    0  501  502  0.00000000000E+00  0.00000000000E+00  0.13744320544E+03  0.13744320544E+03  0.00000000000E+00 0. -1.
         21   -1    0    0  502  503 -0.00000000000E+00 -0.00000000000E+00 -0.43615274855E+03  0.43615274855E+03  0.00000000000E+00 0.  1.
          6    1    1    2  501    0  0.86842899137E+02  0.36277908522E+02  0.21036517565E+02  0.19806390597E+03  0.17300000000E+03 0.  1.
         -6    1    1    2    0  503 -0.86842899137E+02 -0.36277908522E+02 -0.31974606067E+03  0.37553204803E+03  0.17300000000E+03 0. -1.
</event>
<event>
 4    1  0.5956049E+000  0.1000000E+03  0.7546771E-02  0.1280296E+00
         21   -1    0    0  501  502  0.00000000000E+00  0.00000000000E+00  0.60956517062E+02  0.60956517062E+02  0.00000000000E+00 0. -1.
         21   -1    0    0  502  503 -0.00000000000E+00 -0.00000000000E+00 -0.16476747348E+04  0.16476747348E+04  0.00000000000E+00 0.  1.
          6    1    1    2  501    0 -0.26375134936E+03 -0.21269664230E+02 -0.85305181632E+03  0.90974918204E+03  0.17300000000E+03 0.  1.
         -6    1    1    2    0  503  0.26375134936E+03  0.21269664230E+02 -0.73366640143E+03  0.79888206983E+03  0.17300000000E+03 0. -1.
</event>
<event>
 4    1  0.5956049E+000  0.1000000E+03  0.7546771E-02  0.1280296E+00
         21   -1    0    0  501  502  0.00000000000E+00  0.00000000000E+00  0.11423916959E+03  0.11423916959E+03  0.00000000000E+00 0. -1.
         21   -1    0    0  502  503 -0.00000000000E+00 -0.00000000000E+00 -0.29113434569E+03  0.29113434569E+03  0.00000000000E+00 0.  1.
          6    1    1    2  501    0 -0.18493986941E+02 -0.38148902849E+02 -0.13195694334E+03  0.22167318565E+03  0.17300000000E+03 0.  1.
         -6    1    1    2    0  503  0.18493986941E+02  0.38148902849E+02 -0.44938232756E+02  0.18370032963E+03  0.17300000000E+03 0. -1.
</event>
<event>
 4    1  0.5956049E+000  0.1000000E+03  0.7546771E-02  0.1280296E+00
         21   -1    0    0  501  502  0.00000000000E+00  0.00000000000E+00  0.19650979930E+04  0.19650979930E+04  0.00000000000E+00 0.  1.
         21   -1    0    0  502  503 -0.00000000000E+00 -0.00000000000E+00 -0.68986101491E+02  0.68986101491E+02  0.00000000000E+00 0. -1.
          6    1    1    2  501    0  0.25146350284E+03 -0.19986122636E+03  0.10849777742E+04  0.11446764493E+04  0.17300000000E+03 0.  1.
         -6    1    1    2    0  503 -0.25146350284E+03  0.19986122636E+03  0.81113411725E+03  0.88940764513E+03  0.17300000000E+03 0. -1.
</event>
<event>
 4    1  0.5956049E+000  0.1000000E+03  0.7546771E-02  0.1280296E+00
         21   -1    0    0  503  502  0.00000000000E+00  0.00000000000E+00  0.10825089652E+03  0.10825089652E+03  0.00000000000E+00 0.  1.
         21   -1    0    0  501  503 -0.00000000000E+00 -0.00000000000E+00 -0.58783846027E+03  0.58783846027E+03  0.00000000000E+00 0.  1.
          6    1    1    2  501    0  0.18290513376E+03 -0.15444717223E+02 -0.23497205104E+03  0.34472263055E+03  0.17300000000E+03 0.  1.
         -6    1    1    2    0  502 -0.18290513376E+03  0.15444717223E+02 -0.24461551272E+03  0.35136672624E+03  0.17300000000E+03 0.  1.
</event>
<event>
 4    1  0.5956049E+000  0.1000000E+03  0.7546771E-02  0.1280296E+00
         21   -1    0    0  503  502  0.00000000000E+00  0.00000000000E+00  0.20300417426E+03  0.20300417426E+03  0.00000000000E+00 0.  1.
         21   -1    0    0  501  503 -0.00000000000E+00 -0.00000000000E+00 -0.25757577594E+03  0.25757577594E+03  0.00000000000E+00 0.  1.
          6    1    1    2  501    0  0.15865435245E+01  0.80102274498E+02 -0.15443941915E+03  0.24535571256E+03  0.17300000000E+03 0. -1.
         -6    1    1    2    0  502 -0.15865435245E+01 -0.80102274498E+02  0.99867817469E+02  0.21522423764E+03  0.17300000000E+03 0. -1.
</event>
<event>
 4    1  0.5956049E+000  0.1000000E+03  0.7546771E-02  0.1280296E+00
         21   -1    0    0  503  502  0.00000000000E+00  0.00000000000E+00  0.22326927000E+03  0.22326927000E+03  0.00000000000E+00 0.  1.
         21   -1    0    0  501  503 -0.00000000000E+00 -0.00000000000E+00 -0.47502863214E+03  0.47502863214E+03  0.00000000000E+00 0.  1.
          6    1    1    2  501    0  0.30162207444E+02 -0.90175968336E+02 -0.40357047807E+03  0.44926561720E+03  0.17300000000E+03 0. -1.
         -6    1    1    2    0  502 -0.30162207444E+02  0.90175968336E+02  0.15181111593E+03  0.24903228494E+03  0.17300000000E+03 0. -1.
</event>
<event>
 4    1  0.5956049E+000  0.1000000E+03  0.7546771E-02  0.1280296E+00
         21   -1    0    0  503  502  0.00000000000E+00  0.00000000000E+00  0.21169345774E+04  0.21169345774E+04  0.00000000000E+00 0.  1.
         21   -1    0    0  501  503 -0.00000000000E+00 -0.00000000000E+00 -0.21001702147E+02  0.21001702147E+02  0.00000000000E+00 0.  1.
          6    1    1    2  501    0 -0.41664854864E+02  0.95789140563E+02  0.74299393852E+03  0.76998734552E+03  0.17300000000E+03 0. -1.
         -6    1    1    2    0  502  0.41664854864E+02 -0.95789140563E+02  0.13529389368E+04  0.13679489341E+04  0.17300000000E+03 0. -1.
</event>
<event>
 4    1  0.5956049E+000  0.1000000E+03  0.7546771E-02  0.1280296E+00
         21   -1    0    0  503  502  0.00000000000E+00  0.00000000000E+00  0.12598039986E+03  0.12598039986E+03  0.00000000000E+00 0.  1.
         21   -1    0    0  501  503 -0.00000000000E+00 -0.00000000000E+00 -0.38528854183E+03  0.38528854183E+03  0.00000000000E+00 0.  1.
          6    1    1    2  501    0  0.10023902064E+01  0.13410823960E+03 -0.15863354824E+03  0.27033243857E+03  0.17300000000E+03 0. -1.
         -6    1    1    2    0  502 -0.10023902064E+01 -0.13410823960E+03 -0.10067459373E+03  0.24093650312E+03  0.17300000000E+03 0. -1.
</event>
<event>
 4    1  0.5956049E+000  0.1000000E+03  0.7546771E-02  0.1280296E+00
         21   -1    0    0  503  502  0.00000000000E+00  0.00000000000E+00  0.90161513075E+02  0.90161513075E+02  0.00000000000E+00 0.  1.
         21   -1    0    0  501  503 -0.00000000000E+00 -0.00000000000E+00 -0.45534336341E+03  0.45534336341E+03  0.00000000000E+00 0.  1.
          6    1    1    2  501    0 -0.61362171652E+02  0.36074312567E+02 -0.77810312387E+02  0.20260828426E+03  0.17300000000E+03 0. -1.
         -6    1    1    2    0  502  0.61362171652E+02 -0.36074312567E+02 -0.28737153795E+03  0.34289659223E+03  0.17300000000E+03 0. -1.
</event>
<event>
 4    1  0.5956049E+000  0.1000000E+03  0.7546771E-02  0.1280296E+00
         21   -1    0    0  501  502  0.00000000000E+00  0.00000000000E+00  0.36973209140E+03  0.36973209140E+03  0.00000000000E+00 0. -1.
         21   -1    0    0  502  503 -0.00000000000E+00 -0.00000000000E+00 -0.14246144189E+03  0.14246144189E+03  0.00000000000E+00 0. -1.
          6    1    1    2  501    0  0.81392014130E+02 -0.77898142433E+01  0.25503897883E+03  0.31884043328E+03  0.17300000000E+03 0. -1.
         -6    1    1    2    0  503 -0.81392014130E+02  0.77898142433E+01 -0.27768329320E+02  0.19335310001E+03  0.17300000000E+03 0. -1.
</event>
<event>
 4    1  0.5956049E+000  0.1000000E+03  0.7546771E-02  0.1280296E+00
         21   -1    0    0  501  502  0.00000000000E+00  0.00000000000E+00  0.84546760640E+03  0.84546760640E+03  0.00000000000E+00 0. -1.
         21   -1    0    0  502  503 -0.00000000000E+00 -0.00000000000E+00 -0.53698558437E+02  0.53698558437E+02  0.00000000000E+00 0.  1.
          6    1    1    2  501    0  0.11282199290E+03 -0.27189926948E+02  0.30144519755E+03  0.36642366372E+03  0.17300000000E+03 0.  1.
         -6    1    1    2    0  503 -0.11282199290E+03  0.27189926948E+02  0.49032385041E+03  0.53274250111E+03  0.17300000000E+03 0. -1.
</event>
<event>
 4    1  0.5956049E+000  0.1000000E+03  0.7546771E-02  0.1280296E+00
         21   -1    0    0  503  502  0.00000000000E+00  0.00000000000E+00  0.22832166694E+04  0.22832166694E+04  0.00000000000E+00 0. -1.
         21   -1    0    0  501  503 -0.00000000000E+00 -0.00000000000E+00 -0.26443400092E+02  0.26443400092E+02  0.00000000000E+00 0. -1.
          6    1    1    2  501    0 -0.62137299656E+02  0.15656254893E+03  0.91434192931E+03  0.94568654396E+03  0.17300000000E+03 0. -1.
         -6    1    1    2    0  502  0.62137299656E+02 -0.15656254893E+03  0.13424313400E+04  0.13639735255E+04  0.17300000000E+03 0. -1.
</event>
<event>
 4    1  0.5956049E+000  0.1000000E+03  0.7546771E-02  0.1280296E+00
         21   -1    0    0  503  502  0.00000000000E+00  0.00000000000E+00  0.16056541404E+04  0.16056541404E+04  0.00000000000E+00 0. -1.
         21   -1    0    0  501  503 -0.00000000000E+00 -0.00000000000E+00 -0.26637574547E+02  0.26637574547E+02  0.00000000000E+00 0. -1.
          6    1    1    2  501    0  0.45633598352E+01  0.42710242790E+02  0.37567399309E+03  0.41581839567E+03  0.17300000000E+03 0. -1.
         -6    1    1    2    0  502 -0.45633598352E+01 -0.42710242790E+02  0.12033425727E+04  0.12164733192E+04  0.17300000000E+03 0. -1.
</event>
<event>
 4    1  0.5956049E+000  0.1000000E+03  0.7546771E-02  0.1280296E+00
         21   -1    0    0  501  502  0.00000000000E+00  0.00000000000E+00  0.16778443141E+03  0.16778443141E+03  0.00000000000E+00 0.  1.
         21   -1    0    0  502  503 -0.00000000000E+00 -0.00000000000E+00 -0.21647776306E+03  0.21647776306E+03  0.00000000000E+00 0.  1.
          6    1    1    2  501    0  0.68952261480E+02 -0.29618800713E+02  0.34621197755E+01  0.18860719496E+03  0.17300000000E+03 0.  1.
         -6    1    1    2    0  503 -0.68952261480E+02  0.29618800713E+02 -0.52155451418E+02  0.19565499951E+03  0.17300000000E+03 0.  1.
</event>
<event>
 4    1  0.5956049E+000  0.1000000E+03  0.7546771E-02  0.1280296E+00
         21   -1    0    0  501  502  0.00000000000E+00  0.00000000000E+00  0.13904281408E+03  0.13904281408E+03  0.00000000000E+00 0.  1.
         21   -1    0    0  502  503 -0.00000000000E+00 -0.00000000000E+00 -0.71107399531E+03  0.71107399531E+03  0.00000000000E+00 0.  1.
          6    1    1    2  501    0  0.13683848528E+02  0.12384333516E+03  0.26415235345E+02  0.21482826637E+03  0.17300000000E+03 0.  1.
         -6    1    1    2    0  503 -0.13683848528E+02 -0.12384333516E+03 -0.59844641658E+03  0.63528854302E+03  0.17300000000E+03 0.  1.
</event>
<event>
 4    1  0.5956049E+000  0.1000000E+03  0.7546771E-02  0.1280296E+00
         21   -1    0    0  501  502  0.00000000000E+00  0.00000000000E+00  0.25213192742E+03  0.25213192742E+03  0.00000000000E+00 0.  1.
         21   -1    0    0  502  503 -0.00000000000E+00 -0.00000000000E+00 -0.37086691297E+03  0.37086691297E+03  0.00000000000E+00 0.  1.
          6    1    1    2  501    0 -0.50294195447E+02 -0.13714375693E+02  0.19193864879E+03  0.26360393604E+03  0.17300000000E+03 0.  1.
         -6    1    1    2    0  503  0.50294195447E+02  0.13714375693E+02 -0.31067363435E+03  0.35939490435E+03  0.17300000000E+03 0.  1.
</event>
<event>
 4    1  0.5956049E+000  0.1000000E+03  0.7546771E-02  0.1280296E+00
         21   -1    0    0  501  502  0.00000000000E+00  0.00000000000E+00  0.93218223733E+03  0.93218223733E+03  0.00000000000E+00 0.  1.
         21   -1    0    0  502  503 -0.00000000000E+00 -0.00000000000E+00 -0.14118990713E+03  0.14118990713E+03  0.00000000000E+00 0.  1.
          6    1    1    2  501    0 -0.26938267017E+03 -0.12047298248E+03  0.21671643052E+03  0.40493922229E+03  0.17300000000E+03 0.  1.
         -6    1    1    2    0  503  0.26938267017E+03  0.12047298248E+03  0.57427589968E+03  0.66843292217E+03  0.17300000000E+03 0.  1.
</event>
<event>
 4    1  0.5956049E+000  0.1000000E+03  0.7546771E-02  0.1280296E+00
         21   -1    0    0  501  502  0.00000000000E+00  0.00000000000E+00  0.58751520365E+02  0.58751520365E+02  0.00000000000E+00 0.  1.
         21   -1    0    0  502  503 -0.00000000000E+00 -0.00000000000E+00 -0.12595334383E+04  0.12595334383E+04  0.00000000000E+00 0.  1.
          6    1    1    2  501    0  0.11437787458E+03 -0.61265112259E+02 -0.20051349501E+03  0.29490739878E+03  0.17300000000E+03 0.  1.
         -6    1    1    2    0  503 -0.11437787458E+03  0.61265112259E+02 -0.10002684229E+04  0.10233775599E+04  0.17300000000E+03 0.  1.
</event>
<event>
 4    1  0.5956049E+000  0.1000000E+03  0.7546771E-02  0.1280296E+00
         21   -1    0    0  501  502  0.00000000000E+00  0.00000000000E+00  0.48257466196E+02  0.48257466196E+02  0.00000000000E+00 0.  1.
         21   -1    0    0  502  503 -0.00000000000E+00 -0.00000000000E+00 -0.66425729314E+03  0.66425729314E+03  0.00000000000E+00 0.  1.
          6    1    1    2  501    0  0.13611775978E+02  0.41946447974E+02 -0.33481369867E+03  0.37943905671E+03  0.17300000000E+03 0.  1.
         -6    1    1    2    0  503 -0.13611775978E+02 -0.41946447974E+02 -0.28118612828E+03  0.33307570262E+03  0.17300000000E+03 0.  1.
</event>
<event>
 4    1  0.5956049E+000  0.1000000E+03  0.7546771E-02  0.1280296E+00
         21   -1    0    0  503  502  0.00000000000E+00  0.00000000000E+00  0.31051863771E+02  0.31051863771E+02  0.00000000000E+00 0. -1.
         21   -1    0    0  501  503 -0.00000000000E+00 -0.00000000000E+00 -0.26380231475E+04  0.26380231475E+04  0.00000000000E+00 0. -1.
          6    1    1    2  501    0 -0.36601319633E+01 -0.80664165575E+02 -0.22977298733E+04  0.23056477777E+04  0.17300000000E+03 0. -1.
         -6    1    1    2    0  502  0.36601319633E+01  0.80664165575E+02 -0.30924141042E+03  0.36342723356E+03  0.17300000000E+03 0. -1.
</event>
<event>
 4    1  0.5956049E+000  0.1000000E+03  0.7546771E-02  0.1280296E+00
         21   -1    0    0  503  502  0.00000000000E+00  0.00000000000E+00  0.10951939024E+03  0.10951939024E+03  0.00000000000E+00 0. -1.
         21   -1    0    0  501  503 -0.00000000000E+00 -0.00000000000E+00 -0.64436957355E+03  0.64436957355E+03  0.00000000000E+00 0. -1.
          6    1    1    2  501    0  0.51349285946E+02  0.43667655295E+02 -0.53701773781E+03  0.56820829281E+03  0.17300000000E+03 0. -1.
         -6    1    1    2    0  502 -0.51349285946E+02 -0.43667655295E+02  0.21675545096E+01  0.18568067099E+03  0.17300000000E+03 0. -1.
</event>
<event>
 4    1  0.5956049E+000  0.1000000E+03  0.7546771E-02  0.1280296E+00
         21   -1    0    0  501  502  0.00000000000E+00  0.00000000000E+00  0.22433805674E+03  0.22433805674E+03  0.00000000000E+00 0. -1.
         21   -1    0    0  502  503 -0.00000000000E+00 -0.00000000000E+00 -0.44945602155E+03  0.44945602155E+03  0.00000000000E+00 0. -1.
          6    1    1    2  501    0 -0.11457879935E+03 -0.47639336280E+02  0.13739580040E+03  0.25338589856E+03  0.17300000000E+03 0. -1.
         -6    1    1    2    0  503  0.11457879935E+03  0.47639336280E+02 -0.36251376521E+03  0.42040817973E+03  0.17300000000E+03 0. -1.
</event>
<event>
 4    1  0.5956049E+000  0.1000000E+03  0.7546771E-02  0.1280296E+00
         21   -1    0    0  501  502  0.00000000000E+00  0.00000000000E+00  0.41932534337E+03  0.41932534337E+03  0.00000000000E+00 0. -1.
         21   -1    0    0  502  503 -0.00000000000E+00 -0.00000000000E+00 -0.13041876594E+03  0.13041876594E+03  0.00000000000E+00 0. -1.
          6    1    1    2  501    0  0.14190077537E+03 -0.65219495239E+02  0.16704666649E+03  0.28674553422E+03  0.17300000000E+03 0. -1.
         -6    1    1    2    0  503 -0.14190077537E+03  0.65219495239E+02  0.12185991094E+03  0.26299857510E+03  0.17300000000E+03 0. -1.
</event>
<event>
 4    1  0.5956049E+000  0.1000000E+03  0.7546771E-02  0.1280296E+00
         21   -1    0    0  501  502  0.00000000000E+00  0.00000000000E+00  0.88054872608E+02  0.88054872608E+02  0.00000000000E+00 0. -1.
         21   -1    0    0  502  503 -0.00000000000E+00 -0.00000000000E+00 -0.69992616416E+03  0.69992616416E+03  0.00000000000E+00 0. -1.
          6    1    1    2  501    0 -0.57663085101E+02 -0.10910831298E+03 -0.10224426345E+03  0.23582312175E+03  0.17300000000E+03 0. -1.
         -6    1    1    2    0  503  0.57663085101E+02  0.10910831298E+03 -0.50962702810E+03  0.55215791501E+03  0.17300000000E+03 0. -1.
</event>
<event>
 4    1  0.5956049E+000  0.1000000E+03  0.7546771E-02  0.1280296E+00
         21   -1    0    0  503  502  0.00000000000E+00  0.00000000000E+00  0.46492975765E+03  0.46492975765E+03  0.00000000000E+00 0.  1.
         21   -1    0    0  501  503 -0.00000000000E+00 -0.00000000000E+00 -0.14673474410E+03  0.14673474410E+03  0.00000000000E+00 0. -1.
          6    1    1    2  501    0 -0.38640852888E+02 -0.90395129729E+02  0.35721292935E+03  0.40889420623E+03  0.17300000000E+03 0. -1.
         -6    1    1    2    0  502  0.38640852888E+02  0.90395129729E+02 -0.39017915800E+02  0.20277029552E+03  0.17300000000E+03 0.  1.
</event>
<event>
 4    1  0.5956049E+000  0.1000000E+03  0.7546771E-02  0.1280296E+00
         21   -1    0    0  503  502  0.00000000000E+00  0.00000000000E+00  0.12067703007E+03  0.12067703007E+03  0.00000000000E+00 0.  1.
         21   -1    0    0  501  503 -0.00000000000E+00 -0.00000000000E+00 -0.34856394177E+03  0.34856394177E+03  0.00000000000E+00 0. -1.
          6    1    1    2  501    0 -0.68979547854E+02  0.20452004824E+02 -0.20936815715E+03  0.28096349897E+03  0.17300000000E+03 0. -1.
         -6    1    1    2    0  502  0.68979547854E+02 -0.20452004824E+02 -0.18518754552E+02  0.18827747288E+03  0.17300000000E+03 0.  1.
</event>
<event>
 4    1  0.5956049E+000  0.1000000E+03  0.7546771E-02  0.1280296E+00
         21   -1    0    0  503  502  0.00000000000E+00  0.00000000000E+00  0.15654037387E+03  0.15654037387E+03  0.00000000000E+00 0.  1.
         21   -1    0    0  501  503 -0.00000000000E+00 -0.00000000000E+00 -0.14520186957E+04  0.14520186957E+04  0.00000000000E+00 0. -1.
          6    1    1    2  501    0 -0.15746565948E+03 -0.17330284344E+03 -0.12846490570E+04  0.13172249273E+04  0.17300000000E+03 0. -1.
         -6    1    1    2    0  502  0.15746565948E+03  0.17330284344E+03 -0.10829264802E+02  0.29133414224E+03  0.17300000000E+03 0.  1.
</event>
<event>
 4    1  0.5956049E+000  0.1000000E+03  0.7546771E-02  0.1280296E+00
         21   -1    0    0  503  502  0.00000000000E+00  0.00000000000E+00  0.56233051783E+02  0.56233051783E+02  0.00000000000E+00 0.  1.
         21   -1    0    0  501  503 -0.00000000000E+00 -0.00000000000E+00 -0.67606154232E+03  0.67606154232E+03  0.00000000000E+00 0. -1.
          6    1    1    2  501    0  0.26737840906E+02 -0.77775211539E+02 -0.37824694872E+03  0.42398543593E+03  0.17300000000E+03 0. -1.
         -6    1    1    2    0  502 -0.26737840906E+02  0.77775211539E+02 -0.24158154182E+03  0.30830915818E+03  0.17300000000E+03 0.  1.
</event>
<event>
 4    1  0.5956049E+000  0.1000000E+03  0.7546771E-02  0.1280296E+00
         21   -1    0    0  503  502  0.00000000000E+00  0.00000000000E+00  0.24357103013E+04  0.24357103013E+04  0.00000000000E+00 0. -1.
         21   -1    0    0  501  503 -0.00000000000E+00 -0.00000000000E+00 -0.12876489539E+02  0.12876489539E+02  0.00000000000E+00 0.  1.
          6    1    1    2  501    0 -0.25765669067E+02  0.27050178399E+02  0.11683462627E+04  0.11816757472E+04  0.17300000000E+03 0.  1.
         -6    1    1    2    0  502  0.25765669067E+02 -0.27050178399E+02  0.12544875490E+04  0.12669110436E+04  0.17300000000E+03 0. -1.
</event>
<event>
 4    1  0.5956049E+000  0.1000000E+03  0.7546771E-02  0.1280296E+00
         21   -1    0    0  503  502  0.00000000000E+00  0.00000000000E+00  0.16181927064E+03  0.16181927064E+03  0.00000000000E+00 0. -1.
         21   -1    0    0  501  503 -0.00000000000E+00 -0.00000000000E+00 -0.54308346008E+03  0.54308346008E+03  0.00000000000E+00 0. -1.
          6    1    1    2  501    0 -0.13290672493E+03 -0.14887883177E+03 -0.35068700924E+03  0.43902105021E+03  0.17300000000E+03 0.  1.
         -6    1    1    2    0  502  0.13290672493E+03  0.14887883177E+03 -0.30577180209E+02  0.26588168051E+03  0.17300000000E+03 0.  1.
</event>
<event>
 4    1  0.5956049E+000  0.1000000E+03  0.7546771E-02  0.1280296E+00
         21   -1    0    0  503  502  0.00000000000E+00  0.00000000000E+00  0.23161895721E+03  0.23161895721E+03  0.00000000000E+00 0. -1.
         21   -1    0    0  501  503 -0.00000000000E+00 -0.00000000000E+00 -0.21142835544E+03  0.21142835544E+03  0.00000000000E+00 0. -1.
          6    1    1    2  501    0  0.94900151262E+02  0.28391613876E+02 -0.86075906043E+02  0.21714093131E+03  0.17300000000E+03 0.  1.
         -6    1    1    2    0  502 -0.94900151262E+02 -0.28391613876E+02  0.10626650781E+03  0.22590638134E+03  0.17300000000E+03 0.  1.
</event>
<event>
 4    1  0.5956049E+000  0.1000000E+03  0.7546771E-02  0.1280296E+00
         21   -1    0    0  501  502  0.00000000000E+00  0.00000000000E+00  0.79676263348E+02  0.79676263348E+02  0.00000000000E+00 0. -1.
         21   -1    0    0  502  503 -0.00000000000E+00 -0.00000000000E+00 -0.70665557933E+03  0.70665557933E+03  0.00000000000E+00 0. -1.
          6    1    1    2  501    0 -0.48431035541E+02 -0.14559380150E+03 -0.22531981774E+03  0.32286396594E+03  0.17300000000E+03 0. -1.
         -6    1    1    2    0  503  0.48431035541E+02  0.14559380150E+03 -0.40165949824E+03  0.46346787674E+03  0.17300000000E+03 0. -1.
</event>
<event>
 4    1  0.5956049E+000  0.1000000E+03  0.7546771E-02  0.1280296E+00
         21   -1    0    0  501  502  0.00000000000E+00  0.00000000000E+00  0.52747236549E+02  0.52747236549E+02  0.00000000000E+00 0. -1.
         21   -1    0    0  502  503 -0.00000000000E+00 -0.00000000000E+00 -0.97488596099E+03  0.97488596099E+03  0.00000000000E+00 0. -1.
          6    1    1    2  501    0  0.34447083593E+02  0.14236425088E+03 -0.47528455706E+03  0.52657249423E+03  0.17300000000E+03 0. -1.
         -6    1    1    2    0  503 -0.34447083593E+02 -0.14236425088E+03 -0.44685416738E+03  0.50106070331E+03  0.17300000000E+03 0. -1.
</event>
<event>
 4    1  0.5956049E+000  0.1000000E+03  0.7546771E-02  0.1280296E+00
         21   -1    0    0  503  502  0.00000000000E+00  0.00000000000E+00  0.65832881423E+02  0.65832881423E+02  0.00000000000E+00 0. -1.
         21   -1    0    0  501  503 -0.00000000000E+00 -0.00000000000E+00 -0.96696778370E+03  0.96696778370E+03  0.00000000000E+00 0.  1.
          6    1    1    2  501    0  0.40878886956E+02  0.16606025586E+03 -0.58759373930E+03  0.63595793449E+03  0.17300000000E+03 0. -1.
         -6    1    1    2    0  502 -0.40878886956E+02 -0.16606025586E+03 -0.31354116298E+03  0.39684273064E+03  0.17300000000E+03 0.  1.
</event>
<event>
 4    1  0.5956049E+000  0.1000000E+03  0.7546771E-02  0.1280296E+00
         21   -1    0    0  501  502  0.00000000000E+00  0.00000000000E+00  0.16381012741E+04  0.16381012741E+04  0.00000000000E+00 0. -1.
         21   -1    0    0  502  503 -0.00000000000E+00 -0.00000000000E+00 -0.48235867076E+02  0.48235867076E+02  0.00000000000E+00 0. -1.
          6    1    1    2  501    0  0.57362803770E+02  0.67902444950E+02  0.14036680734E+04  0.14170794944E+04  0.17300000000E+03 0. -1.
         -6    1    1    2    0  503 -0.57362803770E+02 -0.67902444950E+02  0.18619733369E+03  0.26925764680E+03  0.17300000000E+03 0. -1.
</event>
<event>
 4    1  0.5956049E+000  0.1000000E+03  0.7546771E-02  0.1280296E+00
         21   -1    0    0  503  502  0.00000000000E+00  0.00000000000E+00  0.50236532736E+02  0.50236532736E+02  0.00000000000E+00 0. -1.
         21   -1    0    0  501  503 -0.00000000000E+00 -0.00000000000E+00 -0.19013603571E+04  0.19013603571E+04  0.00000000000E+00 0.  1.
          6    1    1    2  501    0 -0.92025898976E+02 -0.10212793425E+03 -0.16077897110E+04  0.16229034586E+04  0.17300000000E+03 0.  1.
         -6    1    1    2    0  502  0.92025898976E+02  0.10212793425E+03 -0.24333411338E+03  0.32869343129E+03  0.17300000000E+03 0. -1.
</event>
<event>
 4    1  0.5956049E+000  0.1000000E+03  0.7546771E-02  0.1280296E+00
         21   -1    0    0  503  502  0.00000000000E+00  0.00000000000E+00  0.97105989220E+03  0.97105989220E+03  0.00000000000E+00 0. -1.
         21   -1    0    0  501  503 -0.00000000000E+00 -0.00000000000E+00 -0.59030567278E+02  0.59030567278E+02  0.00000000000E+00 0.  1.
          6    1    1    2  501    0  0.42958496468E+02  0.10562013836E+02  0.11292294433E+03  0.21127607510E+03  0.17300000000E+03 0.  1.
         -6    1    1    2    0  502 -0.42958496468E+02 -0.10562013836E+02  0.79910638059E+03  0.81881438438E+03  0.17300000000E+03 0. -1.
</event>
<event>
 4    1  0.5956049E+000  0.1000000E+03  0.7546771E-02  0.1280296E+00
         21   -1    0    0  501  502  0.00000000000E+00  0.00000000000E+00  0.68612731061E+03  0.68612731061E+03  0.00000000000E+00 0. -1.
         21   -1    0    0  502  503 -0.00000000000E+00 -0.00000000000E+00 -0.63637933658E+02  0.63637933658E+02  0.00000000000E+00 0.  1.
          6    1    1    2  501    0  0.62340980579E+02 -0.99230902836E+02  0.30900798979E+03  0.37302561265E+03  0.17300000000E+03 0. -1.
         -6    1    1    2    0  503 -0.62340980579E+02  0.99230902836E+02  0.31348138716E+03  0.37673963162E+03  0.17300000000E+03 0.  1.
</event>
<event>
 4    1  0.5956049E+000  0.1000000E+03  0.7546771E-02  0.1280296E+00
         21   -1    0    0  503  502  0.00000000000E+00  0.00000000000E+00  0.14764464456E+03  0.14764464456E+03  0.00000000000E+00 0. -1.
         21   -1    0    0  501  503 -0.00000000000E+00 -0.00000000000E+00 -0.51806426226E+03  0.51806426226E+03  0.00000000000E+00 0.  1.
          6    1    1    2  501    0 -0.12472955773E+03  0.13929737058E+03 -0.31482849309E+03  0.40497802420E+03  0.17300000000E+03 0. -1.
         -6    1    1    2    0  502  0.12472955773E+03 -0.13929737058E+03 -0.55591124608E+02  0.26073088263E+03  0.17300000000E+03 0.  1.
</event>
<event>
 4    1  0.5956049E+000  0.1000000E+03  0.7546771E-02  0.1280296E+00
         21   -1    0    0  503  502  0.00000000000E+00  0.00000000000E+00  0.20578837676E+03  0.20578837676E+03  0.00000000000E+00 0. -1.
         21   -1    0    0  501  503 -0.00000000000E+00 -0.00000000000E+00 -0.25585304310E+03  0.25585304310E+03  0.00000000000E+00 0.  1.
          6    1    1    2  501    0  0.67387086476E+02  0.13483897220E+03 -0.24910861050E+02  0.23080753637E+03  0.17300000000E+03 0. -1.
         -6    1    1    2    0  502 -0.67387086476E+02 -0.13483897220E+03 -0.25153805289E+02  0.23083388349E+03  0.17300000000E+03 0.  1.
</event>
<event>
 4    1  0.5956049E+000  0.1000000E+03  0.7546771E-02  0.1280296E+00
         21   -1    0    0  503  502  0.00000000000E+00  0.00000000000E+00  0.26094295749E+03  0.26094295749E+03  0.00000000000E+00 0. -1.
         21   -1    0    0  501  503 -0.00000000000E+00 -0.00000000000E+00 -0.32446793706E+03  0.32446793706E+03  0.00000000000E+00 0.  1.
          6    1    1    2  501    0 -0.66234988742E+02  0.19819804021E+03 -0.13759717105E+03  0.30418993796E+03  0.17300000000E+03 0.  1.
         -6    1    1    2    0  502  0.66234988742E+02 -0.19819804021E+03  0.74072191489E+02  0.28122095659E+03  0.17300000000E+03 0. -1.
</event>
<event>
 4    1  0.5956049E+000  0.1000000E+03  0.7546771E-02  0.1280296E+00
         21   -1    0    0  503  502  0.00000000000E+00  0.00000000000E+00  0.36673591732E+03  0.36673591732E+03  0.00000000000E+00 0. -1.
         21   -1    0    0  501  503 -0.00000000000E+00 -0.00000000000E+00 -0.18506939521E+03  0.18506939521E+03  0.00000000000E+00 0.  1.
          6    1    1    2  501    0 -0.17196254928E+02 -0.14557118705E+03 -0.45020868357E+02  0.23117646997E+03  0.17300000000E+03 0.  1.
         -6    1    1    2    0  502  0.17196254928E+02  0.14557118705E+03  0.22668739046E+03  0.32062884255E+03  0.17300000000E+03 0. -1.
</event>
<event>
 4    1  0.5956049E+000  0.1000000E+03  0.7546771E-02  0.1280296E+00
         21   -1    0    0  503  502  0.00000000000E+00  0.00000000000E+00  0.65730714491E+03  0.65730714491E+03  0.00000000000E+00 0. -1.
         21   -1    0    0  501  503 -0.00000000000E+00 -0.00000000000E+00 -0.82628346497E+02  0.82628346497E+02  0.00000000000E+00 0.  1.
          6    1    1    2  501    0  0.13900883845E+03 -0.50588904389E+02  0.20795607349E+03  0.30831383835E+03  0.17300000000E+03 0.  1.
         -6    1    1    2    0  502 -0.13900883845E+03  0.50588904389E+02  0.36672272492E+03  0.43162165305E+03  0.17300000000E+03 0. -1.
</event>
<event>
 4    1  0.5956049E+000  0.1000000E+03  0.7546771E-02  0.1280296E+00
         21   -1    0    0  503  502  0.00000000000E+00  0.00000000000E+00  0.73564546795E+03  0.73564546795E+03  0.00000000000E+00 0. -1.
         21   -1    0    0  501  503 -0.00000000000E+00 -0.00000000000E+00 -0.22021463112E+03  0.22021463112E+03  0.00000000000E+00 0.  1.
          6    1    1    2  501    0  0.29374356932E+03  0.14940515411E+03  0.75826886091E+02  0.37984984039E+03  0.17300000000E+03 0.  1.
         -6    1    1    2    0  502 -0.29374356932E+03 -0.14940515411E+03  0.43960395074E+03  0.57601025868E+03  0.17300000000E+03 0. -1.
</event>
<event>
 4    1  0.5956049E+000  0.1000000E+03  0.7546771E-02  0.1280296E+00
         21   -1    0    0  501  502  0.00000000000E+00  0.00000000000E+00  0.22001445624E+03  0.22001445624E+03  0.00000000000E+00 0. -1.
         21   -1    0    0  502  503 -0.00000000000E+00 -0.00000000000E+00 -0.27660105428E+03  0.27660105428E+03  0.00000000000E+00 0. -1.
          6    1    1    2  501    0 -0.14086747415E+03  0.72102078921E+02  0.48922540755E+02  0.23950943625E+03  0.17300000000E+03 0. -1.
         -6    1    1    2    0  503  0.14086747415E+03 -0.72102078921E+02 -0.10550913880E+03  0.25710607427E+03  0.17300000000E+03 0. -1.
</event>
<event>
 4    1  0.5956049E+000  0.1000000E+03  0.7546771E-02  0.1280296E+00
         21   -1    0    0  501  502  0.00000000000E+00  0.00000000000E+00  0.48758992856E+03  0.48758992856E+03  0.00000000000E+00 0. -1.
         21   -1    0    0  502  503 -0.00000000000E+00 -0.00000000000E+00 -0.97953702160E+02  0.97953702160E+02  0.00000000000E+00 0. -1.
          6    1    1    2  501    0  0.35432245223E+02 -0.15833198607E+02  0.23646099254E+02  0.17886942777E+03  0.17300000000E+03 0. -1.
         -6    1    1    2    0  503 -0.35432245223E+02  0.15833198607E+02  0.36599012714E+03  0.40667420295E+03  0.17300000000E+03 0. -1.
</event>
<event>
 4    1  0.5956049E+000  0.1000000E+03  0.7546771E-02  0.1280296E+00
         21   -1    0    0  503  502  0.00000000000E+00  0.00000000000E+00  0.12478682818E+04  0.12478682818E+04  0.00000000000E+00 0.  1.
         21   -1    0    0  501  503 -0.00000000000E+00 -0.00000000000E+00 -0.53931045524E+02  0.53931045524E+02  0.00000000000E+00 0.  1.
          6    1    1    2  501    0 -0.13182729630E+03  0.62033143816E+02  0.27817741106E+03  0.35852227128E+03  0.17300000000E+03 0.  1.
         -6    1    1    2    0  502  0.13182729630E+03 -0.62033143816E+02  0.91575982523E+03  0.94327705606E+03  0.17300000000E+03 0.  1.
</event>
<event>
 4    1  0.5956049E+000  0.1000000E+03  0.7546771E-02  0.1280296E+00
         21   -1    0    0  503  502  0.00000000000E+00  0.00000000000E+00  0.16186820931E+03  0.16186820931E+03  0.00000000000E+00 0.  1.
         21   -1    0    0  501  503 -0.00000000000E+00 -0.00000000000E+00 -0.34577001536E+03  0.34577001536E+03  0.00000000000E+00 0.  1.
          6    1    1    2  501    0 -0.10469374443E+03  0.10155678675E+03 -0.16601525425E+03  0.28065036202E+03  0.17300000000E+03 0.  1.
         -6    1    1    2    0  502  0.10469374443E+03 -0.10155678675E+03 -0.17886551811E+02  0.22698786265E+03  0.17300000000E+03 0.  1.
</event>
<event>
 4    1  0.5956049E+000  0.1000000E+03  0.7546771E-02  0.1280296E+00
         21   -1    0    0  503  502  0.00000000000E+00  0.00000000000E+00  0.23385062759E+03  0.23385062759E+03  0.00000000000E+00 0.  1.
         21   -1    0    0  501  503 -0.00000000000E+00 -0.00000000000E+00 -0.27407285164E+03  0.27407285164E+03  0.00000000000E+00 0.  1.
          6    1    1    2  501    0 -0.10694374158E+03  0.26807144480E+02  0.12870555773E+03  0.24217701676E+03  0.17300000000E+03 0.  1.
         -6    1    1    2    0  502  0.10694374158E+03 -0.26807144480E+02 -0.16892778178E+03  0.26574646247E+03  0.17300000000E+03 0.  1.
</event>
<event>
 4    1  0.5956049E+000  0.1000000E+03  0.7546771E-02  0.1280296E+00
         21   -1    0    0  501  502  0.00000000000E+00  0.00000000000E+00  0.19333650014E+03  0.19333650014E+03  0.00000000000E+00 0.  1.
         21   -1    0    0  502  503 -0.00000000000E+00 -0.00000000000E+00 -0.22321484110E+03  0.22321484110E+03  0.00000000000E+00 0.  1.
          6    1    1    2  501    0 -0.82383661689E+02 -0.72135292823E+02  0.20308524209E+02  0.20574742851E+03  0.17300000000E+03 0.  1.
         -6    1    1    2    0  503  0.82383661689E+02  0.72135292823E+02 -0.50186865171E+02  0.21080391272E+03  0.17300000000E+03 0.  1.
</event>
<event>
 4    1  0.5956049E+000  0.1000000E+03  0.7546771E-02  0.1280296E+00
         21   -1    0    0  501  502  0.00000000000E+00  0.00000000000E+00  0.19368200003E+03  0.19368200003E+03  0.00000000000E+00 0.  1.
         21   -1    0    0  502  503 -0.00000000000E+00 -0.00000000000E+00 -0.41695576000E+03  0.41695576000E+03  0.00000000000E+00 0.  1.
          6    1    1    2  501    0  0.94600023279E+02 -0.97919558339E+02  0.81426940587E+02  0.23472697110E+03  0.17300000000E+03 0.  1.
         -6    1    1    2    0  503 -0.94600023279E+02  0.97919558339E+02 -0.30470070056E+03  0.37591078893E+03  0.17300000000E+03 0.  1.
</event>
<event>
 4    1  0.5956049E+000  0.1000000E+03  0.7546771E-02  0.1280296E+00
         21   -1    0    0  501  502  0.00000000000E+00  0.00000000000E+00  0.10131399932E+04  0.10131399932E+04  0.00000000000E+00 0.  1.
         21   -1    0    0  502  503 -0.00000000000E+00 -0.00000000000E+00 -0.66439766236E+02  0.66439766236E+02  0.00000000000E+00 0.  1.
          6    1    1    2  501    0  0.17734740465E+03 -0.72745168762E+02  0.42072345255E+03  0.49364074491E+03  0.17300000000E+03 0.  1.
         -6    1    1    2    0  503 -0.17734740465E+03  0.72745168762E+02  0.52597677443E+03  0.58593901454E+03  0.17300000000E+03 0.  1.
</event>
<event>
 4    1  0.5956049E+000  0.1000000E+03  0.7546771E-02  0.1280296E+00
         21   -1    0    0  501  502  0.00000000000E+00  0.00000000000E+00  0.95455941243E+03  0.95455941243E+03  0.00000000000E+00 0.  1.
         21   -1    0    0  502  503 -0.00000000000E+00 -0.00000000000E+00 -0.49248691974E+02  0.49248691974E+02  0.00000000000E+00 0. -1.
          6    1    1    2  501    0 -0.28517949735E+02 -0.98661424875E+02  0.63977805552E+03  0.67066557280E+03  0.17300000000E+03 0.  1.
         -6    1    1    2    0  503  0.28517949735E+02  0.98661424875E+02  0.26553266494E+03  0.33314253160E+03  0.17300000000E+03 0. -1.
</event>
<event>
 4    1  0.5956049E+000  0.1000000E+03  0.7546771E-02  0.1280296E+00
         21   -1    0    0  501  502  0.00000000000E+00  0.00000000000E+00  0.79366170224E+02  0.79366170224E+02  0.00000000000E+00 0.  1.
         21   -1    0    0  502  503 -0.00000000000E+00 -0.00000000000E+00 -0.61912334946E+03  0.61912334946E+03  0.00000000000E+00 0. -1.
          6    1    1    2  501    0 -0.10456571295E+03  0.44435789247E+02 -0.14482643981E+03  0.25261081798E+03  0.17300000000E+03 0.  1.
         -6    1    1    2    0  503  0.10456571295E+03 -0.44435789247E+02 -0.39493073943E+03  0.44587870171E+03  0.17300000000E+03 0. -1.
</event>
<event>
 4    1  0.5956049E+000  0.1000000E+03  0.7546771E-02  0.1280296E+00
         21   -1    0    0  503  502  0.00000000000E+00  0.00000000000E+00  0.51198438279E+03  0.51198438279E+03  0.00000000000E+00 0. -1.
         21   -1    0    0  501  503 -0.00000000000E+00 -0.00000000000E+00 -0.27085002172E+03  0.27085002172E+03  0.00000000000E+00 0.  1.
          6    1    1    2  501    0 -0.47471787854E+02 -0.26279196968E+03 -0.82785553126E+02  0.32877901055E+03  0.17300000000E+03 0. -1.
         -6    1    1    2    0  502  0.47471787854E+02  0.26279196968E+03  0.32391991420E+03  0.45405539396E+03  0.17300000000E+03 0.  1.
</event>
<event>
 4    1  0.5956049E+000  0.1000000E+03  0.7546771E-02  0.1280296E+00
         21   -1    0    0  503  502  0.00000000000E+00  0.00000000000E+00  0.20643615727E+03  0.20643615727E+03  0.00000000000E+00 0. -1.
         21   -1    0    0  501  503 -0.00000000000E+00 -0.00000000000E+00 -0.30843131673E+03  0.30843131673E+03  0.00000000000E+00 0.  1.
          6    1    1    2  501    0 -0.53075599971E+01 -0.18003914394E+03 -0.87783681796E+02  0.26472105759E+03  0.17300000000E+03 0. -1.
         -6    1    1    2    0  502  0.53075599971E+01  0.18003914394E+03 -0.14211477666E+02  0.25014641641E+03  0.17300000000E+03 0.  1.
</event>
<event>
 4    1  0.5956049E+000  0.1000000E+03  0.7546771E-02  0.1280296E+00
         21   -1    0    0  503  502  0.00000000000E+00  0.00000000000E+00  0.58005114051E+03  0.58005114051E+03  0.00000000000E+00 0.  1.
         21   -1    0    0  501  503 -0.00000000000E+00 -0.00000000000E+00 -0.16829929135E+03  0.16829929135E+03  0.00000000000E+00 0.  1.
          6    1    1    2  501    0 -0.21216989525E+03  0.13885431498E+03  0.27567081277E+03  0.41257724398E+03  0.17300000000E+03 0.  1.
         -6    1    1    2    0  502  0.21216989525E+03 -0.13885431498E+03  0.13608103639E+03  0.33577318789E+03  0.17300000000E+03 0.  1.
</event>
<event>
 4    1  0.5956049E+000  0.1000000E+03  0.7546771E-02  0.1280296E+00
         21   -1    0    0  503  502  0.00000000000E+00  0.00000000000E+00  0.10011140529E+03  0.10011140529E+03  0.00000000000E+00 0. -1.
         21   -1    0    0  501  503 -0.00000000000E+00 -0.00000000000E+00 -0.68805864124E+03  0.68805864124E+03  0.00000000000E+00 0.  1.
          6    1    1    2  501    0 -0.12372378228E+03 -0.46076867059E+02 -0.51425889455E+03  0.55841012043E+03  0.17300000000E+03 0.  1.
         -6    1    1    2    0  502  0.12372378228E+03  0.46076867059E+02 -0.73688341405E+02  0.22975992609E+03  0.17300000000E+03 0. -1.
</event>
<event>
 4    1  0.5956049E+000  0.1000000E+03  0.7546771E-02  0.1280296E+00
         21   -1    0    0  503  502  0.00000000000E+00  0.00000000000E+00  0.12324223755E+03  0.12324223755E+03  0.00000000000E+00 0. -1.
         21   -1    0    0  501  503 -0.00000000000E+00 -0.00000000000E+00 -0.34243131569E+03  0.34243131569E+03  0.00000000000E+00 0.  1.
          6    1    1    2  501    0  0.39296145985E+02 -0.38407124400E+02 -0.21862376580E+03  0.28415602276E+03  0.17300000000E+03 0.  1.
         -6    1    1    2    0  502 -0.39296145985E+02  0.38407124400E+02 -0.56531233356E+00  0.18151753048E+03  0.17300000000E+03 0. -1.
</event>
<event>
 4    1  0.5956049E+000  0.1000000E+03  0.7546771E-02  0.1280296E+00
         21   -1    0    0  503  502  0.00000000000E+00  0.00000000000E+00  0.19882267510E+03  0.19882267510E+03  0.00000000000E+00 0. -1.
         21   -1    0    0  501  503 -0.00000000000E+00 -0.00000000000E+00 -0.10817120405E+04  0.10817120405E+04  0.00000000000E+00 0.  1.
          6    1    1    2  501    0  0.45473607133E+02 -0.30006351316E+02 -0.10307128361E+04  0.10465496551E+04  0.17300000000E+03 0.  1.
         -6    1    1    2    0  502 -0.45473607133E+02  0.30006351316E+02  0.14782347068E+03  0.23398506053E+03  0.17300000000E+03 0. -1.
</event>
<event>
 4    1  0.5956049E+000  0.1000000E+03  0.7546771E-02  0.1280296E+00
         21   -1    0    0  503  502  0.00000000000E+00  0.00000000000E+00  0.39834327590E+02  0.39834327590E+02  0.00000000000E+00 0. -1.
         21   -1    0    0  501  503 -0.00000000000E+00 -0.00000000000E+00 -0.11378505191E+04  0.11378505191E+04  0.00000000000E+00 0.  1.
          6    1    1    2  501    0  0.12138362559E+03 -0.17093175669E+02 -0.60223526790E+03  0.63846885525E+03  0.17300000000E+03 0.  1.
         -6    1    1    2    0  502 -0.12138362559E+03  0.17093175669E+02 -0.49578092365E+03  0.53921599148E+03  0.17300000000E+03 0. -1.
</event>
<event>
 4    1  0.5956049E+000  0.1000000E+03  0.7546771E-02  0.1280296E+00
         21   -1    0    0  501  502  0.00000000000E+00  0.00000000000E+00  0.35960121370E+03  0.35960121370E+03  0.00000000000E+00 0. -1.
         21   -1    0    0  502  503 -0.00000000000E+00 -0.00000000000E+00 -0.16334488556E+03  0.16334488556E+03  0.00000000000E+00 0. -1.
          6    1    1    2  501    0  0.63763005458E+02 -0.85124479570E+02  0.24083977142E+03  0.31503125779E+03  0.17300000000E+03 0. -1.
         -6    1    1    2    0  503 -0.63763005458E+02  0.85124479570E+02 -0.44583443281E+02  0.20791484147E+03  0.17300000000E+03 0. -1.
</event>
<event>
 4    1  0.5956049E+000  0.1000000E+03  0.7546771E-02  0.1280296E+00
         21   -1    0    0  501  502  0.00000000000E+00  0.00000000000E+00  0.45259757850E+03  0.45259757850E+03  0.00000000000E+00 0. -1.
         21   -1    0    0  502  503 -0.00000000000E+00 -0.00000000000E+00 -0.16385367385E+03  0.16385367385E+03  0.00000000000E+00 0. -1.
          6    1    1    2  501    0  0.19738178880E+03 -0.69441075428E+02  0.16835899007E+03  0.31946108220E+03  0.17300000000E+03 0. -1.
         -6    1    1    2    0  503 -0.19738178880E+03  0.69441075428E+02  0.12038491459E+03  0.29699017015E+03  0.17300000000E+03 0. -1.
</event>
<event>
 4    1  0.5956049E+000  0.1000000E+03  0.7546771E-02  0.1280296E+00
         21   -1    0    0  501  502  0.00000000000E+00  0.00000000000E+00  0.12144796164E+04  0.12144796164E+04  0.00000000000E+00 0.  1.
         21   -1    0    0  502  503 -0.00000000000E+00 -0.00000000000E+00 -0.31302072626E+02  0.31302072626E+02  0.00000000000E+00 0. -1.
          6    1    1    2  501    0  0.21537142987E+02 -0.20758999927E+02  0.86251649685E+03  0.88020366504E+03  0.17300000000E+03 0.  1.
         -6    1    1    2    0  503 -0.21537142987E+02  0.20758999927E+02  0.32066104689E+03  0.36557802396E+03  0.17300000000E+03 0. -1.
</event>
<event>
 4    1  0.5956049E+000  0.1000000E+03  0.7546771E-02  0.1280296E+00
         21   -1    0    0  501  502  0.00000000000E+00  0.00000000000E+00  0.95720079703E+02  0.95720079703E+02  0.00000000000E+00 0.  1.
         21   -1    0    0  502  503 -0.00000000000E+00 -0.00000000000E+00 -0.59908725280E+03  0.59908725280E+03  0.00000000000E+00 0.  1.
          6    1    1    2  501    0 -0.23466543694E+02 -0.60960135292E+02 -0.30958008531E+02  0.18749457341E+03  0.17300000000E+03 0.  1.
         -6    1    1    2    0  503  0.23466543694E+02  0.60960135292E+02 -0.47240916456E+03  0.50731275909E+03  0.17300000000E+03 0.  1.
</event>
<event>
 4    1  0.5956049E+000  0.1000000E+03  0.7546771E-02  0.1280296E+00
         21   -1    0    0  501  502  0.00000000000E+00  0.00000000000E+00  0.25160449369E+04  0.25160449369E+04  0.00000000000E+00 0.  1.
         21   -1    0    0  502  503 -0.00000000000E+00 -0.00000000000E+00 -0.22677238132E+02  0.22677238132E+02  0.00000000000E+00 0.  1.
          6    1    1    2  501    0 -0.23522901819E+02  0.50082775956E+02  0.20710799278E+04  0.20790292636E+04  0.17300000000E+03 0.  1.
         -6    1    1    2    0  503  0.23522901819E+02 -0.50082775956E+02  0.42228777094E+03  0.45969291146E+03  0.17300000000E+03 0.  1.
</event>
<event>
 4    1  0.5956049E+000  0.1000000E+03  0.7546771E-02  0.1280296E+00
         21   -1    0    0  503  502  0.00000000000E+00  0.00000000000E+00  0.37228068509E+03  0.37228068509E+03  0.00000000000E+00 0.  1.
         21   -1    0    0  501  503 -0.00000000000E+00 -0.00000000000E+00 -0.13094333434E+03  0.13094333434E+03  0.00000000000E+00 0. -1.
          6    1    1    2  501    0  0.26692610080E+02 -0.11813308697E+03  0.47248090798E+02  0.21640079425E+03  0.17300000000E+03 0.  1.
         -6    1    1    2    0  502 -0.26692610080E+02  0.11813308697E+03  0.19408925996E+03  0.28682322518E+03  0.17300000000E+03 0.  1.
</event>
<event>
 4    1  0.5956049E+000  0.1000000E+03  0.7546771E-02  0.1280296E+00
         21   -1    0    0  501  502  0.00000000000E+00  0.00000000000E+00  0.51313711466E+02  0.51313711466E+02  0.00000000000E+00 0. -1.
         21   -1    0    0  502  503 -0.00000000000E+00 -0.00000000000E+00 -0.89618443361E+03  0.89618443361E+03  0.00000000000E+00 0. -1.
          6    1    1    2  501    0 -0.43637168120E+02  0.59260137706E+02 -0.19453968732E+03  0.27053771698E+03  0.17300000000E+03 0. -1.
         -6    1    1    2    0  503  0.43637168120E+02 -0.59260137706E+02 -0.65033103482E+03  0.67696042810E+03  0.17300000000E+03 0. -1.
</event>
<event>
 4    1  0.5956049E+000  0.1000000E+03  0.7546771E-02  0.1280296E+00
         21   -1    0    0  503  502  0.00000000000E+00  0.00000000000E+00  0.46592643207E+03  0.46592643207E+03  0.00000000000E+00 0. -1.
         21   -1    0    0  501  503 -0.00000000000E+00 -0.00000000000E+00 -0.15368949749E+03  0.15368949749E+03  0.00000000000E+00 0. -1.
          6    1    1    2  501    0 -0.13276562084E+03  0.14540845906E+03  0.93679031077E+02  0.27834347649E+03  0.17300000000E+03 0. -1.
         -6    1    1    2    0  502  0.13276562084E+03 -0.14540845906E+03  0.21855790350E+03  0.34127245307E+03  0.17300000000E+03 0. -1.
</event>
<event>
 4    1  0.5956049E+000  0.1000000E+03  0.7546771E-02  0.1280296E+00
         21   -1    0    0  503  502  0.00000000000E+00  0.00000000000E+00  0.68163336641E+02  0.68163336641E+02  0.00000000000E+00 0. -1.
         21   -1    0    0  501  503 -0.00000000000E+00 -0.00000000000E+00 -0.14611793875E+04  0.14611793875E+04  0.00000000000E+00 0. -1.
          6    1    1    2  501    0  0.83002402595E+02 -0.15106648308E+03 -0.11808554717E+04  0.12058437404E+04  0.17300000000E+03 0. -1.
         -6    1    1    2    0  502 -0.83002402595E+02  0.15106648308E+03 -0.21216057914E+03  0.32349898375E+03  0.17300000000E+03 0. -1.
</event>
<event>
 4    1  0.5956049E+000  0.1000000E+03  0.7546771E-02  0.1280296E+00
         21   -1    0    0  501  502  0.00000000000E+00  0.00000000000E+00  0.14417521642E+04  0.14417521642E+04  0.00000000000E+00 0. -1.
         21   -1    0    0  502  503 -0.00000000000E+00 -0.00000000000E+00 -0.38238989537E+02  0.38238989537E+02  0.00000000000E+00 0. -1.
          6    1    1    2  501    0  0.97580046528E+02  0.33248683439E+02  0.32127644285E+03  0.37917659891E+03  0.17300000000E+03 0. -1.
         -6    1    1    2    0  503 -0.97580046528E+02 -0.33248683439E+02  0.10822367318E+04  0.11008145548E+04  0.17300000000E+03 0. -1.
</event>
<event>
 4    1  0.5956049E+000  0.1000000E+03  0.7546771E-02  0.1280296E+00
         21   -1    0    0  503  502  0.00000000000E+00  0.00000000000E+00  0.23913994407E+03  0.23913994407E+03  0.00000000000E+00 0.  1.
         21   -1    0    0  501  503 -0.00000000000E+00 -0.00000000000E+00 -0.17793089620E+03  0.17793089620E+03  0.00000000000E+00 0. -1.
          6    1    1    2  501    0  0.98795785995E+02 -0.53388157172E+02  0.33877541097E+02  0.20901576603E+03  0.17300000000E+03 0. -1.
         -6    1    1    2    0  502 -0.98795785995E+02  0.53388157172E+02  0.27331506780E+02  0.20805507425E+03  0.17300000000E+03 0. -1.
</event>
<event>
 4    1  0.5956049E+000  0.1000000E+03  0.7546771E-02  0.1280296E+00
         21   -1    0    0  503  502  0.00000000000E+00  0.00000000000E+00  0.88270385506E+02  0.88270385506E+02  0.00000000000E+00 0.  1.
         21   -1    0    0  501  503 -0.00000000000E+00 -0.00000000000E+00 -0.62938696611E+03  0.62938696611E+03  0.00000000000E+00 0. -1.
          6    1    1    2  501    0 -0.10755788717E+02  0.15438472877E+02 -0.28538518561E+02  0.17634477729E+03  0.17300000000E+03 0. -1.
         -6    1    1    2    0  502  0.10755788717E+02 -0.15438472877E+02 -0.51257806205E+03  0.54131257433E+03  0.17300000000E+03 0. -1.
</event>
<event>
 4    1  0.5956049E+000  0.1000000E+03  0.7546771E-02  0.1280296E+00
         21   -1    0    0  501  502  0.00000000000E+00  0.00000000000E+00  0.12368827532E+03  0.12368827532E+03  0.00000000000E+00 0.  1.
         21   -1    0    0  502  503 -0.00000000000E+00 -0.00000000000E+00 -0.45509241324E+03  0.45509241324E+03  0.00000000000E+00 0.  1.
          6    1    1    2  501    0 -0.94947244273E+02  0.81453440092E+02 -0.39465831726E+02  0.21710871464E+03  0.17300000000E+03 0.  1.
         -6    1    1    2    0  503  0.94947244273E+02 -0.81453440092E+02 -0.29193830619E+03  0.36167197392E+03  0.17300000000E+03 0.  1.
</event>
<event>
 4    1  0.5956049E+000  0.1000000E+03  0.7546771E-02  0.1280296E+00
         21   -1    0    0  501  502  0.00000000000E+00  0.00000000000E+00  0.97512462476E+02  0.97512462476E+02  0.00000000000E+00 0.  1.
         21   -1    0    0  502  503 -0.00000000000E+00 -0.00000000000E+00 -0.34146305049E+03  0.34146305049E+03  0.00000000000E+00 0. -1.
          6    1    1    2  501    0 -0.73977032114E+00  0.24815951334E+02 -0.58880279033E+02  0.18442414690E+03  0.17300000000E+03 0.  1.
         -6    1    1    2    0  503  0.73977032114E+00 -0.24815951334E+02 -0.18507030899E+03  0.25455136607E+03  0.17300000000E+03 0. -1.
</event>
<event>
 4    1  0.5956049E+000  0.1000000E+03  0.7546771E-02  0.1280296E+00
         21   -1    0    0  501  502  0.00000000000E+00  0.00000000000E+00  0.43671094520E+03  0.43671094520E+03  0.00000000000E+00 0.  1.
         21   -1    0    0  502  503 -0.00000000000E+00 -0.00000000000E+00 -0.17767053124E+03  0.17767053124E+03  0.00000000000E+00 0. -1.
          6    1    1    2  501    0  0.19412834504E+03  0.39599004108E+02  0.23064177475E+03  0.34982641944E+03  0.17300000000E+03 0.  1.
         -6    1    1    2    0  503 -0.19412834504E+03 -0.39599004108E+02  0.28398639212E+02  0.26455505700E+03  0.17300000000E+03 0. -1.
</event>
<event>
 4    1  0.5956049E+000  0.1000000E+03  0.7546771E-02  0.1280296E+00
         21   -1    0    0  501  502  0.00000000000E+00  0.00000000000E+00  0.18461465731E+03  0.18461465731E+03  0.00000000000E+00 0.  1.
         21   -1    0    0  502  503 -0.00000000000E+00 -0.00000000000E+00 -0.31773226875E+03  0.31773226875E+03  0.00000000000E+00 0. -1.
          6    1    1    2  501    0 -0.68637347548E+02 -0.10945027957E+03  0.47229523143E+02  0.22102053532E+03  0.17300000000E+03 0.  1.
         -6    1    1    2    0  503  0.68637347548E+02  0.10945027957E+03 -0.18034713458E+03  0.28132639074E+03  0.17300000000E+03 0. -1.
</event>
<event>
 4    1  0.5956049E+000  0.1000000E+03  0.7546771E-02  0.1280296E+00
         21   -1    0    0  501  502  0.00000000000E+00  0.00000000000E+00  0.91181976289E+03  0.91181976289E+03  0.00000000000E+00 0.  1.
         21   -1    0    0  502  503 -0.00000000000E+00 -0.00000000000E+00 -0.15512500556E+03  0.15512500556E+03  0.00000000000E+00 0. -1.
          6    1    1    2  501    0 -0.13255172076E+03  0.24168178878E+03  0.64574461776E+03  0.72311489894E+03  0.17300000000E+03 0.  1.
         -6    1    1    2    0  503  0.13255172076E+03 -0.24168178878E+03  0.11095013957E+03  0.34382986952E+03  0.17300000000E+03 0. -1.
</event>
<event>
 4    1  0.5956049E+000  0.1000000E+03  0.7546771E-02  0.1280296E+00
         21   -1    0    0  503  502  0.00000000000E+00  0.00000000000E+00  0.53191795708E+02  0.53191795708E+02  0.00000000000E+00 0.  1.
         21   -1    0    0  501  503 -0.00000000000E+00 -0.00000000000E+00 -0.12284135175E+04  0.12284135175E+04  0.00000000000E+00 0.  1.
          6    1    1    2  501    0  0.26939249614E+02  0.16606382452E+03 -0.79898526009E+03  0.83463127358E+03  0.17300000000E+03 0.  1.
         -6    1    1    2    0  502 -0.26939249614E+02 -0.16606382452E+03 -0.37623646165E+03  0.44697403958E+03  0.17300000000E+03 0.  1.
</event>
<event>
 4    1  0.5956049E+000  0.1000000E+03  0.7546771E-02  0.1280296E+00
         21   -1    0    0  503  502  0.00000000000E+00  0.00000000000E+00  0.18261087985E+02  0.18261087985E+02  0.00000000000E+00 0.  1.
         21   -1    0    0  501  503 -0.00000000000E+00 -0.00000000000E+00 -0.18808600473E+04  0.18808600473E+04  0.00000000000E+00 0.  1.
          6    1    1    2  501    0  0.40953388796E+02 -0.16908983122E+02 -0.67746020129E+03  0.70060289615E+03  0.17300000000E+03 0.  1.
         -6    1    1    2    0  502 -0.40953388796E+02  0.16908983122E+02 -0.11851387580E+04  0.11985182391E+04  0.17300000000E+03 0.  1.
</event>
<event>
 4    1  0.5956049E+000  0.1000000E+03  0.7546771E-02  0.1280296E+00
         21   -1    0    0  503  502  0.00000000000E+00  0.00000000000E+00  0.95136899995E+02  0.95136899995E+02  0.00000000000E+00 0.  1.
         21   -1    0    0  501  503 -0.00000000000E+00 -0.00000000000E+00 -0.55961127841E+03  0.55961127841E+03  0.00000000000E+00 0.  1.
          6    1    1    2  501    0  0.12141074247E+03  0.53663626148E+02 -0.33926466110E+03  0.40329872728E+03  0.17300000000E+03 0.  1.
         -6    1    1    2    0  502 -0.12141074247E+03 -0.53663626148E+02 -0.12520971731E+03  0.25144945112E+03  0.17300000000E+03 0.  1.
</event>
<event>
 4    1  0.5956049E+000  0.1000000E+03  0.7546771E-02  0.1280296E+00
         21   -1    0    0  501  502  0.00000000000E+00  0.00000000000E+00  0.50446000928E+03  0.50446000928E+03  0.00000000000E+00 0.  1.
         21   -1    0    0  502  503 -0.00000000000E+00 -0.00000000000E+00 -0.82717665275E+02  0.82717665275E+02  0.00000000000E+00 0. -1.
          6    1    1    2  501    0 -0.91436029604E+02 -0.56037164909E+02  0.18605890911E+03  0.27576734582E+03  0.17300000000E+03 0. -1.
         -6    1    1    2    0  503  0.91436029604E+02  0.56037164909E+02  0.23568343490E+03  0.31141032874E+03  0.17300000000E+03 0.  1.
</event>
<event>
 4    1  0.5956049E+000  0.1000000E+03  0.7546771E-02  0.1280296E+00
         21   -1    0    0  501  502  0.00000000000E+00  0.00000000000E+00  0.14622872332E+03  0.14622872332E+03  0.00000000000E+00 0.  1.
         21   -1    0    0  502  503 -0.00000000000E+00 -0.00000000000E+00 -0.44417764607E+03  0.44417764607E+03  0.00000000000E+00 0. -1.
          6    1    1    2  501    0  0.59111147458E+02 -0.10005561579E+03  0.20935950043E+02  0.20945779529E+03  0.17300000000E+03 0. -1.
         -6    1    1    2    0  503 -0.59111147458E+02  0.10005561579E+03 -0.31888487280E+03  0.38094857409E+03  0.17300000000E+03 0.  1.
</event>
<event>
 4    1  0.5956049E+000  0.1000000E+03  0.7546771E-02  0.1280296E+00
         21   -1    0    0  501  502  0.00000000000E+00  0.00000000000E+00  0.76493188839E+03  0.76493188839E+03  0.00000000000E+00 0.  1.
         21   -1    0    0  502  503 -0.00000000000E+00 -0.00000000000E+00 -0.81836010270E+02  0.81836010270E+02  0.00000000000E+00 0. -1.
          6    1    1    2  501    0  0.10109396803E+03  0.31167439436E+02  0.58954898189E+03  0.62344879637E+03  0.17300000000E+03 0. -1.
         -6    1    1    2    0  503 -0.10109396803E+03 -0.31167439436E+02  0.93546896235E+02  0.22331910229E+03  0.17300000000E+03 0.  1.
</event>
<event>
 4    1  0.5956049E+000  0.1000000E+03  0.7546771E-02  0.1280296E+00
         21   -1    0    0  501  502  0.00000000000E+00  0.00000000000E+00  0.44612361928E+03  0.44612361928E+03  0.00000000000E+00 0.  1.
         21   -1    0    0  502  503 -0.00000000000E+00 -0.00000000000E+00 -0.81023438285E+02  0.81023438285E+02  0.00000000000E+00 0. -1.
          6    1    1    2  501    0  0.41003879744E+02 -0.49019623772E+02  0.11851950512E+03  0.21922617262E+03  0.17300000000E+03 0. -1.
         -6    1    1    2    0  503 -0.41003879744E+02  0.49019623772E+02  0.24658067588E+03  0.30792088495E+03  0.17300000000E+03 0.  1.
</event>
<event>
 4    1  0.5956049E+000  0.1000000E+03  0.7546771E-02  0.1280296E+00
         21   -1    0    0  501  502  0.00000000000E+00  0.00000000000E+00  0.29313331561E+03  0.29313331561E+03  0.00000000000E+00 0.  1.
         21   -1    0    0  502  503 -0.00000000000E+00 -0.00000000000E+00 -0.39882972682E+03  0.39882972682E+03  0.00000000000E+00 0. -1.
          6    1    1    2  501    0  0.63782238204E+02  0.25453024295E+03  0.83388788002E+02  0.32517150621E+03  0.17300000000E+03 0. -1.
         -6    1    1    2    0  503 -0.63782238204E+02 -0.25453024295E+03 -0.18908519921E+03  0.36679153623E+03  0.17300000000E+03 0.  1.
</event>
<event>
 4    1  0.5956049E+000  0.1000000E+03  0.7546771E-02  0.1280296E+00
         21   -1    0    0  501  502  0.00000000000E+00  0.00000000000E+00  0.22745124766E+03  0.22745124766E+03  0.00000000000E+00 0.  1.
         21   -1    0    0  502  503 -0.00000000000E+00 -0.00000000000E+00 -0.20412541741E+03  0.20412541741E+03  0.00000000000E+00 0.  1.
          6    1    1    2  501    0  0.94242173908E+02 -0.60839318955E+02  0.74337035157E+02  0.21917573969E+03  0.17300000000E+03 0.  1.
         -6    1    1    2    0  503 -0.94242173908E+02  0.60839318955E+02 -0.51011204908E+02  0.21240092537E+03  0.17300000000E+03 0.  1.
</event>
<event>
 4    1  0.5956049E+000  0.1000000E+03  0.7546771E-02  0.1280296E+00
         21   -1    0    0  503  502  0.00000000000E+00  0.00000000000E+00  0.51442491923E+03  0.51442491923E+03  0.00000000000E+00 0. -1.
         21   -1    0    0  501  503 -0.00000000000E+00 -0.00000000000E+00 -0.10596058135E+03  0.10596058135E+03  0.00000000000E+00 0. -1.
          6    1    1    2  501    0  0.66105081200E+02  0.85908413773E+02  0.53742918356E+02  0.21111001537E+03  0.17300000000E+03 0. -1.
         -6    1    1    2    0  502 -0.66105081200E+02 -0.85908413773E+02  0.35472141953E+03  0.40927548521E+03  0.17300000000E+03 0. -1.
</event>
<event>
 4    1  0.5956049E+000  0.1000000E+03  0.7546771E-02  0.1280296E+00
         21   -1    0    0  503  502  0.00000000000E+00  0.00000000000E+00  0.18490305817E+03  0.18490305817E+03  0.00000000000E+00 0. -1.
         21   -1    0    0  501  503 -0.00000000000E+00 -0.00000000000E+00 -0.60866530395E+03  0.60866530395E+03  0.00000000000E+00 0. -1.
          6    1    1    2  501    0  0.13445813519E+03  0.63535487908E+02 -0.50279758928E+03  0.55213237917E+03  0.17300000000E+03 0. -1.
         -6    1    1    2    0  502 -0.13445813519E+03 -0.63535487908E+02  0.79035343499E+02  0.24143598295E+03  0.17300000000E+03 0. -1.
</event>
<event>
 4    1  0.5956049E+000  0.1000000E+03  0.7546771E-02  0.1280296E+00
         21   -1    0    0  501  502  0.00000000000E+00  0.00000000000E+00  0.29299136703E+03  0.29299136703E+03  0.00000000000E+00 0.  1.
         21   -1    0    0  502  503 -0.00000000000E+00 -0.00000000000E+00 -0.13651422859E+03  0.13651422859E+03  0.00000000000E+00 0. -1.
          6    1    1    2  501    0 -0.93495258016E+02 -0.36329496589E+02  0.75338349363E+02  0.21369619201E+03  0.17300000000E+03 0.  1.
         -6    1    1    2    0  503  0.93495258016E+02  0.36329496589E+02  0.81138789073E+02  0.21580940361E+03  0.17300000000E+03 0. -1.
</event>
<event>
 4    1  0.5956049E+000  0.1000000E+03  0.7546771E-02  0.1280296E+00
         21   -1    0    0  503  502  0.00000000000E+00  0.00000000000E+00  0.31305444615E+02  0.31305444615E+02  0.00000000000E+00 0. -1.
         21   -1    0    0  501  503 -0.00000000000E+00 -0.00000000000E+00 -0.24510658622E+04  0.24510658622E+04  0.00000000000E+00 0. -1.
          6    1    1    2  501    0 -0.15420692164E+03 -0.13717707729E+03 -0.91930938003E+03  0.95794366297E+03  0.17300000000E+03 0.  1.
         -6    1    1    2    0  502  0.15420692164E+03  0.13717707729E+03 -0.15004510376E+04  0.15244276439E+04  0.17300000000E+03 0.  1.
</event>
<event>
 4    1  0.5956049E+000  0.1000000E+03  0.7546771E-02  0.1280296E+00
         21   -1    0    0  503  502  0.00000000000E+00  0.00000000000E+00  0.16159537842E+03  0.16159537842E+03  0.00000000000E+00 0.  1.
         21   -1    0    0  501  503 -0.00000000000E+00 -0.00000000000E+00 -0.32699886097E+03  0.32699886097E+03  0.00000000000E+00 0. -1.
          6    1    1    2  501    0  0.80980917104E+02 -0.12523726136E+03 -0.11021492083E+03  0.25361113805E+03  0.17300000000E+03 0. -1.
         -6    1    1    2    0  502 -0.80980917104E+02  0.12523726136E+03 -0.55188561718E+02  0.23498310134E+03  0.17300000000E+03 0.  1.
</event>
<event>
 4    1  0.5956049E+000  0.1000000E+03  0.7546771E-02  0.1280296E+00
         21   -1    0    0  503  502  0.00000000000E+00  0.00000000000E+00  0.67921006679E+02  0.67921006679E+02  0.00000000000E+00 0.  1.
         21   -1    0    0  501  503 -0.00000000000E+00 -0.00000000000E+00 -0.72470607697E+03  0.72470607697E+03  0.00000000000E+00 0. -1.
          6    1    1    2  501    0 -0.71379069222E+02 -0.50862819199E+01 -0.54105245239E+03  0.57252737753E+03  0.17300000000E+03 0. -1.
         -6    1    1    2    0  502  0.71379069222E+02  0.50862819199E+01 -0.11573261790E+03  0.22009970612E+03  0.17300000000E+03 0.  1.
</event>
<event>
 4    1  0.5956049E+000  0.1000000E+03  0.7546771E-02  0.1280296E+00
         21   -1    0    0  503  502  0.00000000000E+00  0.00000000000E+00  0.47192872233E+03  0.47192872233E+03  0.00000000000E+00 0.  1.
         21   -1    0    0  501  503 -0.00000000000E+00 -0.00000000000E+00 -0.21897435252E+03  0.21897435252E+03  0.00000000000E+00 0. -1.
          6    1    1    2  501    0  0.15754358400E+03 -0.15902528331E+03 -0.37563421529E+02  0.28539276835E+03  0.17300000000E+03 0. -1.
         -6    1    1    2    0  502 -0.15754358400E+03  0.15902528331E+03  0.29051779134E+03  0.40551030650E+03  0.17300000000E+03 0.  1.
</event>
<event>
 4    1  0.5956049E+000  0.1000000E+03  0.7546771E-02  0.1280296E+00
         21   -1    0    0  503  502  0.00000000000E+00  0.00000000000E+00  0.19078557303E+03  0.19078557303E+03  0.00000000000E+00 0.  1.
         21   -1    0    0  501  503 -0.00000000000E+00 -0.00000000000E+00 -0.16036465321E+03  0.16036465321E+03  0.00000000000E+00 0. -1.
          6    1    1    2  501    0  0.25321542702E+02 -0.17915495605E+01  0.19904868846E+02  0.17598180013E+03  0.17300000000E+03 0. -1.
         -6    1    1    2    0  502 -0.25321542702E+02  0.17915495605E+01  0.10516050977E+02  0.17516842610E+03  0.17300000000E+03 0.  1.
</event>
<event>
 4    1  0.5956049E+000  0.1000000E+03  0.7546771E-02  0.1280296E+00
         21   -1    0    0  503  502  0.00000000000E+00  0.00000000000E+00  0.13354329834E+03  0.13354329834E+03  0.00000000000E+00 0.  1.
         21   -1    0    0  501  503 -0.00000000000E+00 -0.00000000000E+00 -0.59867291849E+03  0.59867291849E+03  0.00000000000E+00 0. -1.
          6    1    1    2  501    0 -0.47718576696E+01  0.90208707823E+02 -0.49747572919E+03  0.53438888717E+03  0.17300000000E+03 0. -1.
         -6    1    1    2    0  502  0.47718576696E+01 -0.90208707823E+02  0.32346109032E+02  0.19782732966E+03  0.17300000000E+03 0.  1.
</event>
<event>
 4    1  0.5956049E+000  0.1000000E+03  0.7546771E-02  0.1280296E+00
         21   -1    0    0  503  502  0.00000000000E+00  0.00000000000E+00  0.93596769368E+02  0.93596769368E+02  0.00000000000E+00 0.  1.
         21   -1    0    0  501  503 -0.00000000000E+00 -0.00000000000E+00 -0.16135693297E+04  0.16135693297E+04  0.00000000000E+00 0.  1.
          6    1    1    2  501    0  0.84384828987E+02 -0.80339319080E+02 -0.14802101661E+04  0.14948332152E+04  0.17300000000E+03 0.  1.
         -6    1    1    2    0  502 -0.84384828987E+02  0.80339319080E+02 -0.39762394212E+02  0.21233288381E+03  0.17300000000E+03 0.  1.
</event>
<event>
 4    1  0.5956049E+000  0.1000000E+03  0.7546771E-02  0.1280296E+00
         21   -1    0    0  503  502  0.00000000000E+00  0.00000000000E+00  0.51549599491E+03  0.51549599491E+03  0.00000000000E+00 0.  1.
         21   -1    0    0  501  503 -0.00000000000E+00 -0.00000000000E+00 -0.12494176339E+04  0.12494176339E+04  0.00000000000E+00 0.  1.
          6    1    1    2  501    0 -0.34078275052E+03  0.30871531581E+02 -0.11421882949E+04  0.12048273883E+04  0.17300000000E+03 0.  1.
         -6    1    1    2    0  502  0.34078275052E+03 -0.30871531581E+02  0.40826665591E+03  0.56008624054E+03  0.17300000000E+03 0.  1.
</event>
<event>
 4    1  0.5956049E+000  0.1000000E+03  0.7546771E-02  0.1280296E+00
         21   -1    0    0  503  502  0.00000000000E+00  0.00000000000E+00  0.11996085267E+03  0.11996085267E+03  0.00000000000E+00 0.  1.
         21   -1    0    0  501  503 -0.00000000000E+00 -0.00000000000E+00 -0.30373540127E+03  0.30373540127E+03  0.00000000000E+00 0.  1.
          6    1    1    2  501    0 -0.24359389819E+02  0.76004885037E+02 -0.10488867276E+03  0.21748736997E+03  0.17300000000E+03 0.  1.
         -6    1    1    2    0  502  0.24359389819E+02 -0.76004885037E+02 -0.78885875844E+02  0.20620888397E+03  0.17300000000E+03 0.  1.
</event>
<event>
 4    1  0.5956049E+000  0.1000000E+03  0.7546771E-02  0.1280296E+00
         21   -1    0    0  501  502  0.00000000000E+00  0.00000000000E+00  0.28816720001E+03  0.28816720001E+03  0.00000000000E+00 0. -1.
         21   -1    0    0  502  503 -0.00000000000E+00 -0.00000000000E+00 -0.13540633605E+03  0.13540633605E+03  0.00000000000E+00 0. -1.
          6    1    1    2  501    0 -0.91871997729E+02 -0.19858122694E+02  0.59230807242E+02  0.20560179360E+03  0.17300000000E+03 0. -1.
         -6    1    1    2    0  503  0.91871997729E+02  0.19858122694E+02  0.93530056716E+02  0.21797174246E+03  0.17300000000E+03 0. -1.
</event>
<event>
 4    1  0.5956049E+000  0.1000000E+03  0.7546771E-02  0.1280296E+00
         21   -1    0    0  501  502  0.00000000000E+00  0.00000000000E+00  0.77833556132E+03  0.77833556132E+03  0.00000000000E+00 0. -1.
         21   -1    0    0  502  503 -0.00000000000E+00 -0.00000000000E+00 -0.13040206787E+03  0.13040206787E+03  0.00000000000E+00 0. -1.
          6    1    1    2  501    0  0.18883393930E+03  0.14550016944E+03  0.49711455882E+03  0.57782388366E+03  0.17300000000E+03 0. -1.
         -6    1    1    2    0  503 -0.18883393930E+03 -0.14550016944E+03  0.15081893462E+03  0.33091374553E+03  0.17300000000E+03 0. -1.
</event>
<event>
 4    1  0.5956049E+000  0.1000000E+03  0.7546771E-02  0.1280296E+00
         21   -1    0    0  501  502  0.00000000000E+00  0.00000000000E+00  0.85102262889E+03  0.85102262889E+03  0.00000000000E+00 0. -1.
         21   -1    0    0  502  503 -0.00000000000E+00 -0.00000000000E+00 -0.66048671596E+02  0.66048671596E+02  0.00000000000E+00 0. -1.
          6    1    1    2  501    0  0.14589486811E+01  0.15742501960E+02  0.70452481157E+03  0.72562673946E+03  0.17300000000E+03 0. -1.
         -6    1    1    2    0  503 -0.14589486811E+01 -0.15742501960E+02  0.80449145725E+02  0.19144456103E+03  0.17300000000E+03 0. -1.
</event>
<event>
 4    1  0.5956049E+000  0.1000000E+03  0.7546771E-02  0.1280296E+00
         21   -1    0    0  503  502  0.00000000000E+00  0.00000000000E+00  0.39811316287E+03  0.39811316287E+03  0.00000000000E+00 0. -1.
         21   -1    0    0  501  503 -0.00000000000E+00 -0.00000000000E+00 -0.30802312445E+03  0.30802312445E+03  0.00000000000E+00 0. -1.
          6    1    1    2  501    0 -0.30724449890E+02 -0.23841191812E+03 -0.14334962162E+03  0.32903244299E+03  0.17300000000E+03 0.  1.
         -6    1    1    2    0  502  0.30724449890E+02  0.23841191812E+03  0.23343966004E+03  0.37710384432E+03  0.17300000000E+03 0.  1.
</event>
<event>
 4    1  0.5956049E+000  0.1000000E+03  0.7546771E-02  0.1280296E+00
         21   -1    0    0  501  502  0.00000000000E+00  0.00000000000E+00  0.31001285724E+03  0.31001285724E+03  0.00000000000E+00 0.  1.
         21   -1    0    0  502  503 -0.00000000000E+00 -0.00000000000E+00 -0.16347818597E+03  0.16347818597E+03  0.00000000000E+00 0.  1.
          6    1    1    2  501    0 -0.24115443415E+02  0.21731122452E+02  0.22086111231E+03  0.28242242692E+03  0.17300000000E+03 0.  1.
         -6    1    1    2    0  503  0.24115443415E+02 -0.21731122452E+02 -0.74326441038E+02  0.19106861629E+03  0.17300000000E+03 0.  1.
</event>
<event>
 4    1  0.5956049E+000  0.1000000E+03  0.7546771E-02  0.1280296E+00
         21   -1    0    0  501  502  0.00000000000E+00  0.00000000000E+00  0.67488285797E+02  0.67488285797E+02  0.00000000000E+00 0.  1.
         21   -1    0    0  502  503 -0.00000000000E+00 -0.00000000000E+00 -0.80670565642E+03  0.80670565642E+03  0.00000000000E+00 0.  1.
          6    1    1    2  501    0 -0.30283287261E+02 -0.94255136642E+01 -0.82387594056E+02  0.19422315374E+03  0.17300000000E+03 0.  1.
         -6    1    1    2    0  503  0.30283287261E+02  0.94255136642E+01 -0.65682977657E+03  0.67997078847E+03  0.17300000000E+03 0.  1.
</event>
<event>
 4    1  0.5956049E+000  0.1000000E+03  0.7546771E-02  0.1280296E+00
         21   -1    0    0  503  502  0.00000000000E+00  0.00000000000E+00  0.18368655775E+03  0.18368655775E+03  0.00000000000E+00 0.  1.
         21   -1    0    0  501  503 -0.00000000000E+00 -0.00000000000E+00 -0.13173217168E+04  0.13173217168E+04  0.00000000000E+00 0.  1.
          6    1    1    2  501    0 -0.37244145670E+03  0.27061283733E+03 -0.58217683337E+03  0.76210420004E+03  0.17300000000E+03 0.  1.
         -6    1    1    2    0  502  0.37244145670E+03 -0.27061283733E+03 -0.55145832569E+03  0.73890407454E+03  0.17300000000E+03 0.  1.
</event>
<event>
 4    1  0.5956049E+000  0.1000000E+03  0.7546771E-02  0.1280296E+00
         21   -1    0    0  503  502  0.00000000000E+00  0.00000000000E+00  0.33113749078E+03  0.33113749078E+03  0.00000000000E+00 0.  1.
         21   -1    0    0  501  503 -0.00000000000E+00 -0.00000000000E+00 -0.10359621812E+03  0.10359621812E+03  0.00000000000E+00 0.  1.
          6    1    1    2  501    0 -0.31659704780E+02  0.22491800852E+02  0.50927284201E+02  0.18447440551E+03  0.17300000000E+03 0.  1.
         -6    1    1    2    0  502  0.31659704780E+02 -0.22491800852E+02  0.17661398847E+03  0.25025930339E+03  0.17300000000E+03 0.  1.
</event>
<event>
 4    1  0.5956049E+000  0.1000000E+03  0.7546771E-02  0.1280296E+00
         21   -1    0    0  503  502  0.00000000000E+00  0.00000000000E+00  0.49833331228E+03  0.49833331228E+03  0.00000000000E+00 0.  1.
         21   -1    0    0  501  503 -0.00000000000E+00 -0.00000000000E+00 -0.10696018208E+03  0.10696018208E+03  0.00000000000E+00 0.  1.
          6    1    1    2  501    0 -0.35111204834E+02  0.11875883017E+03  0.78171154943E+02  0.22666315517E+03  0.17300000000E+03 0.  1.
         -6    1    1    2    0  502  0.35111204834E+02 -0.11875883017E+03  0.31320197526E+03  0.37863033919E+03  0.17300000000E+03 0.  1.
</event>
<event>
 4    1  0.5956049E+000  0.1000000E+03  0.7546771E-02  0.1280296E+00
         21   -1    0    0  501  502  0.00000000000E+00  0.00000000000E+00  0.19957720357E+03  0.19957720357E+03  0.00000000000E+00 0. -1.
         21   -1    0    0  502  503 -0.00000000000E+00 -0.00000000000E+00 -0.22467712440E+03  0.22467712440E+03  0.00000000000E+00 0. -1.
          6    1    1    2  501    0  0.58426923636E+02  0.97103570507E+02  0.33011968844E+02  0.20943160912E+03  0.17300000000E+03 0. -1.
         -6    1    1    2    0  503 -0.58426923636E+02 -0.97103570507E+02 -0.58111889675E+02  0.21482271885E+03  0.17300000000E+03 0. -1.
</event>
<event>
 4    1  0.5956049E+000  0.1000000E+03  0.7546771E-02  0.1280296E+00
         21   -1    0    0  501  502  0.00000000000E+00  0.00000000000E+00  0.65585656859E+02  0.65585656859E+02  0.00000000000E+00 0. -1.
         21   -1    0    0  502  503 -0.00000000000E+00 -0.00000000000E+00 -0.11242496741E+04  0.11242496741E+04  0.00000000000E+00 0. -1.
          6    1    1    2  501    0  0.78516671269E+02  0.13176034761E+03 -0.21733173041E+03  0.31731331191E+03  0.17300000000E+03 0. -1.
         -6    1    1    2    0  503 -0.78516671269E+02 -0.13176034761E+03 -0.84133228687E+03  0.87252201909E+03  0.17300000000E+03 0. -1.
</event>
<event>
 4    1  0.5956049E+000  0.1000000E+03  0.7546771E-02  0.1280296E+00
         21   -1    0    0  501  502  0.00000000000E+00  0.00000000000E+00  0.19464184435E+03  0.19464184435E+03  0.00000000000E+00 0. -1.
         21   -1    0    0  502  503 -0.00000000000E+00 -0.00000000000E+00 -0.46611333624E+03  0.46611333624E+03  0.00000000000E+00 0. -1.
          6    1    1    2  501    0 -0.46122864305E+02 -0.38535618023E+02  0.12655525802E+03  0.22261524162E+03  0.17300000000E+03 0. -1.
         -6    1    1    2    0  503  0.46122864305E+02  0.38535618023E+02 -0.39802674991E+03  0.43813993896E+03  0.17300000000E+03 0. -1.
</event>
<event>
 4    1  0.5956049E+000  0.1000000E+03  0.7546771E-02  0.1280296E+00
         21   -1    0    0  501  502  0.00000000000E+00  0.00000000000E+00  0.10043522344E+04  0.10043522344E+04  0.00000000000E+00 0. -1.
         21   -1    0    0  502  503 -0.00000000000E+00 -0.00000000000E+00 -0.32249082862E+02  0.32249082862E+02  0.00000000000E+00 0. -1.
          6    1    1    2  501    0 -0.23241461396E+01  0.43983319187E+02  0.55175564341E+03  0.57991656647E+03  0.17300000000E+03 0. -1.
         -6    1    1    2    0  503  0.23241461396E+01 -0.43983319187E+02  0.42034750809E+03  0.45668475076E+03  0.17300000000E+03 0. -1.
</event>
<event>
 4    1  0.5956049E+000  0.1000000E+03  0.7546771E-02  0.1280296E+00
         21   -1    0    0  501  502  0.00000000000E+00  0.00000000000E+00  0.11501939252E+04  0.11501939252E+04  0.00000000000E+00 0. -1.
         21   -1    0    0  502  503 -0.00000000000E+00 -0.00000000000E+00 -0.13982182377E+03  0.13982182377E+03  0.00000000000E+00 0. -1.
          6    1    1    2  501    0  0.92092500109E+02 -0.41923970856E+01  0.10678811629E+04  0.10857245428E+04  0.17300000000E+03 0. -1.
         -6    1    1    2    0  503 -0.92092500109E+02  0.41923970856E+01 -0.57509061462E+02  0.20429120617E+03  0.17300000000E+03 0. -1.
</event>
<event>
 4    1  0.5956049E+000  0.1000000E+03  0.7546771E-02  0.1280296E+00
         21   -1    0    0  503  502  0.00000000000E+00  0.00000000000E+00  0.38590486183E+03  0.38590486183E+03  0.00000000000E+00 0. -1.
         21   -1    0    0  501  503 -0.00000000000E+00 -0.00000000000E+00 -0.16981113300E+03  0.16981113300E+03  0.00000000000E+00 0. -1.
          6    1    1    2  501    0 -0.12832521924E+02 -0.13826216477E+02 -0.95730178272E+02  0.19861798739E+03  0.17300000000E+03 0. -1.
         -6    1    1    2    0  502  0.12832521924E+02  0.13826216477E+02  0.31182390710E+03  0.35709800745E+03  0.17300000000E+03 0. -1.
</event>
<event>
 4    1  0.5956049E+000  0.1000000E+03  0.7546771E-02  0.1280296E+00
         21   -1    0    0  503  502  0.00000000000E+00  0.00000000000E+00  0.21806080339E+03  0.21806080339E+03  0.00000000000E+00 0.  1.
         21   -1    0    0  501  503 -0.00000000000E+00 -0.00000000000E+00 -0.16894311726E+03  0.16894311726E+03  0.00000000000E+00 0.  1.
          6    1    1    2  501    0  0.44861288860E+00  0.62817856463E+02 -0.30333080838E+02  0.18653519812E+03  0.17300000000E+03 0.  1.
         -6    1    1    2    0  502 -0.44861288860E+00 -0.62817856463E+02  0.79450766968E+02  0.20046872254E+03  0.17300000000E+03 0.  1.
</event>
<event>
 4    1  0.5956049E+000  0.1000000E+03  0.7546771E-02  0.1280296E+00
         21   -1    0    0  503  502  0.00000000000E+00  0.00000000000E+00  0.20275096754E+03  0.20275096754E+03  0.00000000000E+00 0.  1.
         21   -1    0    0  501  503 -0.00000000000E+00 -0.00000000000E+00 -0.28183678336E+03  0.28183678336E+03  0.00000000000E+00 0.  1.
          6    1    1    2  501    0  0.91646227981E+02  0.42413630559E+02 -0.17175995932E+03  0.26387199697E+03  0.17300000000E+03 0.  1.
         -6    1    1    2    0  502 -0.91646227981E+02 -0.42413630559E+02  0.92674143503E+02  0.22071575393E+03  0.17300000000E+03 0.  1.
</event>
<event>
 4    1  0.5956049E+000  0.1000000E+03  0.7546771E-02  0.1280296E+00
         21   -1    0    0  503  502  0.00000000000E+00  0.00000000000E+00  0.37099453576E+03  0.37099453576E+03  0.00000000000E+00 0.  1.
         21   -1    0    0  501  503 -0.00000000000E+00 -0.00000000000E+00 -0.45652699269E+03  0.45652699269E+03  0.00000000000E+00 0.  1.
          6    1    1    2  501    0  0.18481799761E+02  0.31662420492E+03 -0.24092539511E+03  0.43424245540E+03  0.17300000000E+03 0. -1.
         -6    1    1    2    0  502 -0.18481799761E+02 -0.31662420492E+03  0.15539293817E+03  0.39327907305E+03  0.17300000000E+03 0. -1.
</event>
<event>
 4    1  0.5956049E+000  0.1000000E+03  0.7546771E-02  0.1280296E+00
         21   -1    0    0  503  502  0.00000000000E+00  0.00000000000E+00  0.69644554986E+03  0.69644554986E+03  0.00000000000E+00 0.  1.
         21   -1    0    0  501  503 -0.00000000000E+00 -0.00000000000E+00 -0.10191783832E+03  0.10191783832E+03  0.00000000000E+00 0.  1.
          6    1    1    2  501    0  0.11173690815E+03  0.12072673550E+03  0.12003740549E+03  0.26720415420E+03  0.17300000000E+03 0. -1.
         -6    1    1    2    0  502 -0.11173690815E+03 -0.12072673550E+03  0.47449030605E+03  0.53115923398E+03  0.17300000000E+03 0. -1.
</event>
<event>
 4    1  0.5956049E+000  0.1000000E+03  0.7546771E-02  0.1280296E+00
         21   -1    0    0  501  502  0.00000000000E+00  0.00000000000E+00  0.30100987861E+03  0.30100987861E+03  0.00000000000E+00 0.  1.
         21   -1    0    0  502  503 -0.00000000000E+00 -0.00000000000E+00 -0.26665238753E+03  0.26665238753E+03  0.00000000000E+00 0.  1.
          6    1    1    2  501    0 -0.70218349346E+02 -0.32913978033E+02  0.22809345484E+03  0.29659664644E+03  0.17300000000E+03 0. -1.
         -6    1    1    2    0  503  0.70218349346E+02  0.32913978033E+02 -0.19373596376E+03  0.27106561971E+03  0.17300000000E+03 0. -1.
</event>
<event>
 4    1  0.5956049E+000  0.1000000E+03  0.7546771E-02  0.1280296E+00
         21   -1    0    0  501  502  0.00000000000E+00  0.00000000000E+00  0.29075716542E+03  0.29075716542E+03  0.00000000000E+00 0.  1.
         21   -1    0    0  502  503 -0.00000000000E+00 -0.00000000000E+00 -0.12914761433E+03  0.12914761433E+03  0.00000000000E+00 0.  1.
          6    1    1    2  501    0 -0.69228755895E+02  0.28254246432E+02  0.31980903602E+02  0.19116145344E+03  0.17300000000E+03 0. -1.
         -6    1    1    2    0  503  0.69228755895E+02 -0.28254246432E+02  0.12962864749E+03  0.22874332632E+03  0.17300000000E+03 0. -1.
</event>
<event>
 4    1  0.5956049E+000  0.1000000E+03  0.7546771E-02  0.1280296E+00
         21   -1    0    0  503  502  0.00000000000E+00  0.00000000000E+00  0.29134448306E+03  0.29134448306E+03  0.00000000000E+00 0.  1.
         21   -1    0    0  501  503 -0.00000000000E+00 -0.00000000000E+00 -0.29817878604E+03  0.29817878604E+03  0.00000000000E+00 0.  1.
          6    1    1    2  501    0 -0.90176670105E+02 -0.21449470497E+02 -0.22332243072E+03  0.29731098143E+03  0.17300000000E+03 0.  1.
         -6    1    1    2    0  502  0.90176670105E+02  0.21449470497E+02  0.21648812774E+03  0.29221228768E+03  0.17300000000E+03 0.  1.
</event>
<event>
 4    1  0.5956049E+000  0.1000000E+03  0.7546771E-02  0.1280296E+00
         21   -1    0    0  503  502  0.00000000000E+00  0.00000000000E+00  0.55597220842E+03  0.55597220842E+03  0.00000000000E+00 0.  1.
         21   -1    0    0  501  503 -0.00000000000E+00 -0.00000000000E+00 -0.92340929780E+02  0.92340929780E+02  0.00000000000E+00 0.  1.
          6    1    1    2  501    0 -0.14794736900E+01 -0.37849430239E+02  0.29617583120E+02  0.17955770505E+03  0.17300000000E+03 0.  1.
         -6    1    1    2    0  502  0.14794736900E+01  0.37849430239E+02  0.43401369552E+03  0.46875543315E+03  0.17300000000E+03 0.  1.
</event>
<event>
 4    1  0.5956049E+000  0.1000000E+03  0.7546771E-02  0.1280296E+00
         21   -1    0    0  503  502  0.00000000000E+00  0.00000000000E+00  0.51431195837E+03  0.51431195837E+03  0.00000000000E+00 0.  1.
         21   -1    0    0  501  503 -0.00000000000E+00 -0.00000000000E+00 -0.16306143098E+03  0.16306143098E+03  0.00000000000E+00 0.  1.
          6    1    1    2  501    0 -0.13573768107E+03 -0.18658936873E+03  0.14479031342E+03  0.32269729693E+03  0.17300000000E+03 0.  1.
         -6    1    1    2    0  502  0.13573768107E+03  0.18658936873E+03  0.20646021397E+03  0.35467609242E+03  0.17300000000E+03 0.  1.
</event>
<event>
 4    1  0.5956049E+000  0.1000000E+03  0.7546771E-02  0.1280296E+00
         21   -1    0    0  503  502  0.00000000000E+00  0.00000000000E+00  0.20864344684E+03  0.20864344684E+03  0.00000000000E+00 0.  1.
         21   -1    0    0  501  503 -0.00000000000E+00 -0.00000000000E+00 -0.20348957414E+03  0.20348957414E+03  0.00000000000E+00 0.  1.
          6    1    1    2  501    0  0.91149400933E+01 -0.90696207768E+02  0.67534936453E+02  0.20687883381E+03  0.17300000000E+03 0.  1.
         -6    1    1    2    0  502 -0.91149400933E+01  0.90696207768E+02 -0.62381063752E+02  0.20525418717E+03  0.17300000000E+03 0.  1.
</event>
<event>
 4    1  0.5956049E+000  0.1000000E+03  0.7546771E-02  0.1280296E+00
         21   -1    0    0  501  502  0.00000000000E+00  0.00000000000E+00  0.21928427940E+03  0.21928427940E+03  0.00000000000E+00 0. -1.
         21   -1    0    0  502  503 -0.00000000000E+00 -0.00000000000E+00 -0.53765657943E+03  0.53765657943E+03  0.00000000000E+00 0. -1.
          6    1    1    2  501    0 -0.10737996100E+03  0.10593715396E+03  0.12230049291E+03  0.26007604115E+03  0.17300000000E+03 0. -1.
         -6    1    1    2    0  503  0.10737996100E+03 -0.10593715396E+03 -0.44067279293E+03  0.49686481768E+03  0.17300000000E+03 0. -1.
</event>
<event>
 4    1  0.5956049E+000  0.1000000E+03  0.7546771E-02  0.1280296E+00
         21   -1    0    0  501  502  0.00000000000E+00  0.00000000000E+00  0.14024967796E+03  0.14024967796E+03  0.00000000000E+00 0. -1.
         21   -1    0    0  502  503 -0.00000000000E+00 -0.00000000000E+00 -0.77732413588E+03  0.77732413588E+03  0.00000000000E+00 0. -1.
          6    1    1    2  501    0 -0.81192438298E+01 -0.14876957929E+03  0.12887702668E+02  0.22867750812E+03  0.17300000000E+03 0. -1.
         -6    1    1    2    0  503  0.81192438298E+01  0.14876957929E+03 -0.64996216059E+03  0.68889630572E+03  0.17300000000E+03 0. -1.
</event>
<event>
 4    1  0.5956049E+000  0.1000000E+03  0.7546771E-02  0.1280296E+00
         21   -1    0    0  503  502  0.00000000000E+00  0.00000000000E+00  0.90098686279E+02  0.90098686279E+02  0.00000000000E+00 0. -1.
         21   -1    0    0  501  503 -0.00000000000E+00 -0.00000000000E+00 -0.40538945830E+03  0.40538945830E+03  0.00000000000E+00 0.  1.
          6    1    1    2  501    0  0.80823280198E+02 -0.61950029106E+01 -0.16416272143E+03  0.25189120626E+03  0.17300000000E+03 0.  1.
         -6    1    1    2    0  502 -0.80823280198E+02  0.61950029106E+01 -0.15112805059E+03  0.24359693832E+03  0.17300000000E+03 0.  1.
</event>
<event>
 4    1  0.5956049E+000  0.1000000E+03  0.7546771E-02  0.1280296E+00
         21   -1    0    0  503  502  0.00000000000E+00  0.00000000000E+00  0.36737139799E+03  0.36737139799E+03  0.00000000000E+00 0. -1.
         21   -1    0    0  501  503 -0.00000000000E+00 -0.00000000000E+00 -0.91504147936E+02  0.91504147936E+02  0.00000000000E+00 0.  1.
          6    1    1    2  501    0  0.44521198341E+02 -0.24892290853E+02  0.96709119544E+02  0.20465438439E+03  0.17300000000E+03 0.  1.
         -6    1    1    2    0  502 -0.44521198341E+02  0.24892290853E+02  0.17915813051E+03  0.25422116153E+03  0.17300000000E+03 0.  1.
</event>
<event>
 4    1  0.5956049E+000  0.1000000E+03  0.7546771E-02  0.1280296E+00
         21   -1    0    0  503  502  0.00000000000E+00  0.00000000000E+00  0.76933934703E+03  0.76933934703E+03  0.00000000000E+00 0. -1.
         21   -1    0    0  501  503 -0.00000000000E+00 -0.00000000000E+00 -0.65721396257E+02  0.65721396257E+02  0.00000000000E+00 0.  1.
          6    1    1    2  501    0  0.31549178973E+02 -0.43237813751E+02  0.10429633246E+03  0.20897747294E+03  0.17300000000E+03 0.  1.
         -6    1    1    2    0  502 -0.31549178973E+02  0.43237813751E+02  0.59932161831E+03  0.62608327035E+03  0.17300000000E+03 0.  1.
</event>
<event>
 4    1  0.5956049E+000  0.1000000E+03  0.7546771E-02  0.1280296E+00
         21   -1    0    0  501  502  0.00000000000E+00  0.00000000000E+00  0.33573677198E+02  0.33573677198E+02  0.00000000000E+00 0.  1.
         21   -1    0    0  502  503 -0.00000000000E+00 -0.00000000000E+00 -0.10369984651E+04  0.10369984651E+04  0.00000000000E+00 0. -1.
          6    1    1    2  501    0 -0.54201712269E+02  0.23534504094E+02 -0.39455839471E+03  0.43485287781E+03  0.17300000000E+03 0.  1.
         -6    1    1    2    0  503  0.54201712269E+02 -0.23534504094E+02 -0.60886639321E+03  0.63571926452E+03  0.17300000000E+03 0. -1.
</event>
<event>
 4    1  0.5956049E+000  0.1000000E+03  0.7546771E-02  0.1280296E+00
         21   -1    0    0  501  502  0.00000000000E+00  0.00000000000E+00  0.14307225526E+03  0.14307225526E+03  0.00000000000E+00 0.  1.
         21   -1    0    0  502  503 -0.00000000000E+00 -0.00000000000E+00 -0.69896024299E+03  0.69896024299E+03  0.00000000000E+00 0. -1.
          6    1    1    2  501    0 -0.19148924745E+03 -0.86447638433E+02 -0.63551950353E+02  0.27948018977E+03  0.17300000000E+03 0.  1.
         -6    1    1    2    0  503  0.19148924745E+03  0.86447638433E+02 -0.49233603738E+03  0.56255230848E+03  0.17300000000E+03 0. -1.
</event>
<event>
 4    1  0.5956049E+000  0.1000000E+03  0.7546771E-02  0.1280296E+00
         21   -1    0    0  503  502  0.00000000000E+00  0.00000000000E+00  0.18287721511E+03  0.18287721511E+03  0.00000000000E+00 0. -1.
         21   -1    0    0  501  503 -0.00000000000E+00 -0.00000000000E+00 -0.19224033793E+03  0.19224033793E+03  0.00000000000E+00 0. -1.
          6    1    1    2  501    0 -0.29524867247E+02 -0.64769801354E+02  0.79925364601E+01  0.18724242466E+03  0.17300000000E+03 0. -1.
         -6    1    1    2    0  502  0.29524867247E+02  0.64769801354E+02 -0.17355659286E+02  0.18787512838E+03  0.17300000000E+03 0. -1.
</event>
<event>
 4    1  0.5956049E+000  0.1000000E+03  0.7546771E-02  0.1280296E+00
         21   -1    0    0  503  502  0.00000000000E+00  0.00000000000E+00  0.46900741552E+03  0.46900741552E+03  0.00000000000E+00 0. -1.
         21   -1    0    0  501  503 -0.00000000000E+00 -0.00000000000E+00 -0.90156847725E+02  0.90156847725E+02  0.00000000000E+00 0. -1.
          6    1    1    2  501    0  0.86441289200E+02 -0.53587885336E+02  0.12844671661E+03  0.23826732244E+03  0.17300000000E+03 0. -1.
         -6    1    1    2    0  502 -0.86441289200E+02  0.53587885336E+02  0.25040385118E+03  0.32089694081E+03  0.17300000000E+03 0. -1.
</event>
<event>
 4    1  0.5956049E+000  0.1000000E+03  0.7546771E-02  0.1280296E+00
         21   -1    0    0  503  502  0.00000000000E+00  0.00000000000E+00  0.27995737312E+03  0.27995737312E+03  0.00000000000E+00 0. -1.
         21   -1    0    0  501  503 -0.00000000000E+00 -0.00000000000E+00 -0.23009894820E+03  0.23009894820E+03  0.00000000000E+00 0. -1.
          6    1    1    2  501    0  0.15292843557E+03  0.10400072993E+03  0.79470294414E+01  0.25336813830E+03  0.17300000000E+03 0. -1.
         -6    1    1    2    0  502 -0.15292843557E+03 -0.10400072993E+03  0.41911395470E+02  0.25668818302E+03  0.17300000000E+03 0. -1.
</event>
<event>
 4    1  0.5956049E+000  0.1000000E+03  0.7546771E-02  0.1280296E+00
         21   -1    0    0  503  502  0.00000000000E+00  0.00000000000E+00  0.19083555228E+03  0.19083555228E+03  0.00000000000E+00 0. -1.
         21   -1    0    0  501  503 -0.00000000000E+00 -0.00000000000E+00 -0.34883308101E+03  0.34883308101E+03  0.00000000000E+00 0. -1.
          6    1    1    2  501    0  0.73855314580E+02  0.12356000275E+03 -0.21095125077E+03  0.30846573874E+03  0.17300000000E+03 0. -1.
         -6    1    1    2    0  502 -0.73855314580E+02 -0.12356000275E+03  0.52953722037E+02  0.23120289455E+03  0.17300000000E+03 0. -1.
</event>
<event>
 4    1  0.5956049E+000  0.1000000E+03  0.7546771E-02  0.1280296E+00
         21   -1    0    0  501  502  0.00000000000E+00  0.00000000000E+00  0.40073318118E+03  0.40073318118E+03  0.00000000000E+00 0. -1.
         21   -1    0    0  502  503 -0.00000000000E+00 -0.00000000000E+00 -0.15270289773E+03  0.15270289773E+03  0.00000000000E+00 0. -1.
          6    1    1    2  501    0 -0.56486122605E+02 -0.10386951973E+03  0.27108217447E+03  0.34262823073E+03  0.17300000000E+03 0.  1.
         -6    1    1    2    0  503  0.56486122605E+02  0.10386951973E+03 -0.23051891021E+02  0.21080784819E+03  0.17300000000E+03 0.  1.
</event>
<event>
 4    1  0.5956049E+000  0.1000000E+03  0.7546771E-02  0.1280296E+00
         21   -1    0    0  501  502  0.00000000000E+00  0.00000000000E+00  0.39482453298E+03  0.39482453298E+03  0.00000000000E+00 0. -1.
         21   -1    0    0  502  503 -0.00000000000E+00 -0.00000000000E+00 -0.51139438656E+03  0.51139438656E+03  0.00000000000E+00 0. -1.
          6    1    1    2  501    0 -0.27140738674E+03  0.14642854960E+03  0.22130805843E+03  0.41714451505E+03  0.17300000000E+03 0.  1.
         -6    1    1    2    0  503  0.27140738674E+03 -0.14642854960E+03 -0.33787791201E+03  0.48907440450E+03  0.17300000000E+03 0.  1.
</event>
<event>
 4    1  0.5956049E+000  0.1000000E+03  0.7546771E-02  0.1280296E+00
         21   -1    0    0  503  502  0.00000000000E+00  0.00000000000E+00  0.63466171400E+03  0.63466171400E+03  0.00000000000E+00 0. -1.
         21   -1    0    0  501  503 -0.00000000000E+00 -0.00000000000E+00 -0.11358083666E+03  0.11358083666E+03  0.00000000000E+00 0. -1.
          6    1    1    2  501    0 -0.14243673800E+03  0.12177189185E+03  0.14362588083E+03  0.29270123270E+03  0.17300000000E+03 0. -1.
         -6    1    1    2    0  502  0.14243673800E+03 -0.12177189185E+03  0.37745499651E+03  0.45554131796E+03  0.17300000000E+03 0. -1.
</event>
<event>
 4    1  0.5956049E+000  0.1000000E+03  0.7546771E-02  0.1280296E+00
         21   -1    0    0  503  502  0.00000000000E+00  0.00000000000E+00  0.44577039693E+02  0.44577039693E+02  0.00000000000E+00 0. -1.
         21   -1    0    0  501  503 -0.00000000000E+00 -0.00000000000E+00 -0.87278159131E+03  0.87278159131E+03  0.00000000000E+00 0. -1.
          6    1    1    2  501    0  0.51941414780E+02  0.16026410375E+02 -0.59456213844E+03  0.62160107212E+03  0.17300000000E+03 0. -1.
         -6    1    1    2    0  502 -0.51941414780E+02 -0.16026410375E+02 -0.23364241318E+03  0.29575755888E+03  0.17300000000E+03 0. -1.
</event>
<event>
 4    1  0.5956049E+000  0.1000000E+03  0.7546771E-02  0.1280296E+00
         21   -1    0    0  503  502  0.00000000000E+00  0.00000000000E+00  0.12244925149E+03  0.12244925149E+03  0.00000000000E+00 0. -1.
         21   -1    0    0  501  503 -0.00000000000E+00 -0.00000000000E+00 -0.55973545578E+03  0.55973545578E+03  0.00000000000E+00 0. -1.
          6    1    1    2  501    0 -0.14074212507E+03  0.18705674074E+02 -0.39562282862E+03  0.45453786480E+03  0.17300000000E+03 0. -1.
         -6    1    1    2    0  502  0.14074212507E+03 -0.18705674074E+02 -0.41663375675E+02  0.22764684247E+03  0.17300000000E+03 0. -1.
</event>
<event>
 4    1  0.5956049E+000  0.1000000E+03  0.7546771E-02  0.1280296E+00
         21   -1    0    0  501  502  0.00000000000E+00  0.00000000000E+00  0.18138341079E+04  0.18138341079E+04  0.00000000000E+00 0.  1.
         21   -1    0    0  502  503 -0.00000000000E+00 -0.00000000000E+00 -0.12752152542E+03  0.12752152542E+03  0.00000000000E+00 0.  1.
          6    1    1    2  501    0  0.25269554624E+03  0.14377906099E+03  0.15330660782E+04  0.15699516100E+04  0.17300000000E+03 0.  1.
         -6    1    1    2    0  503 -0.25269554624E+03 -0.14377906099E+03  0.15324650420E+03  0.37140402329E+03  0.17300000000E+03 0.  1.
</event>
<event>
 4    1  0.5956049E+000  0.1000000E+03  0.7546771E-02  0.1280296E+00
         21   -1    0    0  503  502  0.00000000000E+00  0.00000000000E+00  0.29894151039E+03  0.29894151039E+03  0.00000000000E+00 0. -1.
         21   -1    0    0  501  503 -0.00000000000E+00 -0.00000000000E+00 -0.32421198399E+03  0.32421198399E+03  0.00000000000E+00 0.  1.
          6    1    1    2  501    0 -0.69929897426E+01 -0.39154983431E+02 -0.26859841618E+03  0.32195671107E+03  0.17300000000E+03 0.  1.
         -6    1    1    2    0  502  0.69929897426E+01  0.39154983431E+02  0.24332794258E+03  0.30119678330E+03  0.17300000000E+03 0. -1.
</event>
<event>
 4    1  0.5956049E+000  0.1000000E+03  0.7546771E-02  0.1280296E+00
         21   -1    0    0  503  502  0.00000000000E+00  0.00000000000E+00  0.32648068240E+03  0.32648068240E+03  0.00000000000E+00 0. -1.
         21   -1    0    0  501  503 -0.00000000000E+00 -0.00000000000E+00 -0.27469327628E+03  0.27469327628E+03  0.00000000000E+00 0.  1.
          6    1    1    2  501    0 -0.13573298107E+03 -0.97705910570E+00 -0.17815931484E+03  0.28300907805E+03  0.17300000000E+03 0.  1.
         -6    1    1    2    0  502  0.13573298107E+03  0.97705910570E+00  0.22994672096E+03  0.31816488064E+03  0.17300000000E+03 0. -1.
</event>
<event>
 4    1  0.5956049E+000  0.1000000E+03  0.7546771E-02  0.1280296E+00
         21   -1    0    0  503  502  0.00000000000E+00  0.00000000000E+00  0.30775428746E+02  0.30775428746E+02  0.00000000000E+00 0. -1.
         21   -1    0    0  501  503 -0.00000000000E+00 -0.00000000000E+00 -0.16840571074E+04  0.16840571074E+04  0.00000000000E+00 0.  1.
          6    1    1    2  501    0  0.14297093487E+03 -0.31048992080E+02 -0.74294393529E+03  0.77672351523E+03  0.17300000000E+03 0.  1.
         -6    1    1    2    0  502 -0.14297093487E+03  0.31048992080E+02 -0.91033774333E+03  0.93810902088E+03  0.17300000000E+03 0. -1.
</event>
<event>
 4    1  0.5956049E+000  0.1000000E+03  0.7546771E-02  0.1280296E+00
         21   -1    0    0  501  502  0.00000000000E+00  0.00000000000E+00  0.33292610584E+03  0.33292610584E+03  0.00000000000E+00 0. -1.
         21   -1    0    0  502  503 -0.00000000000E+00 -0.00000000000E+00 -0.28555519537E+03  0.28555519537E+03  0.00000000000E+00 0. -1.
          6    1    1    2  501    0  0.24322176595E+03  0.64879045201E+02 -0.18553479796E+02  0.30600547307E+03  0.17300000000E+03 0. -1.
         -6    1    1    2    0  503 -0.24322176595E+03 -0.64879045201E+02  0.65924390274E+02  0.31247582814E+03  0.17300000000E+03 0. -1.
</event>
<event>
 4    1  0.5956049E+000  0.1000000E+03  0.7546771E-02  0.1280296E+00
         21   -1    0    0  501  502  0.00000000000E+00  0.00000000000E+00  0.55604462973E+03  0.55604462973E+03  0.00000000000E+00 0. -1.
         21   -1    0    0  502  503 -0.00000000000E+00 -0.00000000000E+00 -0.65169082070E+02  0.65169082070E+02  0.00000000000E+00 0. -1.
          6    1    1    2  501    0  0.94484376830E+01 -0.94390349373E+01  0.37318447602E+03  0.41155075203E+03  0.17300000000E+03 0. -1.
         -6    1    1    2    0  503 -0.94484376830E+01  0.94390349373E+01  0.11769107164E+03  0.20966295977E+03  0.17300000000E+03 0. -1.
</event>
<event>
 4    1  0.5956049E+000  0.1000000E+03  0.7546771E-02  0.1280296E+00
         21   -1    0    0  503  502  0.00000000000E+00  0.00000000000E+00  0.18544509323E+03  0.18544509323E+03  0.00000000000E+00 0. -1.
         21   -1    0    0  501  503 -0.00000000000E+00 -0.00000000000E+00 -0.21745212769E+03  0.21745212769E+03  0.00000000000E+00 0.  1.
          6    1    1    2  501    0 -0.64233851030E+02  0.62599724418E+02 -0.64651775865E+02  0.20531333429E+03  0.17300000000E+03 0.  1.
         -6    1    1    2    0  502  0.64233851030E+02 -0.62599724418E+02  0.32644741409E+02  0.19758388663E+03  0.17300000000E+03 0. -1.
</event>
<event>
 4    1  0.5956049E+000  0.1000000E+03  0.7546771E-02  0.1280296E+00
         21   -1    0    0  503  502  0.00000000000E+00  0.00000000000E+00  0.26836551739E+04  0.26836551739E+04  0.00000000000E+00 0. -1.
         21   -1    0    0  501  503 -0.00000000000E+00 -0.00000000000E+00 -0.17963816968E+03  0.17963816968E+03  0.00000000000E+00 0.  1.
          6    1    1    2  501    0  0.26395096186E+02 -0.49539025721E+03  0.31604444834E+03  0.61312421365E+03  0.17300000000E+03 0.  1.
         -6    1    1    2    0  502 -0.26395096186E+02  0.49539025721E+03  0.21879725559E+04  0.22501691300E+04  0.17300000000E+03 0. -1.
</event>
<event>
 4    1  0.5956049E+000  0.1000000E+03  0.7546771E-02  0.1280296E+00
         21   -1    0    0  501  502  0.00000000000E+00  0.00000000000E+00  0.47134851045E+03  0.47134851045E+03  0.00000000000E+00 0. -1.
         21   -1    0    0  502  503 -0.00000000000E+00 -0.00000000000E+00 -0.75567416532E+02  0.75567416532E+02  0.00000000000E+00 0.  1.
          6    1    1    2  501    0 -0.61044831130E+02  0.41351417708E+02  0.22094555392E+03  0.29014194621E+03  0.17300000000E+03 0. -1.
         -6    1    1    2    0  503  0.61044831130E+02 -0.41351417708E+02  0.17483554000E+03  0.25677398077E+03  0.17300000000E+03 0. -1.
</event>
<event>
 4    1  0.5956049E+000  0.1000000E+03  0.7546771E-02  0.1280296E+00
         21   -1    0    0  501  502  0.00000000000E+00  0.00000000000E+00  0.12806050561E+03  0.12806050561E+03  0.00000000000E+00 0. -1.
         21   -1    0    0  502  503 -0.00000000000E+00 -0.00000000000E+00 -0.38413835638E+03  0.38413835638E+03  0.00000000000E+00 0.  1.
          6    1    1    2  501    0 -0.10232330181E+03  0.91963189507E+02 -0.10685254891E+03  0.24550713539E+03  0.17300000000E+03 0. -1.
         -6    1    1    2    0  503  0.10232330181E+03 -0.91963189507E+02 -0.14922530187E+03  0.26669172660E+03  0.17300000000E+03 0. -1.
</event>
<event>
 4    1  0.5956049E+000  0.1000000E+03  0.7546771E-02  0.1280296E+00
         21   -1    0    0  503  502  0.00000000000E+00  0.00000000000E+00  0.56588255075E+02  0.56588255075E+02  0.00000000000E+00 0.  1.
         21   -1    0    0  501  503 -0.00000000000E+00 -0.00000000000E+00 -0.13121062895E+04  0.13121062895E+04  0.00000000000E+00 0. -1.
          6    1    1    2  501    0 -0.13589689613E+03  0.11530950515E+03 -0.90918498453E+03  0.94250229944E+03  0.17300000000E+03 0.  1.
         -6    1    1    2    0  502  0.13589689613E+03 -0.11530950515E+03 -0.34633304986E+03  0.42619224510E+03  0.17300000000E+03 0. -1.
</event>
<event>
 4    1  0.5956049E+000  0.1000000E+03  0.7546771E-02  0.1280296E+00
         21   -1    0    0  503  502  0.00000000000E+00  0.00000000000E+00  0.49188218107E+03  0.49188218107E+03  0.00000000000E+00 0. -1.
         21   -1    0    0  501  503 -0.00000000000E+00 -0.00000000000E+00 -0.73652326073E+02  0.73652326073E+02  0.00000000000E+00 0.  1.
          6    1    1    2  501    0 -0.33120154179E+02  0.36332799377E+02  0.11654986965E+03  0.21431259655E+03  0.17300000000E+03 0.  1.
         -6    1    1    2    0  502  0.33120154179E+02 -0.36332799377E+02  0.30167998535E+03  0.35122191060E+03  0.17300000000E+03 0. -1.
</event>
<event>
 4    1  0.5956049E+000  0.1000000E+03  0.7546771E-02  0.1280296E+00
         21   -1    0    0  503  502  0.00000000000E+00  0.00000000000E+00  0.27895065220E+03  0.27895065220E+03  0.00000000000E+00 0. -1.
         21   -1    0    0  501  503 -0.00000000000E+00 -0.00000000000E+00 -0.13507621691E+03  0.13507621691E+03  0.00000000000E+00 0.  1.
          6    1    1    2  501    0 -0.67829768196E+02  0.30256057260E+02  0.21527368825E+02  0.18949600012E+03  0.17300000000E+03 0.  1.
         -6    1    1    2    0  502  0.67829768196E+02 -0.30256057260E+02  0.12234706647E+03  0.22453086899E+03  0.17300000000E+03 0. -1.
</event>
<event>
 4    1  0.5956049E+000  0.1000000E+03  0.7546771E-02  0.1280296E+00
         21   -1    0    0  503  502  0.00000000000E+00  0.00000000000E+00  0.48072097407E+03  0.48072097407E+03  0.00000000000E+00 0.  1.
         21   -1    0    0  501  503 -0.00000000000E+00 -0.00000000000E+00 -0.85016038308E+02  0.85016038308E+02  0.00000000000E+00 0. -1.
          6    1    1    2  501    0  0.42552093147E+02  0.27538964940E+02  0.69833547196E+02  0.19332563083E+03  0.17300000000E+03 0. -1.
         -6    1    1    2    0  502 -0.42552093147E+02 -0.27538964940E+02  0.32587138857E+03  0.37241138155E+03  0.17300000000E+03 0. -1.
</event>
<event>
 4    1  0.5956049E+000  0.1000000E+03  0.7546771E-02  0.1280296E+00
         21   -1    0    0  503  502  0.00000000000E+00  0.00000000000E+00  0.54186641851E+03  0.54186641851E+03  0.00000000000E+00 0.  1.
         21   -1    0    0  501  503 -0.00000000000E+00 -0.00000000000E+00 -0.90676378511E+02  0.90676378511E+02  0.00000000000E+00 0. -1.
          6    1    1    2  501    0  0.10894064477E+03  0.43581026992E+01  0.10353439219E+03  0.22920608087E+03  0.17300000000E+03 0. -1.
         -6    1    1    2    0  502 -0.10894064477E+03 -0.43581026992E+01  0.34765564781E+03  0.40333671615E+03  0.17300000000E+03 0. -1.
</event>
<event>
 4    1  0.5956049E+000  0.1000000E+03  0.7546771E-02  0.1280296E+00
         21   -1    0    0  501  502  0.00000000000E+00  0.00000000000E+00  0.11693904995E+03  0.11693904995E+03  0.00000000000E+00 0. -1.
         21   -1    0    0  502  503 -0.00000000000E+00 -0.00000000000E+00 -0.10100593782E+04  0.10100593782E+04  0.00000000000E+00 0. -1.
          6    1    1    2  501    0 -0.33064082370E+00  0.29677317819E+03 -0.46390869606E+03  0.57724752654E+03  0.17300000000E+03 0. -1.
         -6    1    1    2    0  503  0.33064082370E+00 -0.29677317819E+03 -0.42921163221E+03  0.54975090163E+03  0.17300000000E+03 0. -1.
</event>
<event>
 4    1  0.5956049E+000  0.1000000E+03  0.7546771E-02  0.1280296E+00
         21   -1    0    0  501  502  0.00000000000E+00  0.00000000000E+00  0.41120269826E+03  0.41120269826E+03  0.00000000000E+00 0. -1.
         21   -1    0    0  502  503 -0.00000000000E+00 -0.00000000000E+00 -0.46099217613E+03  0.46099217613E+03  0.00000000000E+00 0. -1.
          6    1    1    2  501    0 -0.12123607026E+02  0.23073114219E+02  0.37444540918E+03  0.41330099794E+03  0.17300000000E+03 0. -1.
         -6    1    1    2    0  503  0.12123607026E+02 -0.23073114219E+02 -0.42423488705E+03  0.45889387644E+03  0.17300000000E+03 0. -1.
</event>
<event>
 4    1  0.5956049E+000  0.1000000E+03  0.7546771E-02  0.1280296E+00
         21   -1    0    0  501  502  0.00000000000E+00  0.00000000000E+00  0.20386647995E+03  0.20386647995E+03  0.00000000000E+00 0. -1.
         21   -1    0    0  502  503 -0.00000000000E+00 -0.00000000000E+00 -0.31722126503E+03  0.31722126503E+03  0.00000000000E+00 0. -1.
          6    1    1    2  501    0 -0.89743165046E+02  0.41085606012E+02  0.10531555757E+03  0.22530474776E+03  0.17300000000E+03 0. -1.
         -6    1    1    2    0  503  0.89743165046E+02 -0.41085606012E+02 -0.21867034265E+03  0.29578299723E+03  0.17300000000E+03 0. -1.
</event>
<event>
 4    1  0.5956049E+000  0.1000000E+03  0.7546771E-02  0.1280296E+00
         21   -1    0    0  501  502  0.00000000000E+00  0.00000000000E+00  0.11332367008E+04  0.11332367008E+04  0.00000000000E+00 0. -1.
         21   -1    0    0  502  503 -0.00000000000E+00 -0.00000000000E+00 -0.14102734452E+03  0.14102734452E+03  0.00000000000E+00 0. -1.
          6    1    1    2  501    0 -0.19951356296E+03 -0.12709587804E+03  0.92944176978E+03  0.97455119282E+03  0.17300000000E+03 0. -1.
         -6    1    1    2    0  503  0.19951356296E+03  0.12709587804E+03  0.62767586461E+02  0.29971285246E+03  0.17300000000E+03 0. -1.
</event>
<event>
 4    1  0.5956049E+000  0.1000000E+03  0.7546771E-02  0.1280296E+00
         21   -1    0    0  501  502  0.00000000000E+00  0.00000000000E+00  0.27707222582E+03  0.27707222582E+03  0.00000000000E+00 0. -1.
         21   -1    0    0  502  503 -0.00000000000E+00 -0.00000000000E+00 -0.39073789000E+03  0.39073789000E+03  0.00000000000E+00 0. -1.
          6    1    1    2  501    0  0.23743652244E+03  0.12147962716E+03 -0.14294340259E+03  0.34856164210E+03  0.17300000000E+03 0. -1.
         -6    1    1    2    0  503 -0.23743652244E+03 -0.12147962716E+03  0.29277738419E+02  0.31924847371E+03  0.17300000000E+03 0. -1.
</event>
<event>
 4    1  0.5956049E+000  0.1000000E+03  0.7546771E-02  0.1280296E+00
         21   -1    0    0  503  502  0.00000000000E+00  0.00000000000E+00  0.68994805602E+03  0.68994805602E+03  0.00000000000E+00 0.  1.
         21   -1    0    0  501  503 -0.00000000000E+00 -0.00000000000E+00 -0.74654026540E+02  0.74654026540E+02  0.00000000000E+00 0.  1.
          6    1    1    2  501    0 -0.81939103737E+02  0.10011322358E+03  0.19043536479E+03  0.28797795475E+03  0.17300000000E+03 0.  1.
         -6    1    1    2    0  502  0.81939103737E+02 -0.10011322358E+03  0.42485866469E+03  0.47662412782E+03  0.17300000000E+03 0.  1.
</event>
<event>
 4    1  0.5956049E+000  0.1000000E+03  0.7546771E-02  0.1280296E+00
         21   -1    0    0  503  502  0.00000000000E+00  0.00000000000E+00  0.30518772326E+03  0.30518772326E+03  0.00000000000E+00 0.  1.
         21   -1    0    0  501  503 -0.00000000000E+00 -0.00000000000E+00 -0.18308683019E+03  0.18308683019E+03  0.00000000000E+00 0.  1.
          6    1    1    2  501    0  0.12197396017E+03 -0.10157555641E+03  0.32735292009E+02  0.23705661763E+03  0.17300000000E+03 0.  1.
         -6    1    1    2    0  502 -0.12197396017E+03  0.10157555641E+03  0.89365601062E+02  0.25121793581E+03  0.17300000000E+03 0.  1.
</event>
<event>
 4    1  0.5956049E+000  0.1000000E+03  0.7546771E-02  0.1280296E+00
         21   -1    0    0  503  502  0.00000000000E+00  0.00000000000E+00  0.62216789078E+02  0.62216789078E+02  0.00000000000E+00 0. -1.
         21   -1    0    0  501  503 -0.00000000000E+00 -0.00000000000E+00 -0.57330984631E+03  0.57330984631E+03  0.00000000000E+00 0.  1.
          6    1    1    2  501    0 -0.70143961588E+02 -0.26574740131E+02 -0.27351904089E+03  0.33221688381E+03  0.17300000000E+03 0.  1.
         -6    1    1    2    0  502  0.70143961588E+02  0.26574740131E+02 -0.23757401635E+03  0.30330975158E+03  0.17300000000E+03 0. -1.
</event>
<event>
 4    1  0.5956049E+000  0.1000000E+03  0.7546771E-02  0.1280296E+00
         21   -1    0    0  503  502  0.00000000000E+00  0.00000000000E+00  0.21805684651E+03  0.21805684651E+03  0.00000000000E+00 0. -1.
         21   -1    0    0  501  503 -0.00000000000E+00 -0.00000000000E+00 -0.17641246776E+03  0.17641246776E+03  0.00000000000E+00 0. -1.
          6    1    1    2  501    0  0.52399605257E+02  0.75991146677E+02  0.25156094703E+02  0.19769219030E+03  0.17300000000E+03 0. -1.
         -6    1    1    2    0  502 -0.52399605257E+02 -0.75991146677E+02  0.16488284046E+02  0.19677712396E+03  0.17300000000E+03 0. -1.
</event>
<event>
 4    1  0.5956049E+000  0.1000000E+03  0.7546771E-02  0.1280296E+00
         21   -1    0    0  503  502  0.00000000000E+00  0.00000000000E+00  0.27582692101E+03  0.27582692101E+03  0.00000000000E+00 0. -1.
         21   -1    0    0  501  503 -0.00000000000E+00 -0.00000000000E+00 -0.24501732230E+03  0.24501732230E+03  0.00000000000E+00 0. -1.
          6    1    1    2  501    0 -0.32976108459E+02 -0.24489363313E+02 -0.17457549506E+03  0.24918418112E+03  0.17300000000E+03 0. -1.
         -6    1    1    2    0  502  0.32976108459E+02  0.24489363313E+02  0.20538509377E+03  0.27166006218E+03  0.17300000000E+03 0. -1.
</event>
<event>
 4    1  0.5956049E+000  0.1000000E+03  0.7546771E-02  0.1280296E+00
         21   -1    0    0  503  502  0.00000000000E+00  0.00000000000E+00  0.24219296785E+03  0.24219296785E+03  0.00000000000E+00 0. -1.
         21   -1    0    0  501  503 -0.00000000000E+00 -0.00000000000E+00 -0.42963704217E+03  0.42963704217E+03  0.00000000000E+00 0. -1.
          6    1    1    2  501    0 -0.14392514137E+02 -0.32623268952E+02 -0.37479975127E+03  0.41433715220E+03  0.17300000000E+03 0. -1.
         -6    1    1    2    0  502  0.14392514137E+02  0.32623268952E+02  0.18735567695E+03  0.25749285781E+03  0.17300000000E+03 0. -1.
</event>
<event>
 4    1  0.5956049E+000  0.1000000E+03  0.7546771E-02  0.1280296E+00
         21   -1    0    0  503  502  0.00000000000E+00  0.00000000000E+00  0.37740179772E+03  0.37740179772E+03  0.00000000000E+00 0. -1.
         21   -1    0    0  501  503 -0.00000000000E+00 -0.00000000000E+00 -0.28060428025E+03  0.28060428025E+03  0.00000000000E+00 0.  1.
          6    1    1    2  501    0  0.20229867034E+03 -0.42220498353E+02 -0.13599217635E+03  0.30187778079E+03  0.17300000000E+03 0. -1.
         -6    1    1    2    0  502 -0.20229867034E+03  0.42220498353E+02  0.23278969382E+03  0.35612829718E+03  0.17300000000E+03 0. -1.
</event>
<event>
 4    1  0.5956049E+000  0.1000000E+03  0.7546771E-02  0.1280296E+00
         21   -1    0    0  501  502  0.00000000000E+00  0.00000000000E+00  0.14498418581E+03  0.14498418581E+03  0.00000000000E+00 0. -1.
         21   -1    0    0  502  503 -0.00000000000E+00 -0.00000000000E+00 -0.31149366409E+03  0.31149366409E+03  0.00000000000E+00 0. -1.
          6    1    1    2  501    0 -0.11931595708E+03 -0.26796153301E+01 -0.49476122290E+02  0.21591749496E+03  0.17300000000E+03 0. -1.
         -6    1    1    2    0  503  0.11931595708E+03  0.26796153301E+01 -0.11703335599E+03  0.24056035494E+03  0.17300000000E+03 0. -1.
</event>
<event>
 4    1  0.5956049E+000  0.1000000E+03  0.7546771E-02  0.1280296E+00
         21   -1    0    0  501  502  0.00000000000E+00  0.00000000000E+00  0.15967966729E+03  0.15967966729E+03  0.00000000000E+00 0. -1.
         21   -1    0    0  502  503 -0.00000000000E+00 -0.00000000000E+00 -0.47661956625E+03  0.47661956625E+03  0.00000000000E+00 0. -1.
          6    1    1    2  501    0 -0.32282443787E+02 -0.18369551650E+03 -0.35384576901E+02  0.25684093762E+03  0.17300000000E+03 0. -1.
         -6    1    1    2    0  503  0.32282443787E+02  0.18369551650E+03 -0.28155532206E+03  0.37945829591E+03  0.17300000000E+03 0. -1.
</event>
<event>
 4    1  0.5956049E+000  0.1000000E+03  0.7546771E-02  0.1280296E+00
         21   -1    0    0  501  502  0.00000000000E+00  0.00000000000E+00  0.25530221067E+04  0.25530221067E+04  0.00000000000E+00 0. -1.
         21   -1    0    0  502  503 -0.00000000000E+00 -0.00000000000E+00 -0.28005406401E+03  0.28005406401E+03  0.00000000000E+00 0. -1.
          6    1    1    2  501    0 -0.33341078508E+02 -0.14466851881E+03  0.25005694728E+04  0.25109395246E+04  0.17300000000E+03 0. -1.
         -6    1    1    2    0  503  0.33341078508E+02  0.14466851881E+03 -0.22760143005E+03  0.32213664618E+03  0.17300000000E+03 0. -1.
</event>
<event>
 4    1  0.5956049E+000  0.1000000E+03  0.7546771E-02  0.1280296E+00
         21   -1    0    0  501  502  0.00000000000E+00  0.00000000000E+00  0.29140539457E+04  0.29140539457E+04  0.00000000000E+00 0. -1.
         21   -1    0    0  502  503 -0.00000000000E+00 -0.00000000000E+00 -0.47032789178E+02  0.47032789178E+02  0.00000000000E+00 0. -1.
          6    1    1    2  501    0 -0.22429217063E+03 -0.74604918475E+02  0.23389027973E+04  0.23571737668E+04  0.17300000000E+03 0. -1.
         -6    1    1    2    0  503  0.22429217063E+03  0.74604918475E+02  0.52811835922E+03  0.60391296807E+03  0.17300000000E+03 0. -1.
</event>
<event>
 4    1  0.5956049E+000  0.1000000E+03  0.7546771E-02  0.1280296E+00
         21   -1    0    0  501  502  0.00000000000E+00  0.00000000000E+00  0.45249857608E+03  0.45249857608E+03  0.00000000000E+00 0. -1.
         21   -1    0    0  502  503 -0.00000000000E+00 -0.00000000000E+00 -0.95711756490E+02  0.95711756490E+02  0.00000000000E+00 0. -1.
          6    1    1    2  501    0 -0.41445595326E+01 -0.11166480350E+03  0.21778015158E+03  0.29973888660E+03  0.17300000000E+03 0. -1.
         -6    1    1    2    0  503  0.41445595326E+01  0.11166480350E+03  0.13900666801E+03  0.24847144598E+03  0.17300000000E+03 0. -1.
</event>
<event>
 4    1  0.5956049E+000  0.1000000E+03  0.7546771E-02  0.1280296E+00
         21   -1    0    0  503  502  0.00000000000E+00  0.00000000000E+00  0.49773489511E+02  0.49773489511E+02  0.00000000000E+00 0.  1.
         21   -1    0    0  501  503 -0.00000000000E+00 -0.00000000000E+00 -0.86718255531E+03  0.86718255531E+03  0.00000000000E+00 0.  1.
          6    1    1    2  501    0  0.66671440164E+01  0.12649792529E+02 -0.66060191216E+03  0.68302880936E+03  0.17300000000E+03 0.  1.
         -6    1    1    2    0  502 -0.66671440164E+01 -0.12649792529E+02 -0.15680715364E+03  0.23392723547E+03  0.17300000000E+03 0.  1.
</event>
<event>
 4    1  0.5956049E+000  0.1000000E+03  0.7546771E-02  0.1280296E+00
         21   -1    0    0  503  502  0.00000000000E+00  0.00000000000E+00  0.53507605499E+03  0.53507605499E+03  0.00000000000E+00 0.  1.
         21   -1    0    0  501  503 -0.00000000000E+00 -0.00000000000E+00 -0.11530050093E+03  0.11530050093E+03  0.00000000000E+00 0.  1.
          6    1    1    2  501    0  0.28401636419E+02  0.13313410529E+02 -0.19810313744E+02  0.17693317490E+03  0.17300000000E+03 0.  1.
         -6    1    1    2    0  502 -0.28401636419E+02 -0.13313410529E+02  0.43958586780E+03  0.47344338101E+03  0.17300000000E+03 0.  1.
</event>
<event>
 4    1  0.5956049E+000  0.1000000E+03  0.7546771E-02  0.1280296E+00
         21   -1    0    0  503  502  0.00000000000E+00  0.00000000000E+00  0.29024346471E+03  0.29024346471E+03  0.00000000000E+00 0. -1.
         21   -1    0    0  501  503 -0.00000000000E+00 -0.00000000000E+00 -0.21377611652E+03  0.21377611652E+03  0.00000000000E+00 0. -1.
          6    1    1    2  501    0  0.25286707414E+02  0.68106497358E+02 -0.12751479926E+03  0.22686325525E+03  0.17300000000E+03 0.  1.
         -6    1    1    2    0  502 -0.25286707414E+02 -0.68106497358E+02  0.20398214744E+03  0.27715632598E+03  0.17300000000E+03 0.  1.
</event>
<event>
 4    1  0.5956049E+000  0.1000000E+03  0.7546771E-02  0.1280296E+00
         21   -1    0    0  503  502  0.00000000000E+00  0.00000000000E+00  0.36790791896E+03  0.36790791896E+03  0.00000000000E+00 0.  1.
         21   -1    0    0  501  503 -0.00000000000E+00 -0.00000000000E+00 -0.35547540559E+03  0.35547540559E+03  0.00000000000E+00 0.  1.
          6    1    1    2  501    0 -0.28334799724E+03 -0.11019432752E+03 -0.85581501828E+02  0.36011396920E+03  0.17300000000E+03 0. -1.
         -6    1    1    2    0  502  0.28334799724E+03  0.11019432752E+03  0.98014015198E+02  0.36326935535E+03  0.17300000000E+03 0. -1.
</event>
<event>
 4    1  0.5956049E+000  0.1000000E+03  0.7546771E-02  0.1280296E+00
         21   -1    0    0  503  502  0.00000000000E+00  0.00000000000E+00  0.29474120771E+02  0.29474120771E+02  0.00000000000E+00 0.  1.
         21   -1    0    0  501  503 -0.00000000000E+00 -0.00000000000E+00 -0.10324804302E+04  0.10324804302E+04  0.00000000000E+00 0.  1.
          6    1    1    2  501    0  0.19384151947E+02 -0.69345158596E+01 -0.47451450144E+03  0.50548674061E+03  0.17300000000E+03 0. -1.
         -6    1    1    2    0  502 -0.19384151947E+02  0.69345158596E+01 -0.52849180804E+03  0.55646781041E+03  0.17300000000E+03 0. -1.
</event>
<event>
 4    1  0.5956049E+000  0.1000000E+03  0.7546771E-02  0.1280296E+00
         21   -1    0    0  503  502  0.00000000000E+00  0.00000000000E+00  0.15359384964E+03  0.15359384964E+03  0.00000000000E+00 0.  1.
         21   -1    0    0  501  503 -0.00000000000E+00 -0.00000000000E+00 -0.32992669223E+03  0.32992669223E+03  0.00000000000E+00 0.  1.
          6    1    1    2  501    0 -0.36928789434E+02  0.13857083900E+03 -0.10257906192E+03  0.24701634937E+03  0.17300000000E+03 0.  1.
         -6    1    1    2    0  502  0.36928789434E+02 -0.13857083900E+03 -0.73753780661E+02  0.23650419250E+03  0.17300000000E+03 0.  1.
</event>
<event>
 4    1  0.5956049E+000  0.1000000E+03  0.7546771E-02  0.1280296E+00
         21   -1    0    0  503  502  0.00000000000E+00  0.00000000000E+00  0.33827014318E+03  0.33827014318E+03  0.00000000000E+00 0. -1.
         21   -1    0    0  501  503 -0.00000000000E+00 -0.00000000000E+00 -0.17144094745E+03  0.17144094745E+03  0.00000000000E+00 0.  1.
          6    1    1    2  501    0 -0.22077245930E+02  0.11628652568E+03 -0.42047059914E+02  0.21379175870E+03  0.17300000000E+03 0.  1.
         -6    1    1    2    0  502  0.22077245930E+02 -0.11628652568E+03  0.20887625564E+03  0.29591933193E+03  0.17300000000E+03 0. -1.
</event>
<event>
 4    1  0.5956049E+000  0.1000000E+03  0.7546771E-02  0.1280296E+00
         21   -1    0    0  503  502  0.00000000000E+00  0.00000000000E+00  0.13601452619E+03  0.13601452619E+03  0.00000000000E+00 0. -1.
         21   -1    0    0  501  503 -0.00000000000E+00 -0.00000000000E+00 -0.29107246009E+03  0.29107246009E+03  0.00000000000E+00 0.  1.
          6    1    1    2  501    0 -0.13640131529E+02  0.13431196538E+02 -0.18099772822E+03  0.25110879683E+03  0.17300000000E+03 0.  1.
         -6    1    1    2    0  502  0.13640131529E+02 -0.13431196538E+02  0.25939794316E+02  0.17597818944E+03  0.17300000000E+03 0. -1.
</event>
<event>
 4    1  0.5956049E+000  0.1000000E+03  0.7546771E-02  0.1280296E+00
         21   -1    0    0  503  502  0.00000000000E+00  0.00000000000E+00  0.68757361303E+03  0.68757361303E+03  0.00000000000E+00 0. -1.
         21   -1    0    0  501  503 -0.00000000000E+00 -0.00000000000E+00 -0.26480085304E+03  0.26480085304E+03  0.00000000000E+00 0.  1.
          6    1    1    2  501    0 -0.23180354844E+03  0.21039484079E+03 -0.48286399671E+02  0.36091474131E+03  0.17300000000E+03 0.  1.
         -6    1    1    2    0  502  0.23180354844E+03 -0.21039484079E+03  0.47105915966E+03  0.59145972475E+03  0.17300000000E+03 0. -1.
</event>
<event>
 4    1  0.5956049E+000  0.1000000E+03  0.7546771E-02  0.1280296E+00
         21   -1    0    0  503  502  0.00000000000E+00  0.00000000000E+00  0.24862073460E+03  0.24862073460E+03  0.00000000000E+00 0. -1.
         21   -1    0    0  501  503 -0.00000000000E+00 -0.00000000000E+00 -0.31969431902E+03  0.31969431902E+03  0.00000000000E+00 0.  1.
          6    1    1    2  501    0  0.15668711362E+02  0.21720984513E+03 -0.82032191007E+02  0.28997224988E+03  0.17300000000E+03 0.  1.
         -6    1    1    2    0  502 -0.15668711362E+02 -0.21720984513E+03  0.10958606582E+02  0.27834280374E+03  0.17300000000E+03 0. -1.
</event>
<event>
 4    1  0.5956049E+000  0.1000000E+03  0.7546771E-02  0.1280296E+00
         21   -1    0    0  501  502  0.00000000000E+00  0.00000000000E+00  0.24861931515E+03  0.24861931515E+03  0.00000000000E+00 0. -1.
         21   -1    0    0  502  503 -0.00000000000E+00 -0.00000000000E+00 -0.14762662529E+03  0.14762662529E+03  0.00000000000E+00 0. -1.
          6    1    1    2  501    0  0.53499307935E+02  0.50532780896E+02  0.88607291872E+02  0.20783645029E+03  0.17300000000E+03 0. -1.
         -6    1    1    2    0  503 -0.53499307935E+02 -0.50532780896E+02  0.12385397986E+02  0.18840949015E+03  0.17300000000E+03 0. -1.
</event>
<event>
 4    1  0.5956049E+000  0.1000000E+03  0.7546771E-02  0.1280296E+00
         21   -1    0    0  501  502  0.00000000000E+00  0.00000000000E+00  0.31443819826E+03  0.31443819826E+03  0.00000000000E+00 0. -1.
         21   -1    0    0  502  503 -0.00000000000E+00 -0.00000000000E+00 -0.10792607760E+03  0.10792607760E+03  0.00000000000E+00 0.  1.
          6    1    1    2  501    0 -0.48720642855E+02 -0.10333472004E+02  0.14804687096E+03  0.23308229809E+03  0.17300000000E+03 0. -1.
         -6    1    1    2    0  503  0.48720642855E+02  0.10333472004E+02  0.58465249707E+02  0.18928197777E+03  0.17300000000E+03 0.  1.
</event>
<event>
 4    1  0.5956049E+000  0.1000000E+03  0.7546771E-02  0.1280296E+00
         21   -1    0    0  503  502  0.00000000000E+00  0.00000000000E+00  0.81658978542E+03  0.81658978542E+03  0.00000000000E+00 0. -1.
         21   -1    0    0  501  503 -0.00000000000E+00 -0.00000000000E+00 -0.52884141895E+02  0.52884141895E+02  0.00000000000E+00 0. -1.
          6    1    1    2  501    0 -0.97075395488E+02  0.42332397009E+02  0.47634055740E+03  0.51773061612E+03  0.17300000000E+03 0. -1.
         -6    1    1    2    0  502  0.97075395488E+02 -0.42332397009E+02  0.28736508612E+03  0.35174331119E+03  0.17300000000E+03 0. -1.
</event>
<event>
 4    1  0.5956049E+000  0.1000000E+03  0.7546771E-02  0.1280296E+00
         21   -1    0    0  503  502  0.00000000000E+00  0.00000000000E+00  0.22932433637E+03  0.22932433637E+03  0.00000000000E+00 0. -1.
         21   -1    0    0  501  503 -0.00000000000E+00 -0.00000000000E+00 -0.20439036111E+03  0.20439036111E+03  0.00000000000E+00 0. -1.
          6    1    1    2  501    0  0.33985349701E+02  0.87127813206E+02 -0.78217097564E+02  0.21164397979E+03  0.17300000000E+03 0. -1.
         -6    1    1    2    0  502 -0.33985349701E+02 -0.87127813206E+02  0.10315107282E+03  0.22207071769E+03  0.17300000000E+03 0. -1.
</event>
<event>
 4    1  0.5956049E+000  0.1000000E+03  0.7546771E-02  0.1280296E+00
         21   -1    0    0  503  502  0.00000000000E+00  0.00000000000E+00  0.18003324720E+03  0.18003324720E+03  0.00000000000E+00 0. -1.
         21   -1    0    0  501  503 -0.00000000000E+00 -0.00000000000E+00 -0.24452724507E+03  0.24452724507E+03  0.00000000000E+00 0. -1.
          6    1    1    2  501    0 -0.80017118952E+02  0.79227668120E+02 -0.70295359827E+02  0.21806008423E+03  0.17300000000E+03 0. -1.
         -6    1    1    2    0  502  0.80017118952E+02 -0.79227668120E+02  0.58013619534E+01  0.20650040804E+03  0.17300000000E+03 0. -1.
</event>
<event>
 4    1  0.5956049E+000  0.1000000E+03  0.7546771E-02  0.1280296E+00
         21   -1    0    0  503  502  0.00000000000E+00  0.00000000000E+00  0.15841712632E+03  0.15841712632E+03  0.00000000000E+00 0.  1.
         21   -1    0    0  501  503 -0.00000000000E+00 -0.00000000000E+00 -0.30890600359E+03  0.30890600359E+03  0.00000000000E+00 0.  1.
          6    1    1    2  501    0  0.78531190613E+00  0.12307374149E+03 -0.96263056658E+01  0.21253100555E+03  0.17300000000E+03 0.  1.
         -6    1    1    2    0  502 -0.78531190613E+00 -0.12307374149E+03 -0.14086257160E+03  0.25479212436E+03  0.17300000000E+03 0.  1.
</event>
<event>
 4    1  0.5956049E+000  0.1000000E+03  0.7546771E-02  0.1280296E+00
         21   -1    0    0  503  502  0.00000000000E+00  0.00000000000E+00  0.61397114318E+03  0.61397114318E+03  0.00000000000E+00 0.  1.
         21   -1    0    0  501  503 -0.00000000000E+00 -0.00000000000E+00 -0.53735490252E+02  0.53735490252E+02  0.00000000000E+00 0.  1.
          6    1    1    2  501    0  0.32404711373E+02  0.44346564274E+02  0.26760342276E+03  0.32335317372E+03  0.17300000000E+03 0.  1.
         -6    1    1    2    0  502 -0.32404711373E+02 -0.44346564274E+02  0.29263223017E+03  0.34435345971E+03  0.17300000000E+03 0.  1.
</event>
<event>
 4    1  0.5956049E+000  0.1000000E+03  0.7546771E-02  0.1280296E+00
         21   -1    0    0  501  502  0.00000000000E+00  0.00000000000E+00  0.78095058019E+02  0.78095058019E+02  0.00000000000E+00 0.  1.
         21   -1    0    0  502  503 -0.00000000000E+00 -0.00000000000E+00 -0.10575034451E+04  0.10575034451E+04  0.00000000000E+00 0.  1.
          6    1    1    2  501    0 -0.13419314986E+03 -0.16184530130E+03 -0.30802664603E+03  0.41110961760E+03  0.17300000000E+03 0.  1.
         -6    1    1    2    0  503  0.13419314986E+03  0.16184530130E+03 -0.67138174104E+03  0.72448888551E+03  0.17300000000E+03 0.  1.
</event>
<event>
 4    1  0.5956049E+000  0.1000000E+03  0.7546771E-02  0.1280296E+00
         21   -1    0    0  501  502  0.00000000000E+00  0.00000000000E+00  0.47110496574E+02  0.47110496574E+02  0.00000000000E+00 0.  1.
         21   -1    0    0  502  503 -0.00000000000E+00 -0.00000000000E+00 -0.11211647421E+04  0.11211647421E+04  0.00000000000E+00 0. -1.
          6    1    1    2  501    0  0.36110428644E+02 -0.10208865319E+03 -0.26847833268E+03  0.33724719611E+03  0.17300000000E+03 0.  1.
         -6    1    1    2    0  503 -0.36110428644E+02  0.10208865319E+03 -0.80557591282E+03  0.83102804253E+03  0.17300000000E+03 0. -1.
</event>
<event>
 4    1  0.5956049E+000  0.1000000E+03  0.7546771E-02  0.1280296E+00
         21   -1    0    0  501  502  0.00000000000E+00  0.00000000000E+00  0.99869465177E+02  0.99869465177E+02  0.00000000000E+00 0.  1.
         21   -1    0    0  502  503 -0.00000000000E+00 -0.00000000000E+00 -0.46680267921E+03  0.46680267921E+03  0.00000000000E+00 0.  1.
          6    1    1    2  501    0  0.29967317930E+02 -0.43770414625E+01 -0.18658773235E+02  0.17661921881E+03  0.17300000000E+03 0.  1.
         -6    1    1    2    0  503 -0.29967317930E+02  0.43770414625E+01 -0.34827444080E+03  0.39005292558E+03  0.17300000000E+03 0.  1.
</event>
<event>
 4    1  0.5956049E+000  0.1000000E+03  0.7546771E-02  0.1280296E+00
         21   -1    0    0  501  502  0.00000000000E+00  0.00000000000E+00  0.29456031096E+03  0.29456031096E+03  0.00000000000E+00 0.  1.
         21   -1    0    0  502  503 -0.00000000000E+00 -0.00000000000E+00 -0.42960242058E+03  0.42960242058E+03  0.00000000000E+00 0.  1.
          6    1    1    2  501    0  0.17901201176E+03  0.15098637136E+03  0.14051166679E+03  0.32328735391E+03  0.17300000000E+03 0.  1.
         -6    1    1    2    0  503 -0.17901201176E+03 -0.15098637136E+03 -0.27555377641E+03  0.40087537762E+03  0.17300000000E+03 0.  1.
</event>
<event>
 4    1  0.5956049E+000  0.1000000E+03  0.7546771E-02  0.1280296E+00
         21   -1    0    0  503  502  0.00000000000E+00  0.00000000000E+00  0.83530405190E+03  0.83530405190E+03  0.00000000000E+00 0. -1.
         21   -1    0    0  501  503 -0.00000000000E+00 -0.00000000000E+00 -0.48783788720E+03  0.48783788720E+03  0.00000000000E+00 0.  1.
          6    1    1    2  501    0  0.26321817937E+03 -0.10799275139E+02 -0.40158364639E+03  0.51048884350E+03  0.17300000000E+03 0.  1.
         -6    1    1    2    0  502 -0.26321817937E+03  0.10799275139E+02  0.74904981109E+03  0.81265309560E+03  0.17300000000E+03 0.  1.
</event>
<event>
 4    1  0.5956049E+000  0.1000000E+03  0.7546771E-02  0.1280296E+00
         21   -1    0    0  503  502  0.00000000000E+00  0.00000000000E+00  0.51591089645E+03  0.51591089645E+03  0.00000000000E+00 0.  1.
         21   -1    0    0  501  503 -0.00000000000E+00 -0.00000000000E+00 -0.21332207355E+03  0.21332207355E+03  0.00000000000E+00 0.  1.
          6    1    1    2  501    0 -0.15402140705E+03  0.50095164868E+02 -0.10385907891E+03  0.25874278279E+03  0.17300000000E+03 0.  1.
         -6    1    1    2    0  502  0.15402140705E+03 -0.50095164868E+02  0.40644790181E+03  0.47049018721E+03  0.17300000000E+03 0.  1.
</event>
<event>
 4    1  0.5956049E+000  0.1000000E+03  0.7546771E-02  0.1280296E+00
         21   -1    0    0  503  502  0.00000000000E+00  0.00000000000E+00  0.19345763024E+04  0.19345763024E+04  0.00000000000E+00 0.  1.
         21   -1    0    0  501  503 -0.00000000000E+00 -0.00000000000E+00 -0.30128065164E+02  0.30128065164E+02  0.00000000000E+00 0.  1.
          6    1    1    2  501    0 -0.44423799259E+02 -0.50351656016E+02  0.32386479049E+03  0.37326420365E+03  0.17300000000E+03 0.  1.
         -6    1    1    2    0  502  0.44423799259E+02  0.50351656016E+02  0.15805834468E+04  0.15914401639E+04  0.17300000000E+03 0.  1.
</event>
<event>
 4    1  0.5956049E+000  0.1000000E+03  0.7546771E-02  0.1280296E+00
         21   -1    0    0  503  502  0.00000000000E+00  0.00000000000E+00  0.37317200657E+03  0.37317200657E+03  0.00000000000E+00 0.  1.
         21   -1    0    0  501  503 -0.00000000000E+00 -0.00000000000E+00 -0.99334667521E+02  0.99334667521E+02  0.00000000000E+00 0.  1.
          6    1    1    2  501    0  0.60304494144E+02 -0.26066805134E+02  0.71712228699E+02  0.19846348301E+03  0.17300000000E+03 0.  1.
         -6    1    1    2    0  502 -0.60304494144E+02  0.26066805134E+02  0.20212511035E+03  0.27404319108E+03  0.17300000000E+03 0.  1.
</event>
<event>
 4    1  0.5956049E+000  0.1000000E+03  0.7546771E-02  0.1280296E+00
         21   -1    0    0  501  502  0.00000000000E+00  0.00000000000E+00  0.23906490496E+03  0.23906490496E+03  0.00000000000E+00 0.  1.
         21   -1    0    0  502  503 -0.00000000000E+00 -0.00000000000E+00 -0.20409068897E+03  0.20409068897E+03  0.00000000000E+00 0. -1.
          6    1    1    2  501    0  0.29861872943E+02  0.13401618989E+03  0.20635487434E+02  0.22182626975E+03  0.17300000000E+03 0. -1.
         -6    1    1    2    0  503 -0.29861872943E+02 -0.13401618989E+03  0.14338728554E+02  0.22132932419E+03  0.17300000000E+03 0. -1.
</event>
<event>
 4    1  0.5956049E+000  0.1000000E+03  0.7546771E-02  0.1280296E+00
         21   -1    0    0  501  502  0.00000000000E+00  0.00000000000E+00  0.75244109825E+02  0.75244109825E+02  0.00000000000E+00 0.  1.
         21   -1    0    0  502  503 -0.00000000000E+00 -0.00000000000E+00 -0.12899249158E+04  0.12899249158E+04  0.00000000000E+00 0. -1.
          6    1    1    2  501    0  0.21697325569E+02  0.25603267343E+03 -0.53445133810E+03  0.61773031057E+03  0.17300000000E+03 0. -1.
         -6    1    1    2    0  503 -0.21697325569E+02 -0.25603267343E+03 -0.68022946790E+03  0.74743871508E+03  0.17300000000E+03 0.  1.
</event>
<event>
 4    1  0.5956049E+000  0.1000000E+03  0.7546771E-02  0.1280296E+00
         21   -1    0    0  503  502  0.00000000000E+00  0.00000000000E+00  0.12963619933E+04  0.12963619933E+04  0.00000000000E+00 0. -1.
         21   -1    0    0  501  503 -0.00000000000E+00 -0.00000000000E+00 -0.84952394177E+02  0.84952394177E+02  0.00000000000E+00 0. -1.
          6    1    1    2  501    0  0.71353769010E+01  0.25553625142E+03  0.35208675080E+03  0.46823473759E+03  0.17300000000E+03 0. -1.
         -6    1    1    2    0  502 -0.71353769010E+01 -0.25553625142E+03  0.85932284835E+03  0.91307964991E+03  0.17300000000E+03 0. -1.
</event>
<event>
 4    1  0.5956049E+000  0.1000000E+03  0.7546771E-02  0.1280296E+00
         21   -1    0    0  503  502  0.00000000000E+00  0.00000000000E+00  0.53031045895E+02  0.53031045895E+02  0.00000000000E+00 0. -1.
         21   -1    0    0  501  503 -0.00000000000E+00 -0.00000000000E+00 -0.74511872970E+03  0.74511872970E+03  0.00000000000E+00 0. -1.
          6    1    1    2  501    0 -0.69511253370E+02  0.24501551968E+02 -0.21666226533E+03  0.28688617536E+03  0.17300000000E+03 0. -1.
         -6    1    1    2    0  502  0.69511253370E+02 -0.24501551968E+02 -0.47542541848E+03  0.51126360024E+03  0.17300000000E+03 0. -1.
</event>
<event>
 4    1  0.5956049E+000  0.1000000E+03  0.7546771E-02  0.1280296E+00
         21   -1    0    0  501  502  0.00000000000E+00  0.00000000000E+00  0.63853443385E+03  0.63853443385E+03  0.00000000000E+00 0. -1.
         21   -1    0    0  502  503 -0.00000000000E+00 -0.00000000000E+00 -0.92546840991E+02  0.92546840991E+02  0.00000000000E+00 0. -1.
          6    1    1    2  501    0 -0.71534781773E+01  0.11887598507E+03  0.45705291991E+03  0.50300004342E+03  0.17300000000E+03 0. -1.
         -6    1    1    2    0  503  0.71534781773E+01 -0.11887598507E+03  0.88934672949E+02  0.22808123143E+03  0.17300000000E+03 0. -1.
</event>
<event>
 4    1  0.5956049E+000  0.1000000E+03  0.7546771E-02  0.1280296E+00
         21   -1    0    0  501  502  0.00000000000E+00  0.00000000000E+00  0.30145887563E+03  0.30145887563E+03  0.00000000000E+00 0. -1.
         21   -1    0    0  502  503 -0.00000000000E+00 -0.00000000000E+00 -0.17477646584E+03  0.17477646584E+03  0.00000000000E+00 0. -1.
          6    1    1    2  501    0 -0.60265736392E+02 -0.13708804005E+03  0.82295033649E+02  0.24315954078E+03  0.17300000000E+03 0. -1.
         -6    1    1    2    0  503  0.60265736392E+02  0.13708804005E+03  0.44387376140E+02  0.23307580069E+03  0.17300000000E+03 0. -1.
</event>
<event>
 4    1  0.5956049E+000  0.1000000E+03  0.7546771E-02  0.1280296E+00
         21   -1    0    0  501  502  0.00000000000E+00  0.00000000000E+00  0.16118621010E+03  0.16118621010E+03  0.00000000000E+00 0. -1.
         21   -1    0    0  502  503 -0.00000000000E+00 -0.00000000000E+00 -0.20702767845E+03  0.20702767845E+03  0.00000000000E+00 0. -1.
          6    1    1    2  501    0 -0.13608836916E+02  0.37106240482E+02  0.20765811839E+02  0.17866810702E+03  0.17300000000E+03 0. -1.
         -6    1    1    2    0  503  0.13608836916E+02 -0.37106240482E+02 -0.66607280189E+02  0.18954578154E+03  0.17300000000E+03 0. -1.
</event>
<event>
 4    1  0.5956049E+000  0.1000000E+03  0.7546771E-02  0.1280296E+00
         21   -1    0    0  501  502  0.00000000000E+00  0.00000000000E+00  0.15589585526E+04  0.15589585526E+04  0.00000000000E+00 0. -1.
         21   -1    0    0  502  503 -0.00000000000E+00 -0.00000000000E+00 -0.42673165572E+02  0.42673165572E+02  0.00000000000E+00 0. -1.
          6    1    1    2  501    0 -0.17945703376E+03  0.64546979855E+02  0.80477275338E+03  0.84496113766E+03  0.17300000000E+03 0. -1.
         -6    1    1    2    0  503  0.17945703376E+03 -0.64546979855E+02  0.71151263367E+03  0.75667058053E+03  0.17300000000E+03 0. -1.
</event>
<event>
 4    1  0.5956049E+000  0.1000000E+03  0.7546771E-02  0.1280296E+00
         21   -1    0    0  501  502  0.00000000000E+00  0.00000000000E+00  0.44329731414E+03  0.44329731414E+03  0.00000000000E+00 0. -1.
         21   -1    0    0  502  503 -0.00000000000E+00 -0.00000000000E+00 -0.12119276319E+04  0.12119276319E+04  0.00000000000E+00 0. -1.
          6    1    1    2  501    0 -0.65577390756E+03 -0.10848717789E+03 -0.95325083094E+02  0.69341528471E+03  0.17300000000E+03 0. -1.
         -6    1    1    2    0  503  0.65577390756E+03  0.10848717789E+03 -0.67330523467E+03  0.96180966134E+03  0.17300000000E+03 0. -1.
</event>
<event>
 4    1  0.5956049E+000  0.1000000E+03  0.7546771E-02  0.1280296E+00
         21   -1    0    0  501  502  0.00000000000E+00  0.00000000000E+00  0.18778203678E+03  0.18778203678E+03  0.00000000000E+00 0. -1.
         21   -1    0    0  502  503 -0.00000000000E+00 -0.00000000000E+00 -0.20150899253E+03  0.20150899253E+03  0.00000000000E+00 0. -1.
          6    1    1    2  501    0 -0.15854314323E+02 -0.76689264623E+02  0.35331073001E+02  0.19315767474E+03  0.17300000000E+03 0. -1.
         -6    1    1    2    0  503  0.15854314323E+02  0.76689264623E+02 -0.49058028752E+02  0.19613335457E+03  0.17300000000E+03 0. -1.
</event>
<event>
 4    1  0.5956049E+000  0.1000000E+03  0.7546771E-02  0.1280296E+00
         21   -1    0    0  501  502  0.00000000000E+00  0.00000000000E+00  0.30045393251E+03  0.30045393251E+03  0.00000000000E+00 0. -1.
         21   -1    0    0  502  503 -0.00000000000E+00 -0.00000000000E+00 -0.17982792614E+03  0.17982792614E+03  0.00000000000E+00 0. -1.
          6    1    1    2  501    0 -0.48281482170E+02 -0.13878594411E+03  0.11205513042E+03  0.25313631122E+03  0.17300000000E+03 0. -1.
         -6    1    1    2    0  503  0.48281482170E+02  0.13878594411E+03  0.85708759491E+01  0.22714554743E+03  0.17300000000E+03 0. -1.
</event>
<event>
 4    1  0.5956049E+000  0.1000000E+03  0.7546771E-02  0.1280296E+00
         21   -1    0    0  501  502  0.00000000000E+00  0.00000000000E+00  0.10768750319E+04  0.10768750319E+04  0.00000000000E+00 0. -1.
         21   -1    0    0  502  503 -0.00000000000E+00 -0.00000000000E+00 -0.54074328869E+02  0.54074328869E+02  0.00000000000E+00 0. -1.
          6    1    1    2  501    0  0.82345164918E+02 -0.41515446927E+02  0.84112088731E+03  0.86366521615E+03  0.17300000000E+03 0. -1.
         -6    1    1    2    0  503 -0.82345164918E+02  0.41515446927E+02  0.18167981569E+03  0.26728414459E+03  0.17300000000E+03 0. -1.
</event>
<event>
 4    1  0.5956049E+000  0.1000000E+03  0.7546771E-02  0.1280296E+00
         21   -1    0    0  503  502  0.00000000000E+00  0.00000000000E+00  0.56097749277E+03  0.56097749277E+03  0.00000000000E+00 0.  1.
         21   -1    0    0  501  503 -0.00000000000E+00 -0.00000000000E+00 -0.17742820946E+03  0.17742820946E+03  0.00000000000E+00 0. -1.
          6    1    1    2  501    0 -0.18467867270E+03  0.87889578422E+02 -0.32528544952E+01  0.26789992760E+03  0.17300000000E+03 0.  1.
         -6    1    1    2    0  502  0.18467867270E+03 -0.87889578422E+02  0.38680213781E+03  0.47050577463E+03  0.17300000000E+03 0.  1.
</event>
<event>
 4    1  0.5956049E+000  0.1000000E+03  0.7546771E-02  0.1280296E+00
         21   -1    0    0  503  502  0.00000000000E+00  0.00000000000E+00  0.48000604426E+03  0.48000604426E+03  0.00000000000E+00 0.  1.
         21   -1    0    0  501  503 -0.00000000000E+00 -0.00000000000E+00 -0.80563220586E+02  0.80563220586E+02  0.00000000000E+00 0. -1.
          6    1    1    2  501    0 -0.31220981641E+02  0.68791875671E+02  0.12120331411E+03  0.22433527410E+03  0.17300000000E+03 0.  1.
         -6    1    1    2    0  502  0.31220981641E+02 -0.68791875671E+02  0.27823950957E+03  0.33623399075E+03  0.17300000000E+03 0.  1.
</event>
<event>
 4    1  0.5956049E+000  0.1000000E+03  0.7546771E-02  0.1280296E+00
         21   -1    0    0  503  502  0.00000000000E+00  0.00000000000E+00  0.66659485945E+03  0.66659485945E+03  0.00000000000E+00 0.  1.
         21   -1    0    0  501  503 -0.00000000000E+00 -0.00000000000E+00 -0.18451030296E+03  0.18451030296E+03  0.00000000000E+00 0. -1.
          6    1    1    2  501    0  0.29844557379E+03 -0.43432579743E+02  0.29676029478E+03  0.45711248293E+03  0.17300000000E+03 0.  1.
         -6    1    1    2    0  502 -0.29844557379E+03  0.43432579743E+02  0.18532426171E+03  0.39399267947E+03  0.17300000000E+03 0.  1.
</event>
<event>
 4    1  0.5956049E+000  0.1000000E+03  0.7546771E-02  0.1280296E+00
         21   -1    0    0  503  502  0.00000000000E+00  0.00000000000E+00  0.33366590848E+02  0.33366590848E+02  0.00000000000E+00 0.  1.
         21   -1    0    0  501  503 -0.00000000000E+00 -0.00000000000E+00 -0.24841022089E+04  0.24841022089E+04  0.00000000000E+00 0. -1.
          6    1    1    2  501    0 -0.94418881858E+02 -0.18534601209E+02 -0.21393275000E+04  0.21484668043E+04  0.17300000000E+03 0.  1.
         -6    1    1    2    0  502  0.94418881858E+02  0.18534601209E+02 -0.31140811803E+03  0.36900199548E+03  0.17300000000E+03 0.  1.
</event>
<event>
 4    1  0.5956049E+000  0.1000000E+03  0.7546771E-02  0.1280296E+00
         21   -1    0    0  503  502  0.00000000000E+00  0.00000000000E+00  0.18241952103E+03  0.18241952103E+03  0.00000000000E+00 0. -1.
         21   -1    0    0  501  503 -0.00000000000E+00 -0.00000000000E+00 -0.54794213765E+03  0.54794213765E+03  0.00000000000E+00 0. -1.
          6    1    1    2  501    0 -0.14568984362E+02  0.15485462840E+03 -0.43004727226E+03  0.48893953371E+03  0.17300000000E+03 0. -1.
         -6    1    1    2    0  502  0.14568984362E+02 -0.15485462840E+03  0.64524655640E+02  0.24142212498E+03  0.17300000000E+03 0. -1.
</event>
<event>
 4    1  0.5956049E+000  0.1000000E+03  0.7546771E-02  0.1280296E+00
         21   -1    0    0  503  502  0.00000000000E+00  0.00000000000E+00  0.32483639137E+03  0.32483639137E+03  0.00000000000E+00 0. -1.
         21   -1    0    0  501  503 -0.00000000000E+00 -0.00000000000E+00 -0.65439959131E+03  0.65439959131E+03  0.00000000000E+00 0.  1.
          6    1    1    2  501    0  0.31049402879E+03 -0.17839571032E+02  0.14649620157E+03  0.38485702447E+03  0.17300000000E+03 0.  1.
         -6    1    1    2    0  502 -0.31049402879E+03  0.17839571032E+02 -0.47605940151E+03  0.59437895822E+03  0.17300000000E+03 0. -1.
</event>
<event>
 4    1  0.5956049E+000  0.1000000E+03  0.7546771E-02  0.1280296E+00
         21   -1    0    0  503  502  0.00000000000E+00  0.00000000000E+00  0.33808722357E+03  0.33808722357E+03  0.00000000000E+00 0. -1.
         21   -1    0    0  501  503 -0.00000000000E+00 -0.00000000000E+00 -0.37408314246E+03  0.37408314246E+03  0.00000000000E+00 0.  1.
          6    1    1    2  501    0 -0.10059935584E+03 -0.13360099687E+03 -0.28019999829E+03  0.36933791547E+03  0.17300000000E+03 0.  1.
         -6    1    1    2    0  502  0.10059935584E+03  0.13360099687E+03  0.24420407941E+03  0.34283245056E+03  0.17300000000E+03 0. -1.
</event>
<event>
 4    1  0.5956049E+000  0.1000000E+03  0.7546771E-02  0.1280296E+00
         21   -1    0    0  503  502  0.00000000000E+00  0.00000000000E+00  0.15738841989E+04  0.15738841989E+04  0.00000000000E+00 0. -1.
         21   -1    0    0  501  503 -0.00000000000E+00 -0.00000000000E+00 -0.30810438079E+02  0.30810438079E+02  0.00000000000E+00 0.  1.
          6    1    1    2  501    0  0.21119261717E+01 -0.12144425816E+03  0.54663996250E+03  0.58608652661E+03  0.17300000000E+03 0.  1.
         -6    1    1    2    0  502 -0.21119261717E+01  0.12144425816E+03  0.99643379831E+03  0.10186081104E+04  0.17300000000E+03 0. -1.
</event>
<event>
 4    1  0.5956049E+000  0.1000000E+03  0.7546771E-02  0.1280296E+00
         21   -1    0    0  501  502  0.00000000000E+00  0.00000000000E+00  0.62131990055E+03  0.62131990055E+03  0.00000000000E+00 0. -1.
         21   -1    0    0  502  503 -0.00000000000E+00 -0.00000000000E+00 -0.16896536399E+03  0.16896536399E+03  0.00000000000E+00 0. -1.
          6    1    1    2  501    0 -0.24860384109E+03  0.41330983468E+01  0.36645975116E+03  0.47543948250E+03  0.17300000000E+03 0. -1.
         -6    1    1    2    0  503  0.24860384109E+03 -0.41330983468E+01  0.85894785399E+02  0.31484578203E+03  0.17300000000E+03 0. -1.
</event>
<event>
 4    1  0.5956049E+000  0.1000000E+03  0.7546771E-02  0.1280296E+00
         21   -1    0    0  501  502  0.00000000000E+00  0.00000000000E+00  0.11196512527E+04  0.11196512527E+04  0.00000000000E+00 0. -1.
         21   -1    0    0  502  503 -0.00000000000E+00 -0.00000000000E+00 -0.35366280244E+02  0.35366280244E+02  0.00000000000E+00 0. -1.
          6    1    1    2  501    0  0.40266808675E+02  0.26813284193E+01  0.80237315877E+03  0.82180307332E+03  0.17300000000E+03 0. -1.
         -6    1    1    2    0  503 -0.40266808675E+02 -0.26813284193E+01  0.28191181365E+03  0.33321445958E+03  0.17300000000E+03 0. -1.
</event>
<event>
 4    1  0.5956049E+000  0.1000000E+03  0.7546771E-02  0.1280296E+00
         21   -1    0    0  501  502  0.00000000000E+00  0.00000000000E+00  0.35153150098E+03  0.35153150098E+03  0.00000000000E+00 0. -1.
         21   -1    0    0  502  503 -0.00000000000E+00 -0.00000000000E+00 -0.30238104829E+03  0.30238104829E+03  0.00000000000E+00 0. -1.
          6    1    1    2  501    0 -0.17842097538E+03 -0.27867557651E+02  0.23434993999E+03  0.34272370738E+03  0.17300000000E+03 0. -1.
         -6    1    1    2    0  503  0.17842097538E+03  0.27867557651E+02 -0.18519948730E+03  0.31118884190E+03  0.17300000000E+03 0. -1.
</event>
<event>
 4    1  0.5956049E+000  0.1000000E+03  0.7546771E-02  0.1280296E+00
         21   -1    0    0  501  502  0.00000000000E+00  0.00000000000E+00  0.26292425180E+03  0.26292425180E+03  0.00000000000E+00 0. -1.
         21   -1    0    0  502  503 -0.00000000000E+00 -0.00000000000E+00 -0.12679582051E+03  0.12679582051E+03  0.00000000000E+00 0. -1.
          6    1    1    2  501    0  0.28548810683E+02 -0.44244111209E+02  0.94981088555E+02  0.20426204530E+03  0.17300000000E+03 0. -1.
         -6    1    1    2    0  503 -0.28548810683E+02  0.44244111209E+02  0.41147342732E+02  0.18545802701E+03  0.17300000000E+03 0. -1.
</event>
<event>
 4    1  0.5956049E+000  0.1000000E+03  0.7546771E-02  0.1280296E+00
         21   -1    0    0  501  502  0.00000000000E+00  0.00000000000E+00  0.72736232655E+03  0.72736232655E+03  0.00000000000E+00 0.  1.
         21   -1    0    0  502  503 -0.00000000000E+00 -0.00000000000E+00 -0.88033584911E+02  0.88033584911E+02  0.00000000000E+00 0. -1.
          6    1    1    2  501    0  0.18024523610E+03  0.16191981866E+02  0.37892329527E+03  0.45416119288E+03  0.17300000000E+03 0.  1.
         -6    1    1    2    0  503 -0.18024523610E+03 -0.16191981866E+02  0.26040544636E+03  0.36123471858E+03  0.17300000000E+03 0. -1.
</event>
<event>
 4    1  0.5956049E+000  0.1000000E+03  0.7546771E-02  0.1280296E+00
         21   -1    0    0  501  502  0.00000000000E+00  0.00000000000E+00  0.10125206450E+04  0.10125206450E+04  0.00000000000E+00 0. -1.
         21   -1    0    0  502  503 -0.00000000000E+00 -0.00000000000E+00 -0.37271136401E+02  0.37271136401E+02  0.00000000000E+00 0. -1.
          6    1    1    2  501    0 -0.50141672243E+02  0.24461319756E+02  0.67279047525E+03  0.69691360084E+03  0.17300000000E+03 0. -1.
         -6    1    1    2    0  503  0.50141672243E+02 -0.24461319756E+02  0.30245903339E+03  0.35287818059E+03  0.17300000000E+03 0. -1.
</event>
<event>
 4    1  0.5956049E+000  0.1000000E+03  0.7546771E-02  0.1280296E+00
         21   -1    0    0  503  502  0.00000000000E+00  0.00000000000E+00  0.77192834376E+03  0.77192834376E+03  0.00000000000E+00 0.  1.
         21   -1    0    0  501  503 -0.00000000000E+00 -0.00000000000E+00 -0.58328536744E+02  0.58328536744E+02  0.00000000000E+00 0. -1.
          6    1    1    2  501    0 -0.70316958315E+02 -0.91265277674E+02  0.27327766191E+03  0.34334167536E+03  0.17300000000E+03 0. -1.
         -6    1    1    2    0  502  0.70316958315E+02  0.91265277674E+02  0.44032214511E+03  0.48691520515E+03  0.17300000000E+03 0.  1.
</event>
<event>
 4    1  0.5956049E+000  0.1000000E+03  0.7546771E-02  0.1280296E+00
         21   -1    0    0  503  502  0.00000000000E+00  0.00000000000E+00  0.46328761638E+03  0.46328761638E+03  0.00000000000E+00 0.  1.
         21   -1    0    0  501  503 -0.00000000000E+00 -0.00000000000E+00 -0.77461208776E+02  0.77461208776E+02  0.00000000000E+00 0. -1.
          6    1    1    2  501    0  0.25084701752E+02 -0.25357226118E+02  0.29060995880E+03  0.34008143044E+03  0.17300000000E+03 0. -1.
         -6    1    1    2    0  502 -0.25084701752E+02  0.25357226118E+02  0.95216448807E+02  0.20066739472E+03  0.17300000000E+03 0.  1.
</event>
<event>
 4    1  0.5956049E+000  0.1000000E+03  0.7546771E-02  0.1280296E+00
         21   -1    0    0  501  502  0.00000000000E+00  0.00000000000E+00  0.28642059387E+03  0.28642059387E+03  0.00000000000E+00 0.  1.
         21   -1    0    0  502  503 -0.00000000000E+00 -0.00000000000E+00 -0.19323316526E+03  0.19323316526E+03  0.00000000000E+00 0. -1.
          6    1    1    2  501    0 -0.82976094353E+02  0.18591757449E+02  0.18406966977E+03  0.26653579311E+03  0.17300000000E+03 0.  1.
         -6    1    1    2    0  503  0.82976094353E+02 -0.18591757449E+02 -0.90882241161E+02  0.21311796601E+03  0.17300000000E+03 0. -1.
</event>
<event>
 4    1  0.5956049E+000  0.1000000E+03  0.7546771E-02  0.1280296E+00
         21   -1    0    0  501  502  0.00000000000E+00  0.00000000000E+00  0.48131511468E+02  0.48131511468E+02  0.00000000000E+00 0.  1.
         21   -1    0    0  502  503 -0.00000000000E+00 -0.00000000000E+00 -0.12120700179E+04  0.12120700179E+04  0.00000000000E+00 0. -1.
          6    1    1    2  501    0 -0.10283370347E+03  0.11388501276E+03 -0.40000690188E+03  0.46203797274E+03  0.17300000000E+03 0.  1.
         -6    1    1    2    0  503  0.10283370347E+03 -0.11388501276E+03 -0.76393160459E+03  0.79816355667E+03  0.17300000000E+03 0. -1.
</event>
<event>
 4    1  0.5956049E+000  0.1000000E+03  0.7546771E-02  0.1280296E+00
         21   -1    0    0  501  502  0.00000000000E+00  0.00000000000E+00  0.73417067188E+03  0.73417067188E+03  0.00000000000E+00 0. -1.
         21   -1    0    0  502  503 -0.00000000000E+00 -0.00000000000E+00 -0.90269264457E+02  0.90269264457E+02  0.00000000000E+00 0. -1.
          6    1    1    2  501    0  0.75855415068E+02 -0.16710751785E+03  0.40461456438E+03  0.47678182875E+03  0.17300000000E+03 0. -1.
         -6    1    1    2    0  503 -0.75855415068E+02  0.16710751785E+03  0.23928684304E+03  0.34765810759E+03  0.17300000000E+03 0. -1.
</event>
<event>
 4    1  0.5956049E+000  0.1000000E+03  0.7546771E-02  0.1280296E+00
         21   -1    0    0  503  502  0.00000000000E+00  0.00000000000E+00  0.36838597503E+02  0.36838597503E+02  0.00000000000E+00 0.  1.
         21   -1    0    0  501  503 -0.00000000000E+00 -0.00000000000E+00 -0.13167257554E+04  0.13167257554E+04  0.00000000000E+00 0.  1.
          6    1    1    2  501    0 -0.32432234502E+02 -0.77384111685E+02 -0.97000862085E+03  0.98888112283E+03  0.17300000000E+03 0.  1.
         -6    1    1    2    0  502  0.32432234502E+02  0.77384111685E+02 -0.30987853710E+03  0.36468323012E+03  0.17300000000E+03 0.  1.
</event>
<event>
 4    1  0.5956049E+000  0.1000000E+03  0.7546771E-02  0.1280296E+00
         21   -1    0    0  503  502  0.00000000000E+00  0.00000000000E+00  0.34698326011E+03  0.34698326011E+03  0.00000000000E+00 0.  1.
         21   -1    0    0  501  503 -0.00000000000E+00 -0.00000000000E+00 -0.29306383039E+03  0.29306383039E+03  0.00000000000E+00 0.  1.
          6    1    1    2  501    0  0.10051084528E+02  0.15571135529E+03 -0.19156048078E+03  0.30161476798E+03  0.17300000000E+03 0.  1.
         -6    1    1    2    0  502 -0.10051084528E+02 -0.15571135529E+03  0.24547991050E+03  0.33843232252E+03  0.17300000000E+03 0.  1.
</event>
<event>
 4    1  0.5956049E+000  0.1000000E+03  0.7546771E-02  0.1280296E+00
         21   -1    0    0  503  502  0.00000000000E+00  0.00000000000E+00  0.60334430623E+03  0.60334430623E+03  0.00000000000E+00 0.  1.
         21   -1    0    0  501  503 -0.00000000000E+00 -0.00000000000E+00 -0.14510486516E+03  0.14510486516E+03  0.00000000000E+00 0.  1.
          6    1    1    2  501    0  0.11287021442E+03  0.23787024701E+02 -0.37122949319E+02  0.21121700029E+03  0.17300000000E+03 0.  1.
         -6    1    1    2    0  502 -0.11287021442E+03 -0.23787024701E+02  0.49536239039E+03  0.53723217109E+03  0.17300000000E+03 0.  1.
</event>
<event>
 4    1  0.5956049E+000  0.1000000E+03  0.7546771E-02  0.1280296E+00
         21   -1    0    0  503  502  0.00000000000E+00  0.00000000000E+00  0.36419870568E+02  0.36419870568E+02  0.00000000000E+00 0.  1.
         21   -1    0    0  501  503 -0.00000000000E+00 -0.00000000000E+00 -0.17369268049E+04  0.17369268049E+04  0.00000000000E+00 0.  1.
          6    1    1    2  501    0  0.10055742616E+03  0.38617592997E+02 -0.13698891024E+04  0.13849650780E+04  0.17300000000E+03 0.  1.
         -6    1    1    2    0  502 -0.10055742616E+03 -0.38617592997E+02 -0.33061783191E+03  0.38838159743E+03  0.17300000000E+03 0.  1.
</event>
<event>
 4    1  0.5956049E+000  0.1000000E+03  0.7546771E-02  0.1280296E+00
         21   -1    0    0  501  502  0.00000000000E+00  0.00000000000E+00  0.18251620693E+03  0.18251620693E+03  0.00000000000E+00 0.  1.
         21   -1    0    0  502  503 -0.00000000000E+00 -0.00000000000E+00 -0.12122037048E+04  0.12122037048E+04  0.00000000000E+00 0.  1.
          6    1    1    2  501    0  0.13963647328E+03 -0.21918444201E+03  0.67586920552E+01  0.31227366877E+03  0.17300000000E+03 0.  1.
         -6    1    1    2    0  503 -0.13963647328E+03  0.21918444201E+03 -0.10364461900E+04  0.10824462430E+04  0.17300000000E+03 0.  1.
</event>
<event>
 4    1  0.5956049E+000  0.1000000E+03  0.7546771E-02  0.1280296E+00
         21   -1    0    0  503  502  0.00000000000E+00  0.00000000000E+00  0.10733998036E+03  0.10733998036E+03  0.00000000000E+00 0.  1.
         21   -1    0    0  501  503 -0.00000000000E+00 -0.00000000000E+00 -0.37376762740E+03  0.37376762740E+03  0.00000000000E+00 0.  1.
          6    1    1    2  501    0 -0.75806748748E+01 -0.90591251013E+02 -0.18593291616E+03  0.26974856942E+03  0.17300000000E+03 0.  1.
         -6    1    1    2    0  502  0.75806748748E+01  0.90591251013E+02 -0.80494730876E+02  0.21135903835E+03  0.17300000000E+03 0.  1.
</event>
<event>
 4    1  0.5956049E+000  0.1000000E+03  0.7546771E-02  0.1280296E+00
         21   -1    0    0  503  502  0.00000000000E+00  0.00000000000E+00  0.17137135396E+04  0.17137135396E+04  0.00000000000E+00 0.  1.
         21   -1    0    0  501  503 -0.00000000000E+00 -0.00000000000E+00 -0.48021631953E+02  0.48021631953E+02  0.00000000000E+00 0. -1.
          6    1    1    2  501    0 -0.17347115401E+02  0.79508245666E+02  0.17611217526E+03  0.25993649574E+03  0.17300000000E+03 0.  1.
         -6    1    1    2    0  502  0.17347115401E+02 -0.79508245666E+02  0.14895797324E+04  0.15017986758E+04  0.17300000000E+03 0. -1.
</event>
<event>
 4    1  0.5956049E+000  0.1000000E+03  0.7546771E-02  0.1280296E+00
         21   -1    0    0  503  502  0.00000000000E+00  0.00000000000E+00  0.73046900473E+02  0.73046900473E+02  0.00000000000E+00 0.  1.
         21   -1    0    0  501  503 -0.00000000000E+00 -0.00000000000E+00 -0.75563071498E+03  0.75563071498E+03  0.00000000000E+00 0. -1.
          6    1    1    2  501    0  0.12791535824E+03 -0.48646533441E+02 -0.48390001268E+03  0.53180545913E+03  0.17300000000E+03 0.  1.
         -6    1    1    2    0  502 -0.12791535824E+03  0.48646533441E+02 -0.19868380183E+03  0.29687215632E+03  0.17300000000E+03 0. -1.
</event>
<event>
 4    1  0.5956049E+000  0.1000000E+03  0.7546771E-02  0.1280296E+00
         21   -1    0    0  501  502  0.00000000000E+00  0.00000000000E+00  0.10844346824E+04  0.10844346824E+04  0.00000000000E+00 0. -1.
         21   -1    0    0  502  503 -0.00000000000E+00 -0.00000000000E+00 -0.73525620111E+02  0.73525620111E+02  0.00000000000E+00 0. -1.
          6    1    1    2  501    0  0.18592823653E+02 -0.80880216963E+02  0.93023005220E+03  0.94981274608E+03  0.17300000000E+03 0. -1.
         -6    1    1    2    0  503 -0.18592823653E+02  0.80880216963E+02  0.80679010109E+02  0.20814755646E+03  0.17300000000E+03 0. -1.
</event>
<event>
 4    1  0.5956049E+000  0.1000000E+03  0.7546771E-02  0.1280296E+00
         21   -1    0    0  501  502  0.00000000000E+00  0.00000000000E+00  0.17597479563E+03  0.17597479563E+03  0.00000000000E+00 0. -1.
         21   -1    0    0  502  503 -0.00000000000E+00 -0.00000000000E+00 -0.37905938630E+03  0.37905938630E+03  0.00000000000E+00 0. -1.
          6    1    1    2  501    0  0.14461567059E+03  0.12372693776E+03 -0.12682987343E+03  0.28676970569E+03  0.17300000000E+03 0. -1.
         -6    1    1    2    0  503 -0.14461567059E+03 -0.12372693776E+03 -0.76254717233E+02  0.26826447623E+03  0.17300000000E+03 0. -1.
</event>
<event>
 4    1  0.5956049E+000  0.1000000E+03  0.7546771E-02  0.1280296E+00
         21   -1    0    0  501  502  0.00000000000E+00  0.00000000000E+00  0.10365117898E+04  0.10365117898E+04  0.00000000000E+00 0. -1.
         21   -1    0    0  502  503 -0.00000000000E+00 -0.00000000000E+00 -0.69119481831E+02  0.69119481831E+02  0.00000000000E+00 0. -1.
          6    1    1    2  501    0 -0.10999337533E+03  0.17222812935E+02  0.83734110353E+03  0.86224375414E+03  0.17300000000E+03 0. -1.
         -6    1    1    2    0  503  0.10999337533E+03 -0.17222812935E+02  0.13005120449E+03  0.24338751753E+03  0.17300000000E+03 0. -1.
</event>
<event>
 4    1  0.5956049E+000  0.1000000E+03  0.7546771E-02  0.1280296E+00
         21   -1    0    0  501  502  0.00000000000E+00  0.00000000000E+00  0.36902454671E+03  0.36902454671E+03  0.00000000000E+00 0. -1.
         21   -1    0    0  502  503 -0.00000000000E+00 -0.00000000000E+00 -0.17324687305E+03  0.17324687305E+03  0.00000000000E+00 0. -1.
          6    1    1    2  501    0 -0.11552975206E+03  0.14008042842E+03  0.13236535405E+03  0.28358285736E+03  0.17300000000E+03 0. -1.
         -6    1    1    2    0  503  0.11552975206E+03 -0.14008042842E+03  0.63412319602E+02  0.25868856239E+03  0.17300000000E+03 0. -1.
</event>
<event>
 4    1  0.5956049E+000  0.1000000E+03  0.7546771E-02  0.1280296E+00
         21   -1    0    0  501  502  0.00000000000E+00  0.00000000000E+00  0.38504595054E+03  0.38504595054E+03  0.00000000000E+00 0. -1.
         21   -1    0    0  502  503 -0.00000000000E+00 -0.00000000000E+00 -0.10958321394E+03  0.10958321394E+03  0.00000000000E+00 0. -1.
          6    1    1    2  501    0  0.33261713413E+02  0.76358936838E+02  0.22561858351E+03  0.29625963957E+03  0.17300000000E+03 0. -1.
         -6    1    1    2    0  503 -0.33261713413E+02 -0.76358936838E+02  0.49844153098E+02  0.19836952491E+03  0.17300000000E+03 0. -1.
</event>
<event>
 4    1  0.5956049E+000  0.1000000E+03  0.7546771E-02  0.1280296E+00
         21   -1    0    0  503  502  0.00000000000E+00  0.00000000000E+00  0.13775821925E+03  0.13775821925E+03  0.00000000000E+00 0.  1.
         21   -1    0    0  501  503 -0.00000000000E+00 -0.00000000000E+00 -0.29860192930E+03  0.29860192930E+03  0.00000000000E+00 0.  1.
          6    1    1    2  501    0 -0.84805188599E+02 -0.30525096508E+02 -0.14014438682E+03  0.24019398553E+03  0.17300000000E+03 0.  1.
         -6    1    1    2    0  502  0.84805188599E+02  0.30525096508E+02 -0.20699323240E+02  0.19616616302E+03  0.17300000000E+03 0.  1.
</event>
<event>
 4    1  0.5956049E+000  0.1000000E+03  0.7546771E-02  0.1280296E+00
         21   -1    0    0  503  502  0.00000000000E+00  0.00000000000E+00  0.80774796813E+03  0.80774796813E+03  0.00000000000E+00 0.  1.
         21   -1    0    0  501  503 -0.00000000000E+00 -0.00000000000E+00 -0.68652015459E+02  0.68652015459E+02  0.00000000000E+00 0. -1.
          6    1    1    2  501    0  0.12649346909E+03  0.64047909234E+02  0.23252945632E+03  0.32264792027E+03  0.17300000000E+03 0. -1.
         -6    1    1    2    0  502 -0.12649346909E+03 -0.64047909234E+02  0.50656649635E+03  0.55375206332E+03  0.17300000000E+03 0.  1.
</event>
<event>
 4    1  0.5956049E+000  0.1000000E+03  0.7546771E-02  0.1280296E+00
         21   -1    0    0  503  502  0.00000000000E+00  0.00000000000E+00  0.50406930530E+03  0.50406930530E+03  0.00000000000E+00 0.  1.
         21   -1    0    0  501  503 -0.00000000000E+00 -0.00000000000E+00 -0.13396725806E+03  0.13396725806E+03  0.00000000000E+00 0. -1.
          6    1    1    2  501    0 -0.73355829510E+02  0.11287195402E+03  0.13714369647E+02  0.21963205518E+03  0.17300000000E+03 0. -1.
         -6    1    1    2    0  502  0.73355829510E+02 -0.11287195402E+03  0.35638767759E+03  0.41840450818E+03  0.17300000000E+03 0.  1.
</event>
<event>
 4    1  0.5956049E+000  0.1000000E+03  0.7546771E-02  0.1280296E+00
         21   -1    0    0  503  502  0.00000000000E+00  0.00000000000E+00  0.78945042127E+03  0.78945042127E+03  0.00000000000E+00 0.  1.
         21   -1    0    0  501  503 -0.00000000000E+00 -0.00000000000E+00 -0.90770419993E+02  0.90770419993E+02  0.00000000000E+00 0. -1.
          6    1    1    2  501    0 -0.58300217090E+02  0.14750856841E+03  0.13769149396E+03  0.27211328629E+03  0.17300000000E+03 0. -1.
         -6    1    1    2    0  502  0.58300217090E+02 -0.14750856841E+03  0.56098850732E+03  0.60810755498E+03  0.17300000000E+03 0.  1.
</event>
<event>
 4    1  0.5956049E+000  0.1000000E+03  0.7546771E-02  0.1280296E+00
         21   -1    0    0  503  502  0.00000000000E+00  0.00000000000E+00  0.10544770776E+03  0.10544770776E+03  0.00000000000E+00 0. -1.
         21   -1    0    0  501  503 -0.00000000000E+00 -0.00000000000E+00 -0.11179090847E+04  0.11179090847E+04  0.00000000000E+00 0. -1.
          6    1    1    2  501    0 -0.16815105714E+03 -0.41211358154E+02 -0.93520958261E+03  0.96670528987E+03  0.17300000000E+03 0. -1.
         -6    1    1    2    0  502  0.16815105714E+03  0.41211358154E+02 -0.77251794343E+02  0.25665150260E+03  0.17300000000E+03 0. -1.
</event>
<event>
 4    1  0.5956049E+000  0.1000000E+03  0.7546771E-02  0.1280296E+00
         21   -1    0    0  503  502  0.00000000000E+00  0.00000000000E+00  0.30643689539E+03  0.30643689539E+03  0.00000000000E+00 0. -1.
         21   -1    0    0  501  503 -0.00000000000E+00 -0.00000000000E+00 -0.72579832445E+03  0.72579832445E+03  0.00000000000E+00 0. -1.
          6    1    1    2  501    0  0.23345839989E+03 -0.12818091049E+02 -0.61595451812E+03  0.68117258924E+03  0.17300000000E+03 0. -1.
         -6    1    1    2    0  502 -0.23345839989E+03  0.12818091049E+02  0.19659308906E+03  0.35106263060E+03  0.17300000000E+03 0. -1.
</event>
<event>
 4    1  0.5956049E+000  0.1000000E+03  0.7546771E-02  0.1280296E+00
         21   -1    0    0  503  502  0.00000000000E+00  0.00000000000E+00  0.47328586007E+03  0.47328586007E+03  0.00000000000E+00 0. -1.
         21   -1    0    0  501  503 -0.00000000000E+00 -0.00000000000E+00 -0.13282338333E+03  0.13282338333E+03  0.00000000000E+00 0. -1.
          6    1    1    2  501    0  0.12619718482E+03  0.78655670954E+02  0.44490691456E+02  0.23242389218E+03  0.17300000000E+03 0. -1.
         -6    1    1    2    0  502 -0.12619718482E+03 -0.78655670954E+02  0.29597178528E+03  0.37368535122E+03  0.17300000000E+03 0. -1.
</event>
<event>
 4    1  0.5956049E+000  0.1000000E+03  0.7546771E-02  0.1280296E+00
         21   -1    0    0  503  502  0.00000000000E+00  0.00000000000E+00  0.65380043513E+02  0.65380043513E+02  0.00000000000E+00 0. -1.
         21   -1    0    0  501  503 -0.00000000000E+00 -0.00000000000E+00 -0.11792004619E+04  0.11792004619E+04  0.00000000000E+00 0. -1.
          6    1    1    2  501    0 -0.10830064609E+03  0.90146696992E+02 -0.92729326110E+03  0.95375953416E+03  0.17300000000E+03 0. -1.
         -6    1    1    2    0  502  0.10830064609E+03 -0.90146696992E+02 -0.18652715733E+03  0.29082097129E+03  0.17300000000E+03 0. -1.
</event>
<event>
 4    1  0.5956049E+000  0.1000000E+03  0.7546771E-02  0.1280296E+00
         21   -1    0    0  503  502  0.00000000000E+00  0.00000000000E+00  0.12835644797E+03  0.12835644797E+03  0.00000000000E+00 0. -1.
         21   -1    0    0  501  503 -0.00000000000E+00 -0.00000000000E+00 -0.34331295378E+03  0.34331295378E+03  0.00000000000E+00 0.  1.
          6    1    1    2  501    0 -0.19945923239E+02 -0.87277024387E+02 -0.19538283476E+03  0.27589594227E+03  0.17300000000E+03 0. -1.
         -6    1    1    2    0  502  0.19945923239E+02  0.87277024387E+02 -0.19573671053E+02  0.19577345948E+03  0.17300000000E+03 0.  1.
</event>
<event>
 4    1  0.5956049E+000  0.1000000E+03  0.7546771E-02  0.1280296E+00
         21   -1    0    0  501  502  0.00000000000E+00  0.00000000000E+00  0.10283201407E+04  0.10283201407E+04  0.00000000000E+00 0. -1.
         21   -1    0    0  502  503 -0.00000000000E+00 -0.00000000000E+00 -0.79703254398E+02  0.79703254398E+02  0.00000000000E+00 0.  1.
          6    1    1    2  501    0  0.10680882297E+03  0.59788953174E+02  0.84678825875E+03  0.87290446141E+03  0.17300000000E+03 0. -1.
         -6    1    1    2    0  503 -0.10680882297E+03 -0.59788953174E+02  0.10182862753E+03  0.23511893367E+03  0.17300000000E+03 0.  1.
</event>
<event>
 4    1  0.5956049E+000  0.1000000E+03  0.7546771E-02  0.1280296E+00
         21   -1    0    0  501  502  0.00000000000E+00  0.00000000000E+00  0.49503874292E+03  0.49503874292E+03  0.00000000000E+00 0. -1.
         21   -1    0    0  502  503 -0.00000000000E+00 -0.00000000000E+00 -0.43647651569E+03  0.43647651569E+03  0.00000000000E+00 0.  1.
          6    1    1    2  501    0 -0.22993135547E+03 -0.31648652568E+02  0.39369651736E+03  0.48866758970E+03  0.17300000000E+03 0. -1.
         -6    1    1    2    0  503  0.22993135547E+03  0.31648652568E+02 -0.33513429014E+03  0.44284766892E+03  0.17300000000E+03 0.  1.
</event>
<event>
 4    1  0.5956049E+000  0.1000000E+03  0.7546771E-02  0.1280296E+00
         21   -1    0    0  501  502  0.00000000000E+00  0.00000000000E+00  0.14072059943E+03  0.14072059943E+03  0.00000000000E+00 0. -1.
         21   -1    0    0  502  503 -0.00000000000E+00 -0.00000000000E+00 -0.26632616801E+03  0.26632616801E+03  0.00000000000E+00 0.  1.
          6    1    1    2  501    0  0.47225897981E+02 -0.36038805160E+01  0.13771636136E+02  0.17989422269E+03  0.17300000000E+03 0. -1.
         -6    1    1    2    0  503 -0.47225897981E+02  0.36038805160E+01 -0.13937720471E+03  0.22715254475E+03  0.17300000000E+03 0.  1.
</event>
<event>
 4    1  0.5956049E+000  0.1000000E+03  0.7546771E-02  0.1280296E+00
         21   -1    0    0  501  502  0.00000000000E+00  0.00000000000E+00  0.40495519269E+03  0.40495519269E+03  0.00000000000E+00 0.  1.
         21   -1    0    0  502  503 -0.00000000000E+00 -0.00000000000E+00 -0.11438434688E+03  0.11438434688E+03  0.00000000000E+00 0.  1.
          6    1    1    2  501    0  0.10005452056E+02 -0.82637051777E+02  0.26265041141E+03  0.32533556524E+03  0.17300000000E+03 0.  1.
         -6    1    1    2    0  503 -0.10005452056E+02  0.82637051777E+02  0.27920434402E+02  0.19400397433E+03  0.17300000000E+03 0.  1.
</event>
<event>
 4    1  0.5956049E+000  0.1000000E+03  0.7546771E-02  0.1280296E+00
         21   -1    0    0  501  502  0.00000000000E+00  0.00000000000E+00  0.46526403706E+03  0.46526403706E+03  0.00000000000E+00 0.  1.
         21   -1    0    0  502  503 -0.00000000000E+00 -0.00000000000E+00 -0.13114133061E+03  0.13114133061E+03  0.00000000000E+00 0.  1.
          6    1    1    2  501    0 -0.20442335544E+02  0.14534109182E+03  0.28500290795E+03  0.36427678981E+03  0.17300000000E+03 0.  1.
         -6    1    1    2    0  503  0.20442335544E+02 -0.14534109182E+03  0.49119798492E+02  0.23212857786E+03  0.17300000000E+03 0.  1.
</event>
<event>
 4    1  0.5956049E+000  0.1000000E+03  0.7546771E-02  0.1280296E+00
         21   -1    0    0  501  502  0.00000000000E+00  0.00000000000E+00  0.36587749756E+03  0.36587749756E+03  0.00000000000E+00 0.  1.
         21   -1    0    0  502  503 -0.00000000000E+00 -0.00000000000E+00 -0.94389945393E+02  0.94389945393E+02  0.00000000000E+00 0.  1.
          6    1    1    2  501    0  0.21266327782E+02  0.20419942264E+01  0.21551743161E+03  0.27718800437E+03  0.17300000000E+03 0.  1.
         -6    1    1    2    0  503 -0.21266327782E+02 -0.20419942264E+01  0.55970120558E+02  0.18307943859E+03  0.17300000000E+03 0.  1.
</event>
<event>
 4    1  0.5956049E+000  0.1000000E+03  0.7546771E-02  0.1280296E+00
         21   -1    0    0  503  502  0.00000000000E+00  0.00000000000E+00  0.23839316449E+03  0.23839316449E+03  0.00000000000E+00 0. -1.
         21   -1    0    0  501  503 -0.00000000000E+00 -0.00000000000E+00 -0.43141925060E+03  0.43141925060E+03  0.00000000000E+00 0.  1.
          6    1    1    2  501    0 -0.37357348437E+02 -0.32792498155E+02 -0.37369137200E+03  0.41478326982E+03  0.17300000000E+03 0. -1.
         -6    1    1    2    0  502  0.37357348437E+02  0.32792498155E+02  0.18066528588E+03  0.25502914527E+03  0.17300000000E+03 0.  1.
</event>
<event>
 4    1  0.5956049E+000  0.1000000E+03  0.7546771E-02  0.1280296E+00
         21   -1    0    0  503  502  0.00000000000E+00  0.00000000000E+00  0.17305808512E+04  0.17305808512E+04  0.00000000000E+00 0. -1.
         21   -1    0    0  501  503 -0.00000000000E+00 -0.00000000000E+00 -0.18065374101E+02  0.18065374101E+02  0.00000000000E+00 0.  1.
          6    1    1    2  501    0 -0.61417107599E+01  0.17956685904E+02  0.10106150679E+04  0.10254910915E+04  0.17300000000E+03 0. -1.
         -6    1    1    2    0  502  0.61417107599E+01 -0.17956685904E+02  0.70190040917E+03  0.72315513382E+03  0.17300000000E+03 0.  1.
</event>
<event>
 4    1  0.5956049E+000  0.1000000E+03  0.7546771E-02  0.1280296E+00
         21   -1    0    0  503  502  0.00000000000E+00  0.00000000000E+00  0.40912897235E+02  0.40912897235E+02  0.00000000000E+00 0. -1.
         21   -1    0    0  501  503 -0.00000000000E+00 -0.00000000000E+00 -0.12606524017E+04  0.12606524017E+04  0.00000000000E+00 0.  1.
          6    1    1    2  501    0  0.55098334929E+01  0.66766007484E+02 -0.23449475153E+03  0.29900643223E+03  0.17300000000E+03 0. -1.
         -6    1    1    2    0  502 -0.55098334929E+01 -0.66766007484E+02 -0.98524475295E+03  0.10025588667E+04  0.17300000000E+03 0.  1.
</event>
<event>
 4    1  0.5956049E+000  0.1000000E+03  0.7546771E-02  0.1280296E+00
         21   -1    0    0  503  502  0.00000000000E+00  0.00000000000E+00  0.43209378066E+03  0.43209378066E+03  0.00000000000E+00 0. -1.
         21   -1    0    0  501  503 -0.00000000000E+00 -0.00000000000E+00 -0.92284347747E+02  0.92284347747E+02  0.00000000000E+00 0.  1.
          6    1    1    2  501    0 -0.57665660415E+02 -0.19479696949E+02  0.27363682053E+03  0.32940992173E+03  0.17300000000E+03 0.  1.
         -6    1    1    2    0  502  0.57665660415E+02  0.19479696949E+02  0.66172612380E+02  0.19496820667E+03  0.17300000000E+03 0. -1.
</event>
<event>
 4    1  0.5956049E+000  0.1000000E+03  0.7546771E-02  0.1280296E+00
         21   -1    0    0  503  502  0.00000000000E+00  0.00000000000E+00  0.46751864612E+02  0.46751864612E+02  0.00000000000E+00 0. -1.
         21   -1    0    0  501  503 -0.00000000000E+00 -0.00000000000E+00 -0.10149633196E+04  0.10149633196E+04  0.00000000000E+00 0.  1.
          6    1    1    2  501    0 -0.95730866034E+02  0.87604775661E+02 -0.42039667706E+03  0.47275930611E+03  0.17300000000E+03 0.  1.
         -6    1    1    2    0  502  0.95730866034E+02 -0.87604775661E+02 -0.54781477788E+03  0.58895587806E+03  0.17300000000E+03 0. -1.
</event>
<event>
 4    1  0.5956049E+000  0.1000000E+03  0.7546771E-02  0.1280296E+00
         21   -1    0    0  501  502  0.00000000000E+00  0.00000000000E+00  0.31520273578E+02  0.31520273578E+02  0.00000000000E+00 0. -1.
         21   -1    0    0  502  503 -0.00000000000E+00 -0.00000000000E+00 -0.22711447965E+04  0.22711447965E+04  0.00000000000E+00 0. -1.
          6    1    1    2  501    0  0.18509673922E+03 -0.81761617921E+02 -0.12346612379E+04  0.12630372668E+04  0.17300000000E+03 0. -1.
         -6    1    1    2    0  503 -0.18509673922E+03  0.81761617921E+02 -0.10049632850E+04  0.10396278032E+04  0.17300000000E+03 0. -1.
</event>
<event>
 4    1  0.5956049E+000  0.1000000E+03  0.7546771E-02  0.1280296E+00
         21   -1    0    0  503  502  0.00000000000E+00  0.00000000000E+00  0.79199281121E+02  0.79199281121E+02  0.00000000000E+00 0. -1.
         21   -1    0    0  501  503 -0.00000000000E+00 -0.00000000000E+00 -0.43294883070E+03  0.43294883070E+03  0.00000000000E+00 0. -1.
          6    1    1    2  501    0  0.85234488215E+01 -0.13901469175E+02 -0.88387988648E+02  0.19495470387E+03  0.17300000000E+03 0. -1.
         -6    1    1    2    0  502 -0.85234488215E+01  0.13901469175E+02 -0.26536156093E+03  0.31719340794E+03  0.17300000000E+03 0. -1.
</event>
<event>
 4    1  0.5956049E+000  0.1000000E+03  0.7546771E-02  0.1280296E+00
         21   -1    0    0  503  502  0.00000000000E+00  0.00000000000E+00  0.76148003291E+03  0.76148003291E+03  0.00000000000E+00 0. -1.
         21   -1    0    0  501  503 -0.00000000000E+00 -0.00000000000E+00 -0.51170732324E+02  0.51170732324E+02  0.00000000000E+00 0. -1.
          6    1    1    2  501    0 -0.19155732880E+02  0.82482319004E+02  0.26623150462E+03  0.32860080509E+03  0.17300000000E+03 0. -1.
         -6    1    1    2    0  502  0.19155732880E+02 -0.82482319004E+02  0.44407779597E+03  0.48404996015E+03  0.17300000000E+03 0. -1.
</event>
<event>
 4    1  0.5956049E+000  0.1000000E+03  0.7546771E-02  0.1280296E+00
         21   -1    0    0  503  502  0.00000000000E+00  0.00000000000E+00  0.93194703439E+03  0.93194703439E+03  0.00000000000E+00 0. -1.
         21   -1    0    0  501  503 -0.00000000000E+00 -0.00000000000E+00 -0.97447793939E+02  0.97447793939E+02  0.00000000000E+00 0. -1.
          6    1    1    2  501    0 -0.52089315317E-01  0.90235965675E+02  0.25002671445E+02  0.19671468119E+03  0.17300000000E+03 0. -1.
         -6    1    1    2    0  502  0.52089315317E-01 -0.90235965675E+02  0.80949656901E+03  0.83268014714E+03  0.17300000000E+03 0. -1.
</event>
<event>
 4    1  0.5956049E+000  0.1000000E+03  0.7546771E-02  0.1280296E+00
         21   -1    0    0  503  502  0.00000000000E+00  0.00000000000E+00  0.60310094522E+02  0.60310094522E+02  0.00000000000E+00 0. -1.
         21   -1    0    0  501  503 -0.00000000000E+00 -0.00000000000E+00 -0.14950604913E+04  0.14950604913E+04  0.00000000000E+00 0. -1.
          6    1    1    2  501    0 -0.93836169794E+02 -0.22395654765E+03 -0.80990595002E+03  0.86304021336E+03  0.17300000000E+03 0. -1.
         -6    1    1    2    0  502  0.93836169794E+02  0.22395654765E+03 -0.62484444679E+03  0.69233037249E+03  0.17300000000E+03 0. -1.
</event>
<event>
 4    1  0.5956049E+000  0.1000000E+03  0.7546771E-02  0.1280296E+00
         21   -1    0    0  503  502  0.00000000000E+00  0.00000000000E+00  0.12878948397E+03  0.12878948397E+03  0.00000000000E+00 0. -1.
         21   -1    0    0  501  503 -0.00000000000E+00 -0.00000000000E+00 -0.40475572709E+03  0.40475572709E+03  0.00000000000E+00 0. -1.
          6    1    1    2  501    0 -0.12036306522E+03 -0.69435544826E+02 -0.20080449930E+03  0.29926578370E+03  0.17300000000E+03 0. -1.
         -6    1    1    2    0  502  0.12036306522E+03  0.69435544826E+02 -0.75161743821E+02  0.23427942737E+03  0.17300000000E+03 0. -1.
</event>
<event>
 4    1  0.5956049E+000  0.1000000E+03  0.7546771E-02  0.1280296E+00
         21   -1    0    0  503  502  0.00000000000E+00  0.00000000000E+00  0.34258550348E+03  0.34258550348E+03  0.00000000000E+00 0.  1.
         21   -1    0    0  501  503 -0.00000000000E+00 -0.00000000000E+00 -0.13410412027E+03  0.13410412027E+03  0.00000000000E+00 0. -1.
          6    1    1    2  501    0 -0.70955700028E+02 -0.64681653293E+02  0.12579543648E+02  0.19825658263E+03  0.17300000000E+03 0. -1.
         -6    1    1    2    0  502  0.70955700028E+02  0.64681653293E+02  0.19590183957E+03  0.27843304112E+03  0.17300000000E+03 0. -1.
</event>
<event>
 4    1  0.5956049E+000  0.1000000E+03  0.7546771E-02  0.1280296E+00
         21   -1    0    0  503  502  0.00000000000E+00  0.00000000000E+00  0.13288520051E+03  0.13288520051E+03  0.00000000000E+00 0.  1.
         21   -1    0    0  501  503 -0.00000000000E+00 -0.00000000000E+00 -0.40750476790E+03  0.40750476790E+03  0.00000000000E+00 0. -1.
          6    1    1    2  501    0  0.64491111083E+02 -0.39659635334E+02  0.20576841792E+02  0.18995893372E+03  0.17300000000E+03 0. -1.
         -6    1    1    2    0  502 -0.64491111083E+02  0.39659635334E+02 -0.29519640918E+03  0.35043103470E+03  0.17300000000E+03 0. -1.
</event>
<event>
 4    1  0.5956049E+000  0.1000000E+03  0.7546771E-02  0.1280296E+00
         21   -1    0    0  503  502  0.00000000000E+00  0.00000000000E+00  0.52437694760E+02  0.52437694760E+02  0.00000000000E+00 0.  1.
         21   -1    0    0  501  503 -0.00000000000E+00 -0.00000000000E+00 -0.86634817612E+03  0.86634817612E+03  0.00000000000E+00 0. -1.
          6    1    1    2  501    0 -0.20105277880E+02  0.82651965086E+02 -0.60289865138E+03  0.63297026262E+03  0.17300000000E+03 0.  1.
         -6    1    1    2    0  502  0.20105277880E+02 -0.82651965086E+02 -0.21101182998E+03  0.28581560826E+03  0.17300000000E+03 0. -1.
</event>
<event>
 4    1  0.5956049E+000  0.1000000E+03  0.7546771E-02  0.1280296E+00
         21   -1    0    0  503  502  0.00000000000E+00  0.00000000000E+00  0.21475451266E+03  0.21475451266E+03  0.00000000000E+00 0.  1.
         21   -1    0    0  501  503 -0.00000000000E+00 -0.00000000000E+00 -0.12086952295E+04  0.12086952295E+04  0.00000000000E+00 0. -1.
          6    1    1    2  501    0  0.38154010379E+03  0.24738639128E+03 -0.28570708545E+03  0.56420777739E+03  0.17300000000E+03 0.  1.
         -6    1    1    2    0  502 -0.38154010379E+03 -0.24738639128E+03 -0.70823363140E+03  0.85924196478E+03  0.17300000000E+03 0. -1.
</event>
<event>
 4    1  0.5956049E+000  0.1000000E+03  0.7546771E-02  0.1280296E+00
         21   -1    0    0  503  502  0.00000000000E+00  0.00000000000E+00  0.77356345784E+03  0.77356345784E+03  0.00000000000E+00 0.  1.
         21   -1    0    0  501  503 -0.00000000000E+00 -0.00000000000E+00 -0.91061580707E+02  0.91061580707E+02  0.00000000000E+00 0. -1.
          6    1    1    2  501    0 -0.32780117557E+02  0.57703882745E+02  0.31731595486E+02  0.18798980915E+03  0.17300000000E+03 0.  1.
         -6    1    1    2    0  502  0.32780117557E+02 -0.57703882745E+02  0.65077028165E+03  0.67663522940E+03  0.17300000000E+03 0. -1.
</event>
<event>
 4    1  0.5956049E+000  0.1000000E+03  0.7546771E-02  0.1280296E+00
         21   -1    0    0  503  502  0.00000000000E+00  0.00000000000E+00  0.91497237473E+02  0.91497237473E+02  0.00000000000E+00 0.  1.
         21   -1    0    0  501  503 -0.00000000000E+00 -0.00000000000E+00 -0.74059541254E+03  0.74059541254E+03  0.00000000000E+00 0. -1.
          6    1    1    2  501    0 -0.42777138516E+02 -0.17632989019E+02 -0.22598098797E+02  0.18050063698E+03  0.17300000000E+03 0.  1.
         -6    1    1    2    0  502  0.42777138516E+02  0.17632989019E+02 -0.62650007627E+03  0.65159201303E+03  0.17300000000E+03 0. -1.
</event>
<event>
 4    1  0.5956049E+000  0.1000000E+03  0.7546771E-02  0.1280296E+00
         21   -1    0    0  503  502  0.00000000000E+00  0.00000000000E+00  0.98642245104E+02  0.98642245104E+02  0.00000000000E+00 0.  1.
         21   -1    0    0  501  503 -0.00000000000E+00 -0.00000000000E+00 -0.47358256542E+03  0.47358256542E+03  0.00000000000E+00 0. -1.
          6    1    1    2  501    0 -0.61788498263E+02  0.10899208468E+03 -0.23115714755E+03  0.31473754131E+03  0.17300000000E+03 0.  1.
         -6    1    1    2    0  502  0.61788498263E+02 -0.10899208468E+03 -0.14378317277E+03  0.25748726922E+03  0.17300000000E+03 0. -1.
</event>
<event>
 4    1  0.5956049E+000  0.1000000E+03  0.7546771E-02  0.1280296E+00
         21   -1    0    0  503  502  0.00000000000E+00  0.00000000000E+00  0.84414000500E+03  0.84414000500E+03  0.00000000000E+00 0. -1.
         21   -1    0    0  501  503 -0.00000000000E+00 -0.00000000000E+00 -0.73163182425E+02  0.73163182425E+02  0.00000000000E+00 0. -1.
          6    1    1    2  501    0  0.11319256668E+03 -0.13409221138E+03  0.44493998711E+03  0.50861957339E+03  0.17300000000E+03 0. -1.
         -6    1    1    2    0  502 -0.11319256668E+03  0.13409221138E+03  0.32603683546E+03  0.40868361403E+03  0.17300000000E+03 0. -1.
</event>
<event>
 4    1  0.5956049E+000  0.1000000E+03  0.7546771E-02  0.1280296E+00
         21   -1    0    0  501  502  0.00000000000E+00  0.00000000000E+00  0.57284805048E+02  0.57284805048E+02  0.00000000000E+00 0. -1.
         21   -1    0    0  502  503 -0.00000000000E+00 -0.00000000000E+00 -0.17442519514E+04  0.17442519514E+04  0.00000000000E+00 0. -1.
          6    1    1    2  501    0 -0.18802825092E+03  0.11193986621E+03 -0.41980760647E+03  0.50403629159E+03  0.17300000000E+03 0. -1.
         -6    1    1    2    0  503  0.18802825092E+03 -0.11193986621E+03 -0.12671595399E+04  0.12975004649E+04  0.17300000000E+03 0. -1.
</event>
<event>
 4    1  0.5956049E+000  0.1000000E+03  0.7546771E-02  0.1280296E+00
         21   -1    0    0  501  502  0.00000000000E+00  0.00000000000E+00  0.21837639313E+03  0.21837639313E+03  0.00000000000E+00 0. -1.
         21   -1    0    0  502  503 -0.00000000000E+00 -0.00000000000E+00 -0.42272672097E+03  0.42272672097E+03  0.00000000000E+00 0. -1.
          6    1    1    2  501    0 -0.10099752714E+03  0.11529974501E+03  0.10588272860E+03  0.25423352238E+03  0.17300000000E+03 0. -1.
         -6    1    1    2    0  503  0.10099752714E+03 -0.11529974501E+03 -0.31023305645E+03  0.38686959172E+03  0.17300000000E+03 0. -1.
</event>
<event>
 4    1  0.5956049E+000  0.1000000E+03  0.7546771E-02  0.1280296E+00
         21   -1    0    0  501  502  0.00000000000E+00  0.00000000000E+00  0.51618288961E+03  0.51618288961E+03  0.00000000000E+00 0. -1.
         21   -1    0    0  502  503 -0.00000000000E+00 -0.00000000000E+00 -0.83916751013E+02  0.83916751013E+02  0.00000000000E+00 0. -1.
          6    1    1    2  501    0  0.96883194463E+02 -0.42843718425E+02  0.28322057792E+03  0.34837455897E+03  0.17300000000E+03 0. -1.
         -6    1    1    2    0  503 -0.96883194463E+02  0.42843718425E+02  0.14904556068E+03  0.25172508166E+03  0.17300000000E+03 0. -1.
</event>
<event>
 4    1  0.5956049E+000  0.1000000E+03  0.7546771E-02  0.1280296E+00
         21   -1    0    0  501  502  0.00000000000E+00  0.00000000000E+00  0.20855735467E+04  0.20855735467E+04  0.00000000000E+00 0.  1.
         21   -1    0    0  502  503 -0.00000000000E+00 -0.00000000000E+00 -0.31446429156E+02  0.31446429156E+02  0.00000000000E+00 0.  1.
          6    1    1    2  501    0 -0.10941333315E+03  0.46450511648E+02  0.16334888845E+04  0.16469195073E+04  0.17300000000E+03 0.  1.
         -6    1    1    2    0  503  0.10941333315E+03 -0.46450511648E+02  0.42063823302E+03  0.47010046860E+03  0.17300000000E+03 0.  1.
</event>
<event>
 4    1  0.5956049E+000  0.1000000E+03  0.7546771E-02  0.1280296E+00
         21   -1    0    0  501  502  0.00000000000E+00  0.00000000000E+00  0.12839572075E+04  0.12839572075E+04  0.00000000000E+00 0.  1.
         21   -1    0    0  502  503 -0.00000000000E+00 -0.00000000000E+00 -0.46459365964E+02  0.46459365964E+02  0.00000000000E+00 0.  1.
          6    1    1    2  501    0  0.10933176484E+03 -0.89919531570E+02  0.88677092768E+03  0.91451114544E+03  0.17300000000E+03 0.  1.
         -6    1    1    2    0  503 -0.10933176484E+03  0.89919531570E+02  0.35072691391E+03  0.41590542807E+03  0.17300000000E+03 0.  1.
</event>
<event>
 4    1  0.5956049E+000  0.1000000E+03  0.7546771E-02  0.1280296E+00
         21   -1    0    0  503  502  0.00000000000E+00  0.00000000000E+00  0.25222817840E+04  0.25222817840E+04  0.00000000000E+00 0. -1.
         21   -1    0    0  501  503 -0.00000000000E+00 -0.00000000000E+00 -0.36597713494E+02  0.36597713494E+02  0.00000000000E+00 0. -1.
          6    1    1    2  501    0 -0.61825032231E+02  0.54229436621E+02  0.24972117646E+03  0.31472659942E+03  0.17300000000E+03 0.  1.
         -6    1    1    2    0  502  0.61825032231E+02 -0.54229436621E+02  0.22359628940E+04  0.22441528980E+04  0.17300000000E+03 0.  1.
</event>
<event>
 4    1  0.5956049E+000  0.1000000E+03  0.7546771E-02  0.1280296E+00
         21   -1    0    0  503  502  0.00000000000E+00  0.00000000000E+00  0.13680407432E+03  0.13680407432E+03  0.00000000000E+00 0. -1.
         21   -1    0    0  501  503 -0.00000000000E+00 -0.00000000000E+00 -0.44221251872E+03  0.44221251872E+03  0.00000000000E+00 0. -1.
          6    1    1    2  501    0 -0.25917463065E+02 -0.15437728803E+03 -0.24435887839E+03  0.33785251723E+03  0.17300000000E+03 0.  1.
         -6    1    1    2    0  502  0.25917463065E+02  0.15437728803E+03 -0.61049566013E+02  0.24116407581E+03  0.17300000000E+03 0.  1.
</event>
<event>
 4    1  0.5956049E+000  0.1000000E+03  0.7546771E-02  0.1280296E+00
         21   -1    0    0  501  502  0.00000000000E+00  0.00000000000E+00  0.77753820198E+03  0.77753820198E+03  0.00000000000E+00 0. -1.
         21   -1    0    0  502  503 -0.00000000000E+00 -0.00000000000E+00 -0.21724966172E+03  0.21724966172E+03  0.00000000000E+00 0.  1.
          6    1    1    2  501    0  0.49794601970E+02 -0.11517989830E+03  0.70500316467E+03  0.73668471788E+03  0.17300000000E+03 0.  1.
         -6    1    1    2    0  503 -0.49794601970E+02  0.11517989830E+03 -0.14471462441E+03  0.25810314581E+03  0.17300000000E+03 0. -1.
</event>
<event>
 4    1  0.5956049E+000  0.1000000E+03  0.7546771E-02  0.1280296E+00
         21   -1    0    0  501  502  0.00000000000E+00  0.00000000000E+00  0.18403327362E+03  0.18403327362E+03  0.00000000000E+00 0. -1.
         21   -1    0    0  502  503 -0.00000000000E+00 -0.00000000000E+00 -0.23098006149E+03  0.23098006149E+03  0.00000000000E+00 0.  1.
          6    1    1    2  501    0  0.37151110931E+01  0.10602534909E+03  0.13146274624E+02  0.20336420834E+03  0.17300000000E+03 0.  1.
         -6    1    1    2    0  503 -0.37151110931E+01 -0.10602534909E+03 -0.60093062490E+02  0.21164912676E+03  0.17300000000E+03 0. -1.
</event>
<event>
 4    1  0.5956049E+000  0.1000000E+03  0.7546771E-02  0.1280296E+00
         21   -1    0    0  501  502  0.00000000000E+00  0.00000000000E+00  0.68571432869E+03  0.68571432869E+03  0.00000000000E+00 0. -1.
         21   -1    0    0  502  503 -0.00000000000E+00 -0.00000000000E+00 -0.65614549064E+02  0.65614549064E+02  0.00000000000E+00 0.  1.
          6    1    1    2  501    0 -0.94373145154E+00  0.19808388508E+02  0.52456206479E+03  0.55270934739E+03  0.17300000000E+03 0.  1.
         -6    1    1    2    0  503  0.94373145154E+00 -0.19808388508E+02  0.95537714843E+02  0.19861953036E+03  0.17300000000E+03 0. -1.
</event>
<event>
 4    1  0.5956049E+000  0.1000000E+03  0.7546771E-02  0.1280296E+00
         21   -1    0    0  501  502  0.00000000000E+00  0.00000000000E+00  0.15331122486E+03  0.15331122486E+03  0.00000000000E+00 0. -1.
         21   -1    0    0  502  503 -0.00000000000E+00 -0.00000000000E+00 -0.25884819174E+03  0.25884819174E+03  0.00000000000E+00 0.  1.
          6    1    1    2  501    0 -0.94166432734E+02  0.25414887892E+02 -0.68864664691E+02  0.21020127408E+03  0.17300000000E+03 0.  1.
         -6    1    1    2    0  503  0.94166432734E+02 -0.25414887892E+02 -0.36672302191E+02  0.20195814252E+03  0.17300000000E+03 0. -1.
</event>
<event>
 4    1  0.5956049E+000  0.1000000E+03  0.7546771E-02  0.1280296E+00
         21   -1    0    0  501  502  0.00000000000E+00  0.00000000000E+00  0.22184315630E+03  0.22184315630E+03  0.00000000000E+00 0.  1.
         21   -1    0    0  502  503 -0.00000000000E+00 -0.00000000000E+00 -0.23794151903E+03  0.23794151903E+03  0.00000000000E+00 0.  1.
          6    1    1    2  501    0 -0.11649808294E+02  0.14480981670E+03  0.33822597358E+02  0.22842628819E+03  0.17300000000E+03 0.  1.
         -6    1    1    2    0  503  0.11649808294E+02 -0.14480981670E+03 -0.49920960079E+02  0.23135838714E+03  0.17300000000E+03 0.  1.
</event>
<event>
 4    1  0.5956049E+000  0.1000000E+03  0.7546771E-02  0.1280296E+00
         21   -1    0    0  501  502  0.00000000000E+00  0.00000000000E+00  0.14774412770E+03  0.14774412770E+03  0.00000000000E+00 0.  1.
         21   -1    0    0  502  503 -0.00000000000E+00 -0.00000000000E+00 -0.65190921770E+03  0.65190921770E+03  0.00000000000E+00 0.  1.
          6    1    1    2  501    0 -0.10579832764E+03  0.36900579767E+02  0.46828951269E+02  0.21136908382E+03  0.17300000000E+03 0.  1.
         -6    1    1    2    0  503  0.10579832764E+03 -0.36900579767E+02 -0.55099404127E+03  0.58828426158E+03  0.17300000000E+03 0.  1.
</event>
<event>
 4    1  0.5956049E+000  0.1000000E+03  0.7546771E-02  0.1280296E+00
         21   -1    0    0  503  502  0.00000000000E+00  0.00000000000E+00  0.66962578255E+03  0.66962578255E+03  0.00000000000E+00 0. -1.
         21   -1    0    0  501  503 -0.00000000000E+00 -0.00000000000E+00 -0.12376096254E+03  0.12376096254E+03  0.00000000000E+00 0. -1.
          6    1    1    2  501    0 -0.20977606241E+03 -0.32799617248E+02  0.15074303844E+03  0.31262481490E+03  0.17300000000E+03 0. -1.
         -6    1    1    2    0  502  0.20977606241E+03  0.32799617248E+02  0.39512178157E+03  0.48076193019E+03  0.17300000000E+03 0. -1.
</event>
<event>
 4    1  0.5956049E+000  0.1000000E+03  0.7546771E-02  0.1280296E+00
         21   -1    0    0  503  502  0.00000000000E+00  0.00000000000E+00  0.60116137999E+03  0.60116137999E+03  0.00000000000E+00 0. -1.
         21   -1    0    0  501  503 -0.00000000000E+00 -0.00000000000E+00 -0.27625339626E+03  0.27625339626E+03  0.00000000000E+00 0. -1.
          6    1    1    2  501    0 -0.10052748598E+03  0.59017355688E+02 -0.21441569194E+03  0.29915198923E+03  0.17300000000E+03 0. -1.
         -6    1    1    2    0  502  0.10052748598E+03 -0.59017355688E+02  0.53932367568E+03  0.57826278702E+03  0.17300000000E+03 0. -1.
</event>
<event>
 4    1  0.5956049E+000  0.1000000E+03  0.7546771E-02  0.1280296E+00
         21   -1    0    0  501  502  0.00000000000E+00  0.00000000000E+00  0.14173280926E+04  0.14173280926E+04  0.00000000000E+00 0. -1.
         21   -1    0    0  502  503 -0.00000000000E+00 -0.00000000000E+00 -0.28190800740E+02  0.28190800740E+02  0.00000000000E+00 0. -1.
          6    1    1    2  501    0  0.33493429141E+02  0.94345798283E+02  0.70149967326E+03  0.72942013341E+03  0.17300000000E+03 0. -1.
         -6    1    1    2    0  503 -0.33493429141E+02 -0.94345798283E+02  0.68763761860E+03  0.71609875992E+03  0.17300000000E+03 0. -1.
</event>
<event>
 4    1  0.5956049E+000  0.1000000E+03  0.7546771E-02  0.1280296E+00
         21   -1    0    0  501  502  0.00000000000E+00  0.00000000000E+00  0.45742699050E+03  0.45742699050E+03  0.00000000000E+00 0. -1.
         21   -1    0    0  502  503 -0.00000000000E+00 -0.00000000000E+00 -0.27787336359E+03  0.27787336359E+03  0.00000000000E+00 0. -1.
          6    1    1    2  501    0  0.60499066609E+02 -0.20129843305E+03  0.32717333451E+03  0.42562023804E+03  0.17300000000E+03 0. -1.
         -6    1    1    2    0  503 -0.60499066609E+02  0.20129843305E+03 -0.14761970759E+03  0.30968011605E+03  0.17300000000E+03 0. -1.
</event>
<event>
 4    1  0.5956049E+000  0.1000000E+03  0.7546771E-02  0.1280296E+00
         21   -1    0    0  501  502  0.00000000000E+00  0.00000000000E+00  0.27367760240E+02  0.27367760240E+02  0.00000000000E+00 0. -1.
         21   -1    0    0  502  503 -0.00000000000E+00 -0.00000000000E+00 -0.14149051592E+04  0.14149051592E+04  0.00000000000E+00 0.  1.
          6    1    1    2  501    0 -0.21276227995E+02  0.79329141355E+02 -0.52792515726E+03  0.56158682518E+03  0.17300000000E+03 0.  1.
         -6    1    1    2    0  503  0.21276227995E+02 -0.79329141355E+02 -0.85961224173E+03  0.88068609429E+03  0.17300000000E+03 0.  1.
</event>
<event>
 4    1  0.5956049E+000  0.1000000E+03  0.7546771E-02  0.1280296E+00
         21   -1    0    0  501  502  0.00000000000E+00  0.00000000000E+00  0.51931819165E+03  0.51931819165E+03  0.00000000000E+00 0. -1.
         21   -1    0    0  502  503 -0.00000000000E+00 -0.00000000000E+00 -0.69654109216E+02  0.69654109216E+02  0.00000000000E+00 0.  1.
          6    1    1    2  501    0  0.59301367177E+02 -0.15943749070E+02  0.30182808659E+03  0.35327050420E+03  0.17300000000E+03 0.  1.
         -6    1    1    2    0  503 -0.59301367177E+02  0.15943749070E+02  0.14783599584E+03  0.23570179666E+03  0.17300000000E+03 0.  1.
</event>
<event>
 4    1  0.5956049E+000  0.1000000E+03  0.7546771E-02  0.1280296E+00
         21   -1    0    0  503  502  0.00000000000E+00  0.00000000000E+00  0.71428415432E+02  0.71428415432E+02  0.00000000000E+00 0. -1.
         21   -1    0    0  501  503 -0.00000000000E+00 -0.00000000000E+00 -0.68726392993E+03  0.68726392993E+03  0.00000000000E+00 0. -1.
          6    1    1    2  501    0 -0.41293157507E+02  0.11327469883E+03 -0.42435426885E+03  0.47385844695E+03  0.17300000000E+03 0. -1.
         -6    1    1    2    0  502  0.41293157507E+02 -0.11327469883E+03 -0.19148124565E+03  0.28483389842E+03  0.17300000000E+03 0. -1.
</event>
<event>
 4    1  0.5956049E+000  0.1000000E+03  0.7546771E-02  0.1280296E+00
         21   -1    0    0  503  502  0.00000000000E+00  0.00000000000E+00  0.39740858715E+02  0.39740858715E+02  0.00000000000E+00 0. -1.
         21   -1    0    0  501  503 -0.00000000000E+00 -0.00000000000E+00 -0.96297197734E+03  0.96297197734E+03  0.00000000000E+00 0. -1.
          6    1    1    2  501    0 -0.11116421503E+02  0.79781499001E+01 -0.69302587645E+03  0.71442360763E+03  0.17300000000E+03 0. -1.
         -6    1    1    2    0  502  0.11116421503E+02 -0.79781499001E+01 -0.23020524217E+03  0.28828922843E+03  0.17300000000E+03 0. -1.
</event>
<event>
 4    1  0.5956049E+000  0.1000000E+03  0.7546771E-02  0.1280296E+00
         21   -1    0    0  501  502  0.00000000000E+00  0.00000000000E+00  0.32973440575E+03  0.32973440575E+03  0.00000000000E+00 0.  1.
         21   -1    0    0  502  503 -0.00000000000E+00 -0.00000000000E+00 -0.16753583158E+03  0.16753583158E+03  0.00000000000E+00 0.  1.
          6    1    1    2  501    0 -0.12403856407E+03 -0.78556276136E+02  0.14593708228E+03  0.26978377616E+03  0.17300000000E+03 0.  1.
         -6    1    1    2    0  503  0.12403856407E+03  0.78556276136E+02  0.16261491889E+02  0.22748646117E+03  0.17300000000E+03 0.  1.
</event>
<event>
 4    1  0.5956049E+000  0.1000000E+03  0.7546771E-02  0.1280296E+00
         21   -1    0    0  503  502  0.00000000000E+00  0.00000000000E+00  0.49288202059E+02  0.49288202059E+02  0.00000000000E+00 0.  1.
         21   -1    0    0  501  503 -0.00000000000E+00 -0.00000000000E+00 -0.77615919663E+03  0.77615919663E+03  0.00000000000E+00 0.  1.
          6    1    1    2  501    0  0.73366981834E+02 -0.46369435839E+01 -0.47750594196E+03  0.51317164757E+03  0.17300000000E+03 0.  1.
         -6    1    1    2    0  502 -0.73366981834E+02  0.46369435839E+01 -0.24936505262E+03  0.31227575112E+03  0.17300000000E+03 0.  1.
</event>
<event>
 4    1  0.5956049E+000  0.1000000E+03  0.7546771E-02  0.1280296E+00
         21   -1    0    0  503  502  0.00000000000E+00  0.00000000000E+00  0.98252314189E+03  0.98252314189E+03  0.00000000000E+00 0.  1.
         21   -1    0    0  501  503 -0.00000000000E+00 -0.00000000000E+00 -0.48739836818E+02  0.48739836818E+02  0.00000000000E+00 0.  1.
          6    1    1    2  501    0  0.12234359137E+03  0.11992564150E+02  0.34116186926E+03  0.40178625783E+03  0.17300000000E+03 0.  1.
         -6    1    1    2    0  502 -0.12234359137E+03 -0.11992564150E+02  0.59262143581E+03  0.62947672088E+03  0.17300000000E+03 0.  1.
</event>
<event>
 4    1  0.5956049E+000  0.1000000E+03  0.7546771E-02  0.1280296E+00
         21   -1    0    0  503  502  0.00000000000E+00  0.00000000000E+00  0.25871037053E+03  0.25871037053E+03  0.00000000000E+00 0.  1.
         21   -1    0    0  501  503 -0.00000000000E+00 -0.00000000000E+00 -0.89635596686E+03  0.89635596686E+03  0.00000000000E+00 0.  1.
          6    1    1    2  501    0 -0.20642765973E+03 -0.24611680919E+03 -0.69575917491E+03  0.78561803183E+03  0.17300000000E+03 0.  1.
         -6    1    1    2    0  502  0.20642765973E+03  0.24611680919E+03  0.58113578582E+02  0.36944830556E+03  0.17300000000E+03 0.  1.
</event>
<event>
 4    1  0.5956049E+000  0.1000000E+03  0.7546771E-02  0.1280296E+00
         21   -1    0    0  503  502  0.00000000000E+00  0.00000000000E+00  0.32031869496E+03  0.32031869496E+03  0.00000000000E+00 0.  1.
         21   -1    0    0  501  503 -0.00000000000E+00 -0.00000000000E+00 -0.23946694208E+03  0.23946694208E+03  0.00000000000E+00 0.  1.
          6    1    1    2  501    0  0.21605652550E+03 -0.40128990446E+01  0.49476941072E+02  0.28120009472E+03  0.17300000000E+03 0.  1.
         -6    1    1    2    0  502 -0.21605652550E+03  0.40128990446E+01  0.31374811813E+02  0.27858554232E+03  0.17300000000E+03 0.  1.
</event>
<event>
 4    1  0.5956049E+000  0.1000000E+03  0.7546771E-02  0.1280296E+00
         21   -1    0    0  503  502  0.00000000000E+00  0.00000000000E+00  0.10224089991E+04  0.10224089991E+04  0.00000000000E+00 0.  1.
         21   -1    0    0  501  503 -0.00000000000E+00 -0.00000000000E+00 -0.56300620388E+02  0.56300620388E+02  0.00000000000E+00 0.  1.
          6    1    1    2  501    0 -0.54409078192E+02 -0.15701154454E+03  0.47292847746E+03  0.53028607157E+03  0.17300000000E+03 0.  1.
         -6    1    1    2    0  502  0.54409078192E+02  0.15701154454E+03  0.49317990125E+03  0.54842354791E+03  0.17300000000E+03 0.  1.
</event>
<event>
 4    1  0.5956049E+000  0.1000000E+03  0.7546771E-02  0.1280296E+00
         21   -1    0    0  501  502  0.00000000000E+00  0.00000000000E+00  0.40288691273E+03  0.40288691273E+03  0.00000000000E+00 0. -1.
         21   -1    0    0  502  503 -0.00000000000E+00 -0.00000000000E+00 -0.25898476389E+03  0.25898476389E+03  0.00000000000E+00 0.  1.
          6    1    1    2  501    0 -0.24988207856E+03  0.95879934988E+02  0.17947220132E+02  0.31919448277E+03  0.17300000000E+03 0.  1.
         -6    1    1    2    0  503  0.24988207856E+03 -0.95879934988E+02  0.12595492871E+03  0.34267719385E+03  0.17300000000E+03 0.  1.
</event>
<event>
 4    1  0.5956049E+000  0.1000000E+03  0.7546771E-02  0.1280296E+00
         21   -1    0    0  501  502  0.00000000000E+00  0.00000000000E+00  0.12657590520E+04  0.12657590520E+04  0.00000000000E+00 0. -1.
         21   -1    0    0  502  503 -0.00000000000E+00 -0.00000000000E+00 -0.36550009622E+02  0.36550009622E+02  0.00000000000E+00 0. -1.
          6    1    1    2  501    0  0.70534613992E-01 -0.46252094768E+02  0.97529629146E+03  0.99160028105E+03  0.17300000000E+03 0. -1.
         -6    1    1    2    0  503 -0.70534613992E-01  0.46252094768E+02  0.25391275092E+03  0.31070878058E+03  0.17300000000E+03 0. -1.
</event>
<event>
 4    1  0.5956049E+000  0.1000000E+03  0.7546771E-02  0.1280296E+00
         21   -1    0    0  503  502  0.00000000000E+00  0.00000000000E+00  0.49313162692E+03  0.49313162692E+03  0.00000000000E+00 0.  1.
         21   -1    0    0  501  503 -0.00000000000E+00 -0.00000000000E+00 -0.14119227650E+03  0.14119227650E+03  0.00000000000E+00 0.  1.
          6    1    1    2  501    0 -0.88060013722E+02  0.64156900747E+02 -0.24535256898E+02  0.20591661604E+03  0.17300000000E+03 0.  1.
         -6    1    1    2    0  502  0.88060013722E+02 -0.64156900747E+02  0.37647460732E+03  0.42840728738E+03  0.17300000000E+03 0.  1.
</event>
<event>
 4    1  0.5956049E+000  0.1000000E+03  0.7546771E-02  0.1280296E+00
         21   -1    0    0  503  502  0.00000000000E+00  0.00000000000E+00  0.19468910664E+03  0.19468910664E+03  0.00000000000E+00 0.  1.
         21   -1    0    0  501  503 -0.00000000000E+00 -0.00000000000E+00 -0.37855032199E+03  0.37855032199E+03  0.00000000000E+00 0.  1.
          6    1    1    2  501    0 -0.19465966922E+03 -0.61204419201E+02 -0.14068268450E+03  0.30225648954E+03  0.17300000000E+03 0.  1.
         -6    1    1    2    0  502  0.19465966922E+03  0.61204419201E+02 -0.43178530855E+02  0.27098293909E+03  0.17300000000E+03 0.  1.
</event>
<event>
 4    1  0.5956049E+000  0.1000000E+03  0.7546771E-02  0.1280296E+00
         21   -1    0    0  501  502  0.00000000000E+00  0.00000000000E+00  0.14506107732E+03  0.14506107732E+03  0.00000000000E+00 0. -1.
         21   -1    0    0  502  503 -0.00000000000E+00 -0.00000000000E+00 -0.43145104383E+03  0.43145104383E+03  0.00000000000E+00 0.  1.
          6    1    1    2  501    0  0.17121329421E+03  0.11418943551E+02 -0.77879292370E+02  0.25580963345E+03  0.17300000000E+03 0.  1.
         -6    1    1    2    0  503 -0.17121329421E+03 -0.11418943551E+02 -0.20851067414E+03  0.32070248770E+03  0.17300000000E+03 0.  1.
</event>
<event>
 4    1  0.5956049E+000  0.1000000E+03  0.7546771E-02  0.1280296E+00
         21   -1    0    0  501  502  0.00000000000E+00  0.00000000000E+00  0.11127906528E+03  0.11127906528E+03  0.00000000000E+00 0. -1.
         21   -1    0    0  502  503 -0.00000000000E+00 -0.00000000000E+00 -0.77693248052E+03  0.77693248052E+03  0.00000000000E+00 0.  1.
          6    1    1    2  501    0 -0.76931322677E+01 -0.55495343502E+02  0.16162108229E+02  0.18256267739E+03  0.17300000000E+03 0.  1.
         -6    1    1    2    0  503  0.76931322677E+01  0.55495343502E+02 -0.68181552347E+03  0.70564886840E+03  0.17300000000E+03 0.  1.
</event>
<event>
 4    1  0.5956049E+000  0.1000000E+03  0.7546771E-02  0.1280296E+00
         21   -1    0    0  503  502  0.00000000000E+00  0.00000000000E+00  0.20558551378E+03  0.20558551378E+03  0.00000000000E+00 0.  1.
         21   -1    0    0  501  503 -0.00000000000E+00 -0.00000000000E+00 -0.28085138090E+03  0.28085138090E+03  0.00000000000E+00 0.  1.
          6    1    1    2  501    0 -0.31450120324E+02 -0.38381544909E+02 -0.19878335516E+03  0.26815308193E+03  0.17300000000E+03 0.  1.
         -6    1    1    2    0  502  0.31450120324E+02  0.38381544909E+02  0.12351748804E+03  0.21828381275E+03  0.17300000000E+03 0.  1.
</event>
<event>
 4    1  0.5956049E+000  0.1000000E+03  0.7546771E-02  0.1280296E+00
         21   -1    0    0  501  502  0.00000000000E+00  0.00000000000E+00  0.24713354337E+04  0.24713354337E+04  0.00000000000E+00 0. -1.
         21   -1    0    0  502  503 -0.00000000000E+00 -0.00000000000E+00 -0.32810651567E+02  0.32810651567E+02  0.00000000000E+00 0.  1.
          6    1    1    2  501    0  0.26738474301E+02  0.66905123682E+02  0.21619638935E+04  0.21700709939E+04  0.17300000000E+03 0. -1.
         -6    1    1    2    0  503 -0.26738474301E+02 -0.66905123682E+02  0.27656088867E+03  0.33407509144E+03  0.17300000000E+03 0.  1.
</event>
<event>
 4    1  0.5956049E+000  0.1000000E+03  0.7546771E-02  0.1280296E+00
         21   -1    0    0  501  502  0.00000000000E+00  0.00000000000E+00  0.47845857261E+03  0.47845857261E+03  0.00000000000E+00 0.  1.
         21   -1    0    0  502  503 -0.00000000000E+00 -0.00000000000E+00 -0.12740967578E+03  0.12740967578E+03  0.00000000000E+00 0.  1.
          6    1    1    2  501    0  0.99062905270E+02  0.14566310514E+03  0.17580479995E+03  0.30309656396E+03  0.17300000000E+03 0.  1.
         -6    1    1    2    0  503 -0.99062905270E+02 -0.14566310514E+03  0.17524409689E+03  0.30277168443E+03  0.17300000000E+03 0.  1.
</event>
<event>
 4    1  0.5956049E+000  0.1000000E+03  0.7546771E-02  0.1280296E+00
         21   -1    0    0  501  502  0.00000000000E+00  0.00000000000E+00  0.77337428803E+02  0.77337428803E+02  0.00000000000E+00 0.  1.
         21   -1    0    0  502  503 -0.00000000000E+00 -0.00000000000E+00 -0.69831793799E+03  0.69831793799E+03  0.00000000000E+00 0.  1.
          6    1    1    2  501    0 -0.82817756664E+02 -0.20345595260E+02 -0.94154294553E+02  0.21463167345E+03  0.17300000000E+03 0.  1.
         -6    1    1    2    0  503  0.82817756664E+02  0.20345595260E+02 -0.52682621463E+03  0.56102369334E+03  0.17300000000E+03 0.  1.
</event>
<event>
 4    1  0.5956049E+000  0.1000000E+03  0.7546771E-02  0.1280296E+00
         21   -1    0    0  501  502  0.00000000000E+00  0.00000000000E+00  0.17704386608E+03  0.17704386608E+03  0.00000000000E+00 0.  1.
         21   -1    0    0  502  503 -0.00000000000E+00 -0.00000000000E+00 -0.19181299772E+03  0.19181299772E+03  0.00000000000E+00 0.  1.
          6    1    1    2  501    0  0.49455099666E+02 -0.61179869122E-01 -0.47222342491E+02  0.18602354759E+03  0.17300000000E+03 0.  1.
         -6    1    1    2    0  503 -0.49455099666E+02  0.61179869122E-01  0.32453210851E+02  0.18283331622E+03  0.17300000000E+03 0.  1.
</event>
<event>
 4    1  0.5956049E+000  0.1000000E+03  0.7546771E-02  0.1280296E+00
         21   -1    0    0  501  502  0.00000000000E+00  0.00000000000E+00  0.12799086475E+04  0.12799086475E+04  0.00000000000E+00 0.  1.
         21   -1    0    0  502  503 -0.00000000000E+00 -0.00000000000E+00 -0.79763958779E+02  0.79763958779E+02  0.00000000000E+00 0.  1.
          6    1    1    2  501    0 -0.19819422559E+03  0.14342839413E+03  0.83613189889E+03  0.88819941885E+03  0.17300000000E+03 0.  1.
         -6    1    1    2    0  503  0.19819422559E+03 -0.14342839413E+03  0.36401278981E+03  0.47147318741E+03  0.17300000000E+03 0.  1.
</event>
<event>
 4    1  0.5956049E+000  0.1000000E+03  0.7546771E-02  0.1280296E+00
         21   -1    0    0  501  502  0.00000000000E+00  0.00000000000E+00  0.19874860682E+04  0.19874860682E+04  0.00000000000E+00 0. -1.
         21   -1    0    0  502  503 -0.00000000000E+00 -0.00000000000E+00 -0.45629514732E+02  0.45629514732E+02  0.00000000000E+00 0.  1.
          6    1    1    2  501    0 -0.82258523909E+02  0.29614578281E+02  0.17489073038E+04  0.17596162211E+04  0.17300000000E+03 0. -1.
         -6    1    1    2    0  503  0.82258523909E+02 -0.29614578281E+02  0.19294924957E+03  0.27349936182E+03  0.17300000000E+03 0.  1.
</event>
<event>
 4    1  0.5956049E+000  0.1000000E+03  0.7546771E-02  0.1280296E+00
         21   -1    0    0  501  502  0.00000000000E+00  0.00000000000E+00  0.10982907121E+04  0.10982907121E+04  0.00000000000E+00 0. -1.
         21   -1    0    0  502  503 -0.00000000000E+00 -0.00000000000E+00 -0.74865644189E+02  0.74865644189E+02  0.00000000000E+00 0. -1.
          6    1    1    2  501    0 -0.46348278467E+02 -0.22293097931E+03  0.55505165181E+03  0.62438587479E+03  0.17300000000E+03 0. -1.
         -6    1    1    2    0  503  0.46348278467E+02  0.22293097931E+03  0.46837341606E+03  0.54877048146E+03  0.17300000000E+03 0. -1.
</event>
<event>
 4    1  0.5956049E+000  0.1000000E+03  0.7546771E-02  0.1280296E+00
         21   -1    0    0  501  502  0.00000000000E+00  0.00000000000E+00  0.51702876714E+03  0.51702876714E+03  0.00000000000E+00 0. -1.
         21   -1    0    0  502  503 -0.00000000000E+00 -0.00000000000E+00 -0.80899129253E+02  0.80899129253E+02  0.00000000000E+00 0. -1.
          6    1    1    2  501    0  0.96090040632E+02  0.29290021746E+02  0.28020402620E+03  0.34428839304E+03  0.17300000000E+03 0. -1.
         -6    1    1    2    0  503 -0.96090040632E+02 -0.29290021746E+02  0.15592561169E+03  0.25363950336E+03  0.17300000000E+03 0. -1.
</event>
<event>
 4    1  0.5956049E+000  0.1000000E+03  0.7546771E-02  0.1280296E+00
         21   -1    0    0  501  502  0.00000000000E+00  0.00000000000E+00  0.17260316480E+03  0.17260316480E+03  0.00000000000E+00 0. -1.
         21   -1    0    0  502  503 -0.00000000000E+00 -0.00000000000E+00 -0.57773020063E+03  0.57773020063E+03  0.00000000000E+00 0. -1.
          6    1    1    2  501    0  0.13007975950E+03 -0.12259907279E+03  0.28536617805E+02  0.25038892754E+03  0.17300000000E+03 0. -1.
         -6    1    1    2    0  503 -0.13007975950E+03  0.12259907279E+03 -0.43366365364E+03  0.49994443788E+03  0.17300000000E+03 0. -1.
</event>
<event>
 4    1  0.5956049E+000  0.1000000E+03  0.7546771E-02  0.1280296E+00
         21   -1    0    0  501  502  0.00000000000E+00  0.00000000000E+00  0.16424355426E+03  0.16424355426E+03  0.00000000000E+00 0. -1.
         21   -1    0    0  502  503 -0.00000000000E+00 -0.00000000000E+00 -0.53899719013E+03  0.53899719013E+03  0.00000000000E+00 0. -1.
          6    1    1    2  501    0 -0.53648236117E+02  0.15043738418E+02  0.91015437257E+02  0.20326646827E+03  0.17300000000E+03 0. -1.
         -6    1    1    2    0  503  0.53648236117E+02 -0.15043738418E+02 -0.46576907313E+03  0.49997427612E+03  0.17300000000E+03 0. -1.
</event>
<event>
 4    1  0.5956049E+000  0.1000000E+03  0.7546771E-02  0.1280296E+00
         21   -1    0    0  501  502  0.00000000000E+00  0.00000000000E+00  0.23775657645E+04  0.23775657645E+04  0.00000000000E+00 0. -1.
         21   -1    0    0  502  503 -0.00000000000E+00 -0.00000000000E+00 -0.23594465668E+03  0.23594465668E+03  0.00000000000E+00 0. -1.
          6    1    1    2  501    0 -0.16470916905E+03  0.27303660825E+02  0.23084108756E+04  0.23208973202E+04  0.17300000000E+03 0. -1.
         -6    1    1    2    0  503  0.16470916905E+03 -0.27303660825E+02 -0.16678976775E+03  0.29261310102E+03  0.17300000000E+03 0. -1.
</event>
<event>
 4    1  0.5956049E+000  0.1000000E+03  0.7546771E-02  0.1280296E+00
         21   -1    0    0  503  502  0.00000000000E+00  0.00000000000E+00  0.45011126535E+03  0.45011126535E+03  0.00000000000E+00 0.  1.
         21   -1    0    0  501  503 -0.00000000000E+00 -0.00000000000E+00 -0.10426485785E+03  0.10426485785E+03  0.00000000000E+00 0.  1.
          6    1    1    2  501    0  0.74714007639E+02 -0.90885228510E+02  0.24484381444E+03  0.32205558708E+03  0.17300000000E+03 0.  1.
         -6    1    1    2    0  502 -0.74714007639E+02  0.90885228510E+02  0.10100259306E+03  0.23232053612E+03  0.17300000000E+03 0.  1.
</event>
<event>
 4    1  0.5956049E+000  0.1000000E+03  0.7546771E-02  0.1280296E+00
         21   -1    0    0  501  502  0.00000000000E+00  0.00000000000E+00  0.17365917794E+03  0.17365917794E+03  0.00000000000E+00 0.  1.
         21   -1    0    0  502  503 -0.00000000000E+00 -0.00000000000E+00 -0.23282492967E+03  0.23282492967E+03  0.00000000000E+00 0.  1.
          6    1    1    2  501    0 -0.73085196628E+02  0.67237990856E+02 -0.55169245943E+02  0.20696627522E+03  0.17300000000E+03 0. -1.
         -6    1    1    2    0  503  0.73085196628E+02 -0.67237990856E+02 -0.39965057890E+01  0.19951783238E+03  0.17300000000E+03 0. -1.
</event>
<event>
 4    1  0.5956049E+000  0.1000000E+03  0.7546771E-02  0.1280296E+00
         21   -1    0    0  501  502  0.00000000000E+00  0.00000000000E+00  0.86157951354E+02  0.86157951354E+02  0.00000000000E+00 0.  1.
         21   -1    0    0  502  503 -0.00000000000E+00 -0.00000000000E+00 -0.43483460299E+03  0.43483460299E+03  0.00000000000E+00 0. -1.
          6    1    1    2  501    0  0.10349519460E+02 -0.71952895527E+02 -0.11048378678E+03  0.21776133465E+03  0.17300000000E+03 0. -1.
         -6    1    1    2    0  503 -0.10349519460E+02  0.71952895527E+02 -0.23819286486E+03  0.30323121970E+03  0.17300000000E+03 0.  1.
</event>
<event>
 4    1  0.5956049E+000  0.1000000E+03  0.7546771E-02  0.1280296E+00
         21   -1    0    0  501  502  0.00000000000E+00  0.00000000000E+00  0.20002444731E+03  0.20002444731E+03  0.00000000000E+00 0.  1.
         21   -1    0    0  502  503 -0.00000000000E+00 -0.00000000000E+00 -0.16717378745E+03  0.16717378745E+03  0.00000000000E+00 0. -1.
          6    1    1    2  501    0  0.50160249077E+02 -0.31377066344E+02  0.19482842062E+02  0.18387265162E+03  0.17300000000E+03 0. -1.
         -6    1    1    2    0  503 -0.50160249077E+02  0.31377066344E+02  0.13367817806E+02  0.18332558314E+03  0.17300000000E+03 0.  1.
</event>
<event>
 4    1  0.5956049E+000  0.1000000E+03  0.7546771E-02  0.1280296E+00
         21   -1    0    0  501  502  0.00000000000E+00  0.00000000000E+00  0.76785176602E+03  0.76785176602E+03  0.00000000000E+00 0. -1.
         21   -1    0    0  502  503 -0.00000000000E+00 -0.00000000000E+00 -0.15276287770E+03  0.15276287770E+03  0.00000000000E+00 0.  1.
          6    1    1    2  501    0 -0.11372970349E+03  0.38090981573E+02  0.67063647270E+03  0.70289945714E+03  0.17300000000E+03 0. -1.
         -6    1    1    2    0  503  0.11372970349E+03 -0.38090981573E+02 -0.55547584381E+02  0.21771518657E+03  0.17300000000E+03 0.  1.
</event>
<event>
 4    1  0.5956049E+000  0.1000000E+03  0.7546771E-02  0.1280296E+00
         21   -1    0    0  501  502  0.00000000000E+00  0.00000000000E+00  0.12798258989E+03  0.12798258989E+03  0.00000000000E+00 0. -1.
         21   -1    0    0  502  503 -0.00000000000E+00 -0.00000000000E+00 -0.44481475216E+03  0.44481475216E+03  0.00000000000E+00 0.  1.
          6    1    1    2  501    0 -0.10945743067E+03 -0.61888281737E+02 -0.31449031261E+02  0.21616921639E+03  0.17300000000E+03 0. -1.
         -6    1    1    2    0  503  0.10945743067E+03  0.61888281737E+02 -0.28538313101E+03  0.35662812566E+03  0.17300000000E+03 0.  1.
</event>
<event>
 4    1  0.5956049E+000  0.1000000E+03  0.7546771E-02  0.1280296E+00
         21   -1    0    0  501  502  0.00000000000E+00  0.00000000000E+00  0.18339024793E+04  0.18339024793E+04  0.00000000000E+00 0. -1.
         21   -1    0    0  502  503 -0.00000000000E+00 -0.00000000000E+00 -0.79960955603E+02  0.79960955603E+02  0.00000000000E+00 0.  1.
          6    1    1    2  501    0 -0.13488952191E+03 -0.20533503343E+03  0.14701910133E+04  0.15005826451E+04  0.17300000000E+03 0. -1.
         -6    1    1    2    0  503  0.13488952191E+03  0.20533503343E+03  0.28375051030E+03  0.41328078975E+03  0.17300000000E+03 0.  1.
</event>
<event>
 4    1  0.5956049E+000  0.1000000E+03  0.7546771E-02  0.1280296E+00
         21   -1    0    0  503  502  0.00000000000E+00  0.00000000000E+00  0.21749788041E+03  0.21749788041E+03  0.00000000000E+00 0.  1.
         21   -1    0    0  501  503 -0.00000000000E+00 -0.00000000000E+00 -0.32960667305E+03  0.32960667305E+03  0.00000000000E+00 0.  1.
          6    1    1    2  501    0  0.17032767428E+03  0.25373255455E+02 -0.16845976787E+03  0.29658558986E+03  0.17300000000E+03 0.  1.
         -6    1    1    2    0  502 -0.17032767428E+03 -0.25373255455E+02  0.56350975232E+02  0.25051896361E+03  0.17300000000E+03 0.  1.
</event>
<event>
 4    1  0.5956049E+000  0.1000000E+03  0.7546771E-02  0.1280296E+00
         21   -1    0    0  503  502  0.00000000000E+00  0.00000000000E+00  0.37385714250E+03  0.37385714250E+03  0.00000000000E+00 0.  1.
         21   -1    0    0  501  503 -0.00000000000E+00 -0.00000000000E+00 -0.21544687884E+03  0.21544687884E+03  0.00000000000E+00 0.  1.
          6    1    1    2  501    0 -0.15216081629E+03  0.15205257077E+03  0.10773928696E+02  0.27625708286E+03  0.17300000000E+03 0.  1.
         -6    1    1    2    0  502  0.15216081629E+03 -0.15205257077E+03  0.14763633496E+03  0.31304693848E+03  0.17300000000E+03 0.  1.
</event>
<event>
 4    1  0.5956049E+000  0.1000000E+03  0.7546771E-02  0.1280296E+00
         21   -1    0    0  501  502  0.00000000000E+00  0.00000000000E+00  0.12743596547E+04  0.12743596547E+04  0.00000000000E+00 0. -1.
         21   -1    0    0  502  503 -0.00000000000E+00 -0.00000000000E+00 -0.75441501516E+02  0.75441501516E+02  0.00000000000E+00 0. -1.
          6    1    1    2  501    0 -0.11655015312E+03 -0.52779419489E+02  0.10853983584E+04  0.11065207643E+04  0.17300000000E+03 0. -1.
         -6    1    1    2    0  503  0.11655015312E+03  0.52779419489E+02  0.11351979482E+03  0.24328039200E+03  0.17300000000E+03 0. -1.
</event>
<event>
 4    1  0.5956049E+000  0.1000000E+03  0.7546771E-02  0.1280296E+00
         21   -1    0    0  503  502  0.00000000000E+00  0.00000000000E+00  0.17592853175E+03  0.17592853175E+03  0.00000000000E+00 0.  1.
         21   -1    0    0  501  503 -0.00000000000E+00 -0.00000000000E+00 -0.34841658143E+03  0.34841658143E+03  0.00000000000E+00 0.  1.
          6    1    1    2  501    0 -0.12362948185E+03 -0.92018724003E+01 -0.22018369923E+03  0.30623321937E+03  0.17300000000E+03 0.  1.
         -6    1    1    2    0  502  0.12362948185E+03  0.92018724003E+01  0.47695649549E+02  0.21811189382E+03  0.17300000000E+03 0.  1.
</event>
<event>
 4    1  0.5956049E+000  0.1000000E+03  0.7546771E-02  0.1280296E+00
         21   -1    0    0  503  502  0.00000000000E+00  0.00000000000E+00  0.10298088055E+04  0.10298088055E+04  0.00000000000E+00 0. -1.
         21   -1    0    0  501  503 -0.00000000000E+00 -0.00000000000E+00 -0.21169562390E+03  0.21169562390E+03  0.00000000000E+00 0. -1.
          6    1    1    2  501    0  0.19607787890E+03  0.19541819046E+03 -0.34765487066E+02  0.32828713476E+03  0.17300000000E+03 0. -1.
         -6    1    1    2    0  502 -0.19607787890E+03 -0.19541819046E+03  0.85287866863E+03  0.91321729460E+03  0.17300000000E+03 0. -1.
</event>
<event>
 4    1  0.5956049E+000  0.1000000E+03  0.7546771E-02  0.1280296E+00
         21   -1    0    0  503  502  0.00000000000E+00  0.00000000000E+00  0.15265431715E+04  0.15265431715E+04  0.00000000000E+00 0. -1.
         21   -1    0    0  501  503 -0.00000000000E+00 -0.00000000000E+00 -0.48024780270E+02  0.48024780270E+02  0.00000000000E+00 0. -1.
          6    1    1    2  501    0  0.18655160471E+03  0.87198947478E+02  0.64833981472E+03  0.70191073008E+03  0.17300000000E+03 0. -1.
         -6    1    1    2    0  502 -0.18655160471E+03 -0.87198947478E+02  0.83017857651E+03  0.87265722169E+03  0.17300000000E+03 0. -1.
</event>
<event>
 4    1  0.5956049E+000  0.1000000E+03  0.7546771E-02  0.1280296E+00
         21   -1    0    0  503  502  0.00000000000E+00  0.00000000000E+00  0.13160116104E+03  0.13160116104E+03  0.00000000000E+00 0. -1.
         21   -1    0    0  501  503 -0.00000000000E+00 -0.00000000000E+00 -0.39013496724E+03  0.39013496724E+03  0.00000000000E+00 0. -1.
          6    1    1    2  501    0  0.29232394266E+02  0.22797879339E+02 -0.29224189655E+03  0.34162640747E+03  0.17300000000E+03 0. -1.
         -6    1    1    2    0  502 -0.29232394266E+02 -0.22797879339E+02  0.33708090356E+02  0.18010972082E+03  0.17300000000E+03 0. -1.
</event>
<event>
 4    1  0.5956049E+000  0.1000000E+03  0.7546771E-02  0.1280296E+00
         21   -1    0    0  503  502  0.00000000000E+00  0.00000000000E+00  0.13361370327E+03  0.13361370327E+03  0.00000000000E+00 0.  1.
         21   -1    0    0  501  503 -0.00000000000E+00 -0.00000000000E+00 -0.69779575353E+03  0.69779575353E+03  0.00000000000E+00 0. -1.
          6    1    1    2  501    0 -0.72438736536E+02 -0.24993463155E+01 -0.61011501530E+03  0.63829691303E+03  0.17300000000E+03 0.  1.
         -6    1    1    2    0  502  0.72438736536E+02  0.24993463155E+01  0.45932965052E+02  0.19311254377E+03  0.17300000000E+03 0.  1.
</event>
<event>
 4    1  0.5956049E+000  0.1000000E+03  0.7546771E-02  0.1280296E+00
         21   -1    0    0  503  502  0.00000000000E+00  0.00000000000E+00  0.94758134297E+02  0.94758134297E+02  0.00000000000E+00 0.  1.
         21   -1    0    0  501  503 -0.00000000000E+00 -0.00000000000E+00 -0.42714900881E+03  0.42714900881E+03  0.00000000000E+00 0. -1.
          6    1    1    2  501    0 -0.46403172707E+02  0.42225990612E+02 -0.27165457972E+03  0.32811811807E+03  0.17300000000E+03 0. -1.
         -6    1    1    2    0  502  0.46403172707E+02 -0.42225990612E+02 -0.60736294789E+02  0.19378902504E+03  0.17300000000E+03 0.  1.
</event>
<event>
 4    1  0.5956049E+000  0.1000000E+03  0.7546771E-02  0.1280296E+00
         21   -1    0    0  501  502  0.00000000000E+00  0.00000000000E+00  0.13290867880E+03  0.13290867880E+03  0.00000000000E+00 0. -1.
         21   -1    0    0  502  503 -0.00000000000E+00 -0.00000000000E+00 -0.59533011406E+03  0.59533011406E+03  0.00000000000E+00 0. -1.
          6    1    1    2  501    0  0.36113602957E+02 -0.96218010569E+02  0.23220217443E+02  0.20255931569E+03  0.17300000000E+03 0.  1.
         -6    1    1    2    0  503 -0.36113602957E+02  0.96218010569E+02 -0.48564165271E+03  0.52567947717E+03  0.17300000000E+03 0.  1.
</event>
<event>
 4    1  0.5956049E+000  0.1000000E+03  0.7546771E-02  0.1280296E+00
         21   -1    0    0  503  502  0.00000000000E+00  0.00000000000E+00  0.30164322083E+03  0.30164322083E+03  0.00000000000E+00 0.  1.
         21   -1    0    0  501  503 -0.00000000000E+00 -0.00000000000E+00 -0.10483180277E+03  0.10483180277E+03  0.00000000000E+00 0. -1.
          6    1    1    2  501    0  0.22096666954E+02 -0.23128083789E+02  0.68830450188E+02  0.18891744711E+03  0.17300000000E+03 0. -1.
         -6    1    1    2    0  502 -0.22096666954E+02  0.23128083789E+02  0.12798096787E+03  0.21755757649E+03  0.17300000000E+03 0. -1.
</event>
<event>
 4    1  0.5956049E+000  0.1000000E+03  0.7546771E-02  0.1280296E+00
         21   -1    0    0  503  502  0.00000000000E+00  0.00000000000E+00  0.22061141290E+03  0.22061141290E+03  0.00000000000E+00 0.  1.
         21   -1    0    0  501  503 -0.00000000000E+00 -0.00000000000E+00 -0.24443067800E+03  0.24443067800E+03  0.00000000000E+00 0.  1.
          6    1    1    2  501    0 -0.63944531077E+02  0.14069361959E+03 -0.22487587250E+02  0.23306284395E+03  0.17300000000E+03 0.  1.
         -6    1    1    2    0  502  0.63944531077E+02 -0.14069361959E+03 -0.13316778537E+01  0.23197924695E+03  0.17300000000E+03 0.  1.
</event>
<event>
 4    1  0.5956049E+000  0.1000000E+03  0.7546771E-02  0.1280296E+00
         21   -1    0    0  503  502  0.00000000000E+00  0.00000000000E+00  0.19510436686E+03  0.19510436686E+03  0.00000000000E+00 0.  1.
         21   -1    0    0  501  503 -0.00000000000E+00 -0.00000000000E+00 -0.19860669680E+03  0.19860669680E+03  0.00000000000E+00 0.  1.
          6    1    1    2  501    0 -0.61956619186E+02  0.69447788014E+02 -0.14338001295E+02  0.19696750037E+03  0.17300000000E+03 0.  1.
         -6    1    1    2    0  502  0.61956619186E+02 -0.69447788014E+02  0.10835671359E+02  0.19674356329E+03  0.17300000000E+03 0.  1.
</event>
<event>
 4    1  0.5956049E+000  0.1000000E+03  0.7546771E-02  0.1280296E+00
         21   -1    0    0  501  502  0.00000000000E+00  0.00000000000E+00  0.40591776921E+03  0.40591776921E+03  0.00000000000E+00 0.  1.
         21   -1    0    0  502  503 -0.00000000000E+00 -0.00000000000E+00 -0.19516010778E+03  0.19516010778E+03  0.00000000000E+00 0.  1.
          6    1    1    2  501    0  0.60207312551E+02 -0.42731593752E+02  0.32895048447E+03  0.37893050923E+03  0.17300000000E+03 0.  1.
         -6    1    1    2    0  503 -0.60207312551E+02  0.42731593752E+02 -0.11819282304E+03  0.22214736777E+03  0.17300000000E+03 0.  1.
</event>
<event>
 4    1  0.5956049E+000  0.1000000E+03  0.7546771E-02  0.1280296E+00
         21   -1    0    0  501  502  0.00000000000E+00  0.00000000000E+00  0.20024937718E+03  0.20024937718E+03  0.00000000000E+00 0.  1.
         21   -1    0    0  502  503 -0.00000000000E+00 -0.00000000000E+00 -0.21601595272E+03  0.21601595272E+03  0.00000000000E+00 0.  1.
          6    1    1    2  501    0 -0.41913472364E+02 -0.77165572828E+02  0.67115810178E+02  0.20529197932E+03  0.17300000000E+03 0.  1.
         -6    1    1    2    0  503  0.41913472364E+02  0.77165572828E+02 -0.82882385718E+02  0.21097335059E+03  0.17300000000E+03 0.  1.
</event>
<event>
 4    1  0.5956049E+000  0.1000000E+03  0.7546771E-02  0.1280296E+00
         21   -1    0    0  501  502  0.00000000000E+00  0.00000000000E+00  0.91646316244E+03  0.91646316244E+03  0.00000000000E+00 0.  1.
         21   -1    0    0  502  503 -0.00000000000E+00 -0.00000000000E+00 -0.43525670519E+03  0.43525670519E+03  0.00000000000E+00 0.  1.
          6    1    1    2  501    0  0.29705479064E+03 -0.10032678372E+03  0.79732612086E+03  0.87405088821E+03  0.17300000000E+03 0.  1.
         -6    1    1    2    0  503 -0.29705479064E+03  0.10032678372E+03 -0.31611966361E+03  0.47766897941E+03  0.17300000000E+03 0.  1.
</event>
<event>
 4    1  0.5956049E+000  0.1000000E+03  0.7546771E-02  0.1280296E+00
         21   -1    0    0  501  502  0.00000000000E+00  0.00000000000E+00  0.10161404139E+03  0.10161404139E+03  0.00000000000E+00 0.  1.
         21   -1    0    0  502  503 -0.00000000000E+00 -0.00000000000E+00 -0.32927884133E+03  0.32927884133E+03  0.00000000000E+00 0. -1.
          6    1    1    2  501    0  0.47847067177E+02  0.30395279881E+02 -0.92857237563E+02  0.20436409040E+03  0.17300000000E+03 0.  1.
         -6    1    1    2    0  503 -0.47847067177E+02 -0.30395279881E+02 -0.13480756238E+03  0.22652879232E+03  0.17300000000E+03 0. -1.
</event>
<event>
 4    1  0.5956049E+000  0.1000000E+03  0.7546771E-02  0.1280296E+00
         21   -1    0    0  501  502  0.00000000000E+00  0.00000000000E+00  0.30311693752E+02  0.30311693752E+02  0.00000000000E+00 0.  1.
         21   -1    0    0  502  503 -0.00000000000E+00 -0.00000000000E+00 -0.18109557753E+04  0.18109557753E+04  0.00000000000E+00 0. -1.
          6    1    1    2  501    0  0.10542924646E+02  0.50269668040E+02 -0.30319406244E+03  0.35283683522E+03  0.17300000000E+03 0.  1.
         -6    1    1    2    0  503 -0.10542924646E+02 -0.50269668040E+02 -0.14774500191E+04  0.14884306338E+04  0.17300000000E+03 0. -1.
</event>
<event>
 4    1  0.5956049E+000  0.1000000E+03  0.7546771E-02  0.1280296E+00
         21   -1    0    0  501  502  0.00000000000E+00  0.00000000000E+00  0.49043058365E+03  0.49043058365E+03  0.00000000000E+00 0.  1.
         21   -1    0    0  502  503 -0.00000000000E+00 -0.00000000000E+00 -0.38999051762E+03  0.38999051762E+03  0.00000000000E+00 0. -1.
          6    1    1    2  501    0 -0.47736752920E+02 -0.34197300568E+03  0.25677563476E+03  0.46377479534E+03  0.17300000000E+03 0.  1.
         -6    1    1    2    0  503  0.47736752920E+02  0.34197300568E+03 -0.15633556873E+03  0.41664630592E+03  0.17300000000E+03 0. -1.
</event>
<event>
 4    1  0.5956049E+000  0.1000000E+03  0.7546771E-02  0.1280296E+00
         21   -1    0    0  501  502  0.00000000000E+00  0.00000000000E+00  0.84309769651E+03  0.84309769651E+03  0.00000000000E+00 0.  1.
         21   -1    0    0  502  503 -0.00000000000E+00 -0.00000000000E+00 -0.95336014181E+02  0.95336014181E+02  0.00000000000E+00 0. -1.
          6    1    1    2  501    0 -0.13764515176E+03  0.30090896492E+02  0.66337849091E+03  0.69989404345E+03  0.17300000000E+03 0.  1.
         -6    1    1    2    0  503  0.13764515176E+03 -0.30090896492E+02  0.84383191423E+02  0.23853966724E+03  0.17300000000E+03 0. -1.
</event>
<event>
 4    1  0.5956049E+000  0.1000000E+03  0.7546771E-02  0.1280296E+00
         21   -1    0    0  503  502  0.00000000000E+00  0.00000000000E+00  0.43121445813E+03  0.43121445813E+03  0.00000000000E+00 0.  1.
         21   -1    0    0  501  503 -0.00000000000E+00 -0.00000000000E+00 -0.13518418410E+03  0.13518418410E+03  0.00000000000E+00 0.  1.
          6    1    1    2  501    0 -0.16684722879E+03  0.22534796971E+02  0.14296189556E+03  0.28055822642E+03  0.17300000000E+03 0.  1.
         -6    1    1    2    0  502  0.16684722879E+03 -0.22534796971E+02  0.15306837847E+03  0.28584041582E+03  0.17300000000E+03 0.  1.
</event>
<event>
 4    1  0.5956049E+000  0.1000000E+03  0.7546771E-02  0.1280296E+00
         21   -1    0    0  501  502  0.00000000000E+00  0.00000000000E+00  0.67434644806E+03  0.67434644806E+03  0.00000000000E+00 0. -1.
         21   -1    0    0  502  503 -0.00000000000E+00 -0.00000000000E+00 -0.66433149112E+02  0.66433149112E+02  0.00000000000E+00 0. -1.
          6    1    1    2  501    0 -0.46815000231E+02  0.21144625008E+02  0.49749183179E+03  0.52921249239E+03  0.17300000000E+03 0. -1.
         -6    1    1    2    0  503  0.46815000231E+02 -0.21144625008E+02  0.11042146716E+03  0.21156710478E+03  0.17300000000E+03 0. -1.
</event>
<event>
 4    1  0.5956049E+000  0.1000000E+03  0.7546771E-02  0.1280296E+00
         21   -1    0    0  501  502  0.00000000000E+00  0.00000000000E+00  0.21776458351E+03  0.21776458351E+03  0.00000000000E+00 0. -1.
         21   -1    0    0  502  503 -0.00000000000E+00 -0.00000000000E+00 -0.15744033317E+03  0.15744033317E+03  0.00000000000E+00 0. -1.
          6    1    1    2  501    0 -0.35510527911E+02 -0.23899548487E+02  0.81061145946E+02  0.19578584063E+03  0.17300000000E+03 0. -1.
         -6    1    1    2    0  503  0.35510527911E+02  0.23899548487E+02 -0.20736895609E+02  0.17941907605E+03  0.17300000000E+03 0. -1.
</event>
<event>
 4    1  0.5956049E+000  0.1000000E+03  0.7546771E-02  0.1280296E+00
         21   -1    0    0  501  502  0.00000000000E+00  0.00000000000E+00  0.17678053556E+03  0.17678053556E+03  0.00000000000E+00 0. -1.
         21   -1    0    0  502  503 -0.00000000000E+00 -0.00000000000E+00 -0.22860368690E+03  0.22860368690E+03  0.00000000000E+00 0. -1.
          6    1    1    2  501    0  0.16927937174E+01 -0.68581086964E+02  0.50726775037E+02  0.19289488522E+03  0.17300000000E+03 0. -1.
         -6    1    1    2    0  503 -0.16927937174E+01  0.68581086964E+02 -0.10254992637E+03  0.21248933723E+03  0.17300000000E+03 0. -1.
</event>
<event>
 4    1  0.5956049E+000  0.1000000E+03  0.7546771E-02  0.1280296E+00
         21   -1    0    0  501  502  0.00000000000E+00  0.00000000000E+00  0.34089749544E+02  0.34089749544E+02  0.00000000000E+00 0. -1.
         21   -1    0    0  502  503 -0.00000000000E+00 -0.00000000000E+00 -0.26796606705E+04  0.26796606705E+04  0.00000000000E+00 0. -1.
          6    1    1    2  501    0 -0.33975717785E+02  0.24148514627E+03 -0.15210591417E+04  0.15501675193E+04  0.17300000000E+03 0. -1.
         -6    1    1    2    0  503  0.33975717785E+02 -0.24148514627E+03 -0.11245117792E+04  0.11635829007E+04  0.17300000000E+03 0. -1.
</event>
<event>
 4    1  0.5956049E+000  0.1000000E+03  0.7546771E-02  0.1280296E+00
         21   -1    0    0  501  502  0.00000000000E+00  0.00000000000E+00  0.13559450138E+03  0.13559450138E+03  0.00000000000E+00 0. -1.
         21   -1    0    0  502  503 -0.00000000000E+00 -0.00000000000E+00 -0.34159888256E+03  0.34159888256E+03  0.00000000000E+00 0. -1.
          6    1    1    2  501    0  0.46302330818E+02 -0.84547689096E+01  0.28987394444E+02  0.18161678885E+03  0.17300000000E+03 0. -1.
         -6    1    1    2    0  503 -0.46302330818E+02  0.84547689096E+01 -0.23499177562E+03  0.29557659509E+03  0.17300000000E+03 0. -1.
</event>
<event>
 4    1  0.5956049E+000  0.1000000E+03  0.7546771E-02  0.1280296E+00
         21   -1    0    0  501  502  0.00000000000E+00  0.00000000000E+00  0.98605524605E+02  0.98605524605E+02  0.00000000000E+00 0.  1.
         21   -1    0    0  502  503 -0.00000000000E+00 -0.00000000000E+00 -0.89967610828E+03  0.89967610828E+03  0.00000000000E+00 0. -1.
          6    1    1    2  501    0 -0.94534172988E+02  0.98863748442E+02 -0.65062861857E+02  0.22994113728E+03  0.17300000000E+03 0.  1.
         -6    1    1    2    0  503  0.94534172988E+02 -0.98863748442E+02 -0.73600772181E+03  0.76834049561E+03  0.17300000000E+03 0. -1.
</event>
<event>
 4    1  0.5956049E+000  0.1000000E+03  0.7546771E-02  0.1280296E+00
         21   -1    0    0  503  502  0.00000000000E+00  0.00000000000E+00  0.15915512855E+03  0.15915512855E+03  0.00000000000E+00 0. -1.
         21   -1    0    0  501  503 -0.00000000000E+00 -0.00000000000E+00 -0.46102191344E+03  0.46102191344E+03  0.00000000000E+00 0. -1.
          6    1    1    2  501    0 -0.11895168777E+03  0.24694086223E+02 -0.34481977696E+03  0.40446134612E+03  0.17300000000E+03 0. -1.
         -6    1    1    2    0  502  0.11895168777E+03 -0.24694086223E+02  0.42952992073E+02  0.21571569587E+03  0.17300000000E+03 0. -1.
</event>
<event>
 4    1  0.5956049E+000  0.1000000E+03  0.7546771E-02  0.1280296E+00
         21   -1    0    0  503  502  0.00000000000E+00  0.00000000000E+00  0.70358296318E+03  0.70358296318E+03  0.00000000000E+00 0. -1.
         21   -1    0    0  501  503 -0.00000000000E+00 -0.00000000000E+00 -0.11939894595E+03  0.11939894595E+03  0.00000000000E+00 0. -1.
          6    1    1    2  501    0 -0.22215377802E+02  0.81886898271E+02 -0.15299534860E+02  0.19329268710E+03  0.17300000000E+03 0. -1.
         -6    1    1    2    0  502  0.22215377802E+02 -0.81886898271E+02  0.59948355209E+03  0.62968922204E+03  0.17300000000E+03 0. -1.
</event>
<event>
 4    1  0.5956049E+000  0.1000000E+03  0.7546771E-02  0.1280296E+00
         21   -1    0    0  503  502  0.00000000000E+00  0.00000000000E+00  0.71921890519E+02  0.71921890519E+02  0.00000000000E+00 0.  1.
         21   -1    0    0  501  503 -0.00000000000E+00 -0.00000000000E+00 -0.93303515629E+03  0.93303515629E+03  0.00000000000E+00 0.  1.
          6    1    1    2  501    0 -0.14362584186E+03 -0.12860895184E+03 -0.42506774681E+03  0.49777528497E+03  0.17300000000E+03 0. -1.
         -6    1    1    2    0  502  0.14362584186E+03  0.12860895184E+03 -0.43604551896E+03  0.50718176184E+03  0.17300000000E+03 0. -1.
</event>
<event>
 4    1  0.5956049E+000  0.1000000E+03  0.7546771E-02  0.1280296E+00
         21   -1    0    0  503  502  0.00000000000E+00  0.00000000000E+00  0.15939890735E+03  0.15939890735E+03  0.00000000000E+00 0.  1.
         21   -1    0    0  501  503 -0.00000000000E+00 -0.00000000000E+00 -0.46187888729E+03  0.46187888729E+03  0.00000000000E+00 0.  1.
          6    1    1    2  501    0  0.99221610009E+02 -0.17268497060E+03 -0.22390841537E+03  0.34601879347E+03  0.17300000000E+03 0.  1.
         -6    1    1    2    0  502 -0.99221610009E+02  0.17268497060E+03 -0.78571564562E+02  0.27525900116E+03  0.17300000000E+03 0.  1.
</event>
<event>
 4    1  0.5956049E+000  0.1000000E+03  0.7546771E-02  0.1280296E+00
         21   -1    0    0  503  502  0.00000000000E+00  0.00000000000E+00  0.72303803247E+03  0.72303803247E+03  0.00000000000E+00 0.  1.
         21   -1    0    0  501  503 -0.00000000000E+00 -0.00000000000E+00 -0.74748510665E+02  0.74748510665E+02  0.00000000000E+00 0.  1.
          6    1    1    2  501    0 -0.65364645604E+02  0.95058774531E+02  0.14576164928E+03  0.25393732674E+03  0.17300000000E+03 0.  1.
         -6    1    1    2    0  502  0.65364645604E+02 -0.95058774531E+02  0.50252787252E+03  0.54384921640E+03  0.17300000000E+03 0.  1.
</event>
<event>
 4    1  0.5956049E+000  0.1000000E+03  0.7546771E-02  0.1280296E+00
         21   -1    0    0  503  502  0.00000000000E+00  0.00000000000E+00  0.14136444731E+03  0.14136444731E+03  0.00000000000E+00 0.  1.
         21   -1    0    0  501  503 -0.00000000000E+00 -0.00000000000E+00 -0.34668133945E+03  0.34668133945E+03  0.00000000000E+00 0.  1.
          6    1    1    2  501    0  0.76294254985E+02  0.10733757822E+03 -0.14860215082E+03  0.26335103621E+03  0.17300000000E+03 0.  1.
         -6    1    1    2    0  502 -0.76294254985E+02 -0.10733757822E+03 -0.56714741318E+02  0.22469475055E+03  0.17300000000E+03 0.  1.
</event>
<event>
 4    1  0.5956049E+000  0.1000000E+03  0.7546771E-02  0.1280296E+00
         21   -1    0    0  503  502  0.00000000000E+00  0.00000000000E+00  0.18512190755E+03  0.18512190755E+03  0.00000000000E+00 0.  1.
         21   -1    0    0  501  503 -0.00000000000E+00 -0.00000000000E+00 -0.23693884856E+03  0.23693884856E+03  0.00000000000E+00 0.  1.
          6    1    1    2  501    0 -0.39887699646E+02  0.10405051566E+03 -0.65141540359E+02  0.21584707242E+03  0.17300000000E+03 0.  1.
         -6    1    1    2    0  502  0.39887699646E+02 -0.10405051566E+03  0.13324599346E+02  0.20621368369E+03  0.17300000000E+03 0.  1.
</event>
<event>
 4    1  0.5956049E+000  0.1000000E+03  0.7546771E-02  0.1280296E+00
         21   -1    0    0  503  502  0.00000000000E+00  0.00000000000E+00  0.68277094734E+02  0.68277094734E+02  0.00000000000E+00 0.  1.
         21   -1    0    0  501  503 -0.00000000000E+00 -0.00000000000E+00 -0.66683797904E+03  0.66683797904E+03  0.00000000000E+00 0.  1.
          6    1    1    2  501    0 -0.12465424047E+03  0.44548469992E+01 -0.31047511795E+03  0.37667270169E+03  0.17300000000E+03 0.  1.
         -6    1    1    2    0  502  0.12465424047E+03 -0.44548469992E+01 -0.28808576635E+03  0.35844237208E+03  0.17300000000E+03 0.  1.
</event>
<event>
 4    1  0.5956049E+000  0.1000000E+03  0.7546771E-02  0.1280296E+00
         21   -1    0    0  503  502  0.00000000000E+00  0.00000000000E+00  0.51700186871E+03  0.51700186871E+03  0.00000000000E+00 0. -1.
         21   -1    0    0  501  503 -0.00000000000E+00 -0.00000000000E+00 -0.16297653511E+03  0.16297653511E+03  0.00000000000E+00 0.  1.
          6    1    1    2  501    0 -0.28107632750E+02  0.16537213419E+03 -0.12545476164E+02  0.24129726637E+03  0.17300000000E+03 0.  1.
         -6    1    1    2    0  502  0.28107632750E+02 -0.16537213419E+03  0.36657080977E+03  0.43868113745E+03  0.17300000000E+03 0. -1.
</event>
<event>
 4    1  0.5956049E+000  0.1000000E+03  0.7546771E-02  0.1280296E+00
         21   -1    0    0  503  502  0.00000000000E+00  0.00000000000E+00  0.84643674000E+03  0.84643674000E+03  0.00000000000E+00 0. -1.
         21   -1    0    0  501  503 -0.00000000000E+00 -0.00000000000E+00 -0.77835269767E+02  0.77835269767E+02  0.00000000000E+00 0.  1.
          6    1    1    2  501    0 -0.12005883875E+03 -0.14584859558E+03  0.35484268600E+03  0.43763942853E+03  0.17300000000E+03 0.  1.
         -6    1    1    2    0  502  0.12005883875E+03  0.14584859558E+03  0.41375878423E+03  0.48663258124E+03  0.17300000000E+03 0. -1.
</event>
<event>
 4    1  0.5956049E+000  0.1000000E+03  0.7546771E-02  0.1280296E+00
         21   -1    0    0  501  502  0.00000000000E+00  0.00000000000E+00  0.53477532945E+03  0.53477532945E+03  0.00000000000E+00 0. -1.
         21   -1    0    0  502  503 -0.00000000000E+00 -0.00000000000E+00 -0.81062511256E+02  0.81062511256E+02  0.00000000000E+00 0. -1.
          6    1    1    2  501    0 -0.53639644714E+02 -0.92280615939E+01  0.37810205970E+03  0.41934775086E+03  0.17300000000E+03 0. -1.
         -6    1    1    2    0  503  0.53639644714E+02  0.92280615939E+01  0.75610758496E+02  0.19649008984E+03  0.17300000000E+03 0. -1.
</event>
<event>
 4    1  0.5956049E+000  0.1000000E+03  0.7546771E-02  0.1280296E+00
         21   -1    0    0  501  502  0.00000000000E+00  0.00000000000E+00  0.14825637363E+03  0.14825637363E+03  0.00000000000E+00 0. -1.
         21   -1    0    0  502  503 -0.00000000000E+00 -0.00000000000E+00 -0.74833892191E+03  0.74833892191E+03  0.00000000000E+00 0. -1.
          6    1    1    2  501    0  0.15278916112E+03  0.15513888689E+03 -0.53318771132E+02  0.28316866588E+03  0.17300000000E+03 0. -1.
         -6    1    1    2    0  503 -0.15278916112E+03 -0.15513888689E+03 -0.54676377714E+03  0.61342662966E+03  0.17300000000E+03 0. -1.
</event>
<event>
 4    1  0.5956049E+000  0.1000000E+03  0.7546771E-02  0.1280296E+00
         21   -1    0    0  501  502  0.00000000000E+00  0.00000000000E+00  0.24511173539E+03  0.24511173539E+03  0.00000000000E+00 0. -1.
         21   -1    0    0  502  503 -0.00000000000E+00 -0.00000000000E+00 -0.33390078449E+03  0.33390078449E+03  0.00000000000E+00 0. -1.
          6    1    1    2  501    0  0.76817518237E+02  0.11443131482E+01  0.17267637724E+03  0.25621938221E+03  0.17300000000E+03 0. -1.
         -6    1    1    2    0  503 -0.76817518237E+02 -0.11443131482E+01 -0.26146542634E+03  0.32279313768E+03  0.17300000000E+03 0. -1.
</event>
<event>
 4    1  0.5956049E+000  0.1000000E+03  0.7546771E-02  0.1280296E+00
         21   -1    0    0  501  502  0.00000000000E+00  0.00000000000E+00  0.12027831785E+03  0.12027831785E+03  0.00000000000E+00 0. -1.
         21   -1    0    0  502  503 -0.00000000000E+00 -0.00000000000E+00 -0.43163401450E+03  0.43163401450E+03  0.00000000000E+00 0. -1.
          6    1    1    2  501    0 -0.12003264902E+03 -0.76107617364E+02 -0.10447999887E+03  0.24707342312E+03  0.17300000000E+03 0. -1.
         -6    1    1    2    0  503  0.12003264902E+03  0.76107617364E+02 -0.20687569778E+03  0.30483890923E+03  0.17300000000E+03 0. -1.
</event>
<event>
 4    1  0.5956049E+000  0.1000000E+03  0.7546771E-02  0.1280296E+00
         21   -1    0    0  501  502  0.00000000000E+00  0.00000000000E+00  0.13409903126E+03  0.13409903126E+03  0.00000000000E+00 0. -1.
         21   -1    0    0  502  503 -0.00000000000E+00 -0.00000000000E+00 -0.51880847209E+03  0.51880847209E+03  0.00000000000E+00 0. -1.
          6    1    1    2  501    0 -0.13073665190E+03  0.48006541428E+02 -0.36846109371E+03  0.43022003411E+03  0.17300000000E+03 0. -1.
         -6    1    1    2    0  503  0.13073665190E+03 -0.48006541428E+02 -0.16248347114E+02  0.22268746923E+03  0.17300000000E+03 0. -1.
</event>
<event>
 4    1  0.5956049E+000  0.1000000E+03  0.7546771E-02  0.1280296E+00
         21   -1    0    0  501  502  0.00000000000E+00  0.00000000000E+00  0.82443549469E+02  0.82443549469E+02  0.00000000000E+00 0. -1.
         21   -1    0    0  502  503 -0.00000000000E+00 -0.00000000000E+00 -0.41449558485E+03  0.41449558485E+03  0.00000000000E+00 0. -1.
          6    1    1    2  501    0 -0.26212802907E+01  0.59060658578E+02 -0.12925398112E+03  0.22389869168E+03  0.17300000000E+03 0. -1.
         -6    1    1    2    0  503  0.26212802907E+01 -0.59060658578E+02 -0.20279805426E+03  0.27304044263E+03  0.17300000000E+03 0. -1.
</event>
<event>
 4    1  0.5956049E+000  0.1000000E+03  0.7546771E-02  0.1280296E+00
         21   -1    0    0  503  502  0.00000000000E+00  0.00000000000E+00  0.93195932917E+02  0.93195932917E+02  0.00000000000E+00 0. -1.
         21   -1    0    0  501  503 -0.00000000000E+00 -0.00000000000E+00 -0.44717974671E+03  0.44717974671E+03  0.00000000000E+00 0. -1.
          6    1    1    2  501    0 -0.15151933023E+02  0.43116991125E+02 -0.30705755510E+03  0.35538992409E+03  0.17300000000E+03 0. -1.
         -6    1    1    2    0  502  0.15151933023E+02 -0.43116991125E+02 -0.46926258693E+02  0.18498575554E+03  0.17300000000E+03 0. -1.
</event>
<event>
 4    1  0.5956049E+000  0.1000000E+03  0.7546771E-02  0.1280296E+00
         21   -1    0    0  503  502  0.00000000000E+00  0.00000000000E+00  0.14311894310E+03  0.14311894310E+03  0.00000000000E+00 0. -1.
         21   -1    0    0  501  503 -0.00000000000E+00 -0.00000000000E+00 -0.28967321820E+03  0.28967321820E+03  0.00000000000E+00 0. -1.
          6    1    1    2  501    0 -0.97091193538E+01 -0.10340077805E+03 -0.44312762079E+02  0.20658801703E+03  0.17300000000E+03 0. -1.
         -6    1    1    2    0  502  0.97091193538E+01  0.10340077805E+03 -0.10224151302E+03  0.22620414427E+03  0.17300000000E+03 0. -1.
</event>
<event>
 4    1  0.5956049E+000  0.1000000E+03  0.7546771E-02  0.1280296E+00
         21   -1    0    0  503  502  0.00000000000E+00  0.00000000000E+00  0.29915902270E+03  0.29915902270E+03  0.00000000000E+00 0. -1.
         21   -1    0    0  501  503 -0.00000000000E+00 -0.00000000000E+00 -0.34198288234E+03  0.34198288234E+03  0.00000000000E+00 0. -1.
          6    1    1    2  501    0 -0.61043821996E+02 -0.19629838787E+02 -0.28327546285E+03  0.33806163141E+03  0.17300000000E+03 0. -1.
         -6    1    1    2    0  502  0.61043821996E+02  0.19629838787E+02  0.24045160321E+03  0.30308027363E+03  0.17300000000E+03 0. -1.
</event>
<event>
 4    1  0.5956049E+000  0.1000000E+03  0.7546771E-02  0.1280296E+00
         21   -1    0    0  501  502  0.00000000000E+00  0.00000000000E+00  0.51690638240E+03  0.51690638240E+03  0.00000000000E+00 0. -1.
         21   -1    0    0  502  503 -0.00000000000E+00 -0.00000000000E+00 -0.18801953671E+03  0.18801953671E+03  0.00000000000E+00 0. -1.
          6    1    1    2  501    0 -0.16415141161E+03 -0.13407178428E+02  0.39094049684E+03  0.45813634481E+03  0.17300000000E+03 0. -1.
         -6    1    1    2    0  503  0.16415141161E+03  0.13407178428E+02 -0.62053651146E+02  0.24678957431E+03  0.17300000000E+03 0. -1.
</event>
<event>
 4    1  0.5956049E+000  0.1000000E+03  0.7546771E-02  0.1280296E+00
         21   -1    0    0  501  502  0.00000000000E+00  0.00000000000E+00  0.11612448906E+04  0.11612448906E+04  0.00000000000E+00 0. -1.
         21   -1    0    0  502  503 -0.00000000000E+00 -0.00000000000E+00 -0.66855897626E+02  0.66855897626E+02  0.00000000000E+00 0. -1.
          6    1    1    2  501    0  0.14269443279E+03 -0.73287919139E+02  0.87387955204E+03  0.90516699659E+03  0.17300000000E+03 0. -1.
         -6    1    1    2    0  503 -0.14269443279E+03  0.73287919139E+02  0.22050944094E+03  0.32293379164E+03  0.17300000000E+03 0. -1.
</event>
<event>
 4    1  0.5956049E+000  0.1000000E+03  0.7546771E-02  0.1280296E+00
         21   -1    0    0  503  502  0.00000000000E+00  0.00000000000E+00  0.53829573500E+03  0.53829573500E+03  0.00000000000E+00 0. -1.
         21   -1    0    0  501  503 -0.00000000000E+00 -0.00000000000E+00 -0.91994188857E+02  0.91994188857E+02  0.00000000000E+00 0.  1.
          6    1    1    2  501    0 -0.52062583086E+02  0.12203825044E+03  0.28628197088E+03  0.35984748711E+03  0.17300000000E+03 0. -1.
         -6    1    1    2    0  502  0.52062583086E+02 -0.12203825044E+03  0.16001957526E+03  0.27044243675E+03  0.17300000000E+03 0.  1.
</event>
<event>
 4    1  0.5956049E+000  0.1000000E+03  0.7546771E-02  0.1280296E+00
         21   -1    0    0  501  502  0.00000000000E+00  0.00000000000E+00  0.53936815169E+03  0.53936815169E+03  0.00000000000E+00 0.  1.
         21   -1    0    0  502  503 -0.00000000000E+00 -0.00000000000E+00 -0.28136767379E+03  0.28136767379E+03  0.00000000000E+00 0.  1.
          6    1    1    2  501    0 -0.44411148328E+02  0.54394949399E+02  0.48916566356E+03  0.52358686674E+03  0.17300000000E+03 0.  1.
         -6    1    1    2    0  503  0.44411148328E+02 -0.54394949399E+02 -0.23116518566E+03  0.29714895874E+03  0.17300000000E+03 0.  1.
</event>
<event>
 4    1  0.5956049E+000  0.1000000E+03  0.7546771E-02  0.1280296E+00
         21   -1    0    0  501  502  0.00000000000E+00  0.00000000000E+00  0.12818971162E+03  0.12818971162E+03  0.00000000000E+00 0.  1.
         21   -1    0    0  502  503 -0.00000000000E+00 -0.00000000000E+00 -0.33265775263E+03  0.33265775263E+03  0.00000000000E+00 0.  1.
          6    1    1    2  501    0 -0.95465987073E+02  0.45711620360E+02 -0.58859645317E+02  0.21117946105E+03  0.17300000000E+03 0.  1.
         -6    1    1    2    0  503  0.95465987073E+02 -0.45711620360E+02 -0.14560839570E+03  0.24966800320E+03  0.17300000000E+03 0.  1.
</event>
<event>
 4    1  0.5956049E+000  0.1000000E+03  0.7546771E-02  0.1280296E+00
         21   -1    0    0  501  502  0.00000000000E+00  0.00000000000E+00  0.37690553800E+03  0.37690553800E+03  0.00000000000E+00 0.  1.
         21   -1    0    0  502  503 -0.00000000000E+00 -0.00000000000E+00 -0.26960167499E+03  0.26960167499E+03  0.00000000000E+00 0.  1.
          6    1    1    2  501    0  0.80191663706E+02 -0.86240925765E+02  0.29748590712E+03  0.36372388585E+03  0.17300000000E+03 0.  1.
         -6    1    1    2    0  503 -0.80191663706E+02  0.86240925765E+02 -0.19018204411E+03  0.28278332714E+03  0.17300000000E+03 0.  1.
</event>
<event>
 4    1  0.5956049E+000  0.1000000E+03  0.7546771E-02  0.1280296E+00
         21   -1    0    0  501  502  0.00000000000E+00  0.00000000000E+00  0.34550218837E+03  0.34550218837E+03  0.00000000000E+00 0.  1.
         21   -1    0    0  502  503 -0.00000000000E+00 -0.00000000000E+00 -0.12186575569E+03  0.12186575569E+03  0.00000000000E+00 0.  1.
          6    1    1    2  501    0 -0.69851322908E+02  0.49997197742E+02  0.19069435614E+03  0.27142635200E+03  0.17300000000E+03 0.  1.
         -6    1    1    2    0  503  0.69851322908E+02 -0.49997197742E+02  0.32942076540E+02  0.19594159206E+03  0.17300000000E+03 0.  1.
</event>
<event>
 4    1  0.5956049E+000  0.1000000E+03  0.7546771E-02  0.1280296E+00
         21   -1    0    0  501  502  0.00000000000E+00  0.00000000000E+00  0.10182630100E+03  0.10182630100E+03  0.00000000000E+00 0.  1.
         21   -1    0    0  502  503 -0.00000000000E+00 -0.00000000000E+00 -0.38602715989E+03  0.38602715989E+03  0.00000000000E+00 0.  1.
          6    1    1    2  501    0  0.14160682218E+02 -0.31085496136E+01 -0.24293637434E+02  0.17529794300E+03  0.17300000000E+03 0.  1.
         -6    1    1    2    0  503 -0.14160682218E+02  0.31085496136E+01 -0.25990722145E+03  0.31255551789E+03  0.17300000000E+03 0.  1.
</event>
<event>
 4    1  0.5956049E+000  0.1000000E+03  0.7546771E-02  0.1280296E+00
         21   -1    0    0  501  502  0.00000000000E+00  0.00000000000E+00  0.39563293953E+02  0.39563293953E+02  0.00000000000E+00 0. -1.
         21   -1    0    0  502  503 -0.00000000000E+00 -0.00000000000E+00 -0.28105473842E+04  0.28105473842E+04  0.00000000000E+00 0. -1.
          6    1    1    2  501    0 -0.18251072084E+03  0.51861676111E+02 -0.47625997026E+03  0.54106594417E+03  0.17300000000E+03 0. -1.
         -6    1    1    2    0  503  0.18251072084E+03 -0.51861676111E+02 -0.22947241200E+04  0.23090447340E+04  0.17300000000E+03 0. -1.
</event>
<event>
 4    1  0.5956049E+000  0.1000000E+03  0.7546771E-02  0.1280296E+00
         21   -1    0    0  501  502  0.00000000000E+00  0.00000000000E+00  0.15925126552E+03  0.15925126552E+03  0.00000000000E+00 0. -1.
         21   -1    0    0  502  503 -0.00000000000E+00 -0.00000000000E+00 -0.40235882763E+03  0.40235882763E+03  0.00000000000E+00 0. -1.
          6    1    1    2  501    0 -0.35336239076E+02 -0.55515324924E+01  0.79559726985E+02  0.19374782441E+03  0.17300000000E+03 0. -1.
         -6    1    1    2    0  503  0.35336239076E+02  0.55515324924E+01 -0.32266728910E+03  0.36786226873E+03  0.17300000000E+03 0. -1.
</event>
<event>
 4    1  0.5956049E+000  0.1000000E+03  0.7546771E-02  0.1280296E+00
         21   -1    0    0  501  502  0.00000000000E+00  0.00000000000E+00  0.12926810907E+04  0.12926810907E+04  0.00000000000E+00 0. -1.
         21   -1    0    0  502  503 -0.00000000000E+00 -0.00000000000E+00 -0.10993357887E+03  0.10993357887E+03  0.00000000000E+00 0. -1.
          6    1    1    2  501    0 -0.19077035677E+03 -0.23005323956E+03  0.87266541667E+03  0.93850506206E+03  0.17300000000E+03 0. -1.
         -6    1    1    2    0  503  0.19077035677E+03  0.23005323956E+03  0.31008209516E+03  0.46410960752E+03  0.17300000000E+03 0. -1.
</event>
<event>
 4    1  0.5956049E+000  0.1000000E+03  0.7546771E-02  0.1280296E+00
         21   -1    0    0  501  502  0.00000000000E+00  0.00000000000E+00  0.24712836300E+03  0.24712836300E+03  0.00000000000E+00 0. -1.
         21   -1    0    0  502  503 -0.00000000000E+00 -0.00000000000E+00 -0.15935517569E+03  0.15935517569E+03  0.00000000000E+00 0. -1.
          6    1    1    2  501    0 -0.27718593635E+02 -0.71691438480E+02  0.10485821602E+03  0.21640755128E+03  0.17300000000E+03 0. -1.
         -6    1    1    2    0  503  0.27718593635E+02  0.71691438480E+02 -0.17085028706E+02  0.19007598741E+03  0.17300000000E+03 0. -1.
</event>
<event>
 4    1  0.5956049E+000  0.1000000E+03  0.7546771E-02  0.1280296E+00
         21   -1    0    0  501  502  0.00000000000E+00  0.00000000000E+00  0.76276954020E+03  0.76276954020E+03  0.00000000000E+00 0. -1.
         21   -1    0    0  502  503 -0.00000000000E+00 -0.00000000000E+00 -0.98676792805E+02  0.98676792805E+02  0.00000000000E+00 0. -1.
          6    1    1    2  501    0 -0.83092847616E+02 -0.98285558916E+02  0.59836130789E+03  0.63602651454E+03  0.17300000000E+03 0. -1.
         -6    1    1    2    0  503  0.83092847616E+02  0.98285558916E+02  0.65731439499E+02  0.22541981846E+03  0.17300000000E+03 0. -1.
</event>
<event>
 4    1  0.5956049E+000  0.1000000E+03  0.7546771E-02  0.1280296E+00
         21   -1    0    0  501  502  0.00000000000E+00  0.00000000000E+00  0.13848435303E+03  0.13848435303E+03  0.00000000000E+00 0.  1.
         21   -1    0    0  502  503 -0.00000000000E+00 -0.00000000000E+00 -0.54527979036E+03  0.54527979036E+03  0.00000000000E+00 0.  1.
          6    1    1    2  501    0 -0.17103597969E+03 -0.62278932911E+02 -0.64568327361E+02  0.25928756378E+03  0.17300000000E+03 0.  1.
         -6    1    1    2    0  503  0.17103597969E+03  0.62278932911E+02 -0.34222710997E+03  0.42447657961E+03  0.17300000000E+03 0.  1.
</event>
<event>
 4    1  0.5956049E+000  0.1000000E+03  0.7546771E-02  0.1280296E+00
         21   -1    0    0  501  502  0.00000000000E+00  0.00000000000E+00  0.68055649502E+02  0.68055649502E+02  0.00000000000E+00 0. -1.
         21   -1    0    0  502  503 -0.00000000000E+00 -0.00000000000E+00 -0.48905961866E+03  0.48905961866E+03  0.00000000000E+00 0. -1.
          6    1    1    2  501    0 -0.13990787937E+02  0.16061691942E+02 -0.12826972165E+03  0.21641589957E+03  0.17300000000E+03 0. -1.
         -6    1    1    2    0  503  0.13990787937E+02 -0.16061691942E+02 -0.29273424751E+03  0.34069936859E+03  0.17300000000E+03 0. -1.
</event>
<event>
 4    1  0.5956049E+000  0.1000000E+03  0.7546771E-02  0.1280296E+00
         21   -1    0    0  501  502  0.00000000000E+00  0.00000000000E+00  0.50908686205E+02  0.50908686205E+02  0.00000000000E+00 0. -1.
         21   -1    0    0  502  503 -0.00000000000E+00 -0.00000000000E+00 -0.79760778568E+03  0.79760778568E+03  0.00000000000E+00 0. -1.
          6    1    1    2  501    0  0.43922431887E+02 -0.41189541890E+02 -0.19656402130E+03  0.26868601164E+03  0.17300000000E+03 0. -1.
         -6    1    1    2    0  503 -0.43922431887E+02  0.41189541890E+02 -0.55013507818E+03  0.57983046024E+03  0.17300000000E+03 0. -1.
</event>
<event>
 4    1  0.5956049E+000  0.1000000E+03  0.7546771E-02  0.1280296E+00
         21   -1    0    0  501  502  0.00000000000E+00  0.00000000000E+00  0.12255736164E+04  0.12255736164E+04  0.00000000000E+00 0. -1.
         21   -1    0    0  502  503 -0.00000000000E+00 -0.00000000000E+00 -0.21227689310E+03  0.21227689310E+03  0.00000000000E+00 0. -1.
          6    1    1    2  501    0  0.78053419009E+02 -0.29098404285E+02  0.11726880979E+04  0.11883035927E+04  0.17300000000E+03 0. -1.
         -6    1    1    2    0  503 -0.78053419009E+02  0.29098404285E+02 -0.15939137468E+03  0.24954691678E+03  0.17300000000E+03 0. -1.
</event>
<event>
 4    1  0.5956049E+000  0.1000000E+03  0.7546771E-02  0.1280296E+00
         21   -1    0    0  503  502  0.00000000000E+00  0.00000000000E+00  0.71154668383E+02  0.71154668383E+02  0.00000000000E+00 0.  1.
         21   -1    0    0  501  503 -0.00000000000E+00 -0.00000000000E+00 -0.53096959513E+03  0.53096959513E+03  0.00000000000E+00 0.  1.
          6    1    1    2  501    0 -0.22182595432E+01  0.69631016475E+02 -0.31472319970E+03  0.36583205376E+03  0.17300000000E+03 0.  1.
         -6    1    1    2    0  502  0.22182595432E+01 -0.69631016475E+02 -0.14509172705E+03  0.23629220975E+03  0.17300000000E+03 0.  1.
</event>
<event>
 4    1  0.5956049E+000  0.1000000E+03  0.7546771E-02  0.1280296E+00
         21   -1    0    0  503  502  0.00000000000E+00  0.00000000000E+00  0.17623627123E+03  0.17623627123E+03  0.00000000000E+00 0.  1.
         21   -1    0    0  501  503 -0.00000000000E+00 -0.00000000000E+00 -0.19983332998E+03  0.19983332998E+03  0.00000000000E+00 0.  1.
          6    1    1    2  501    0  0.60946818639E+02 -0.12413073694E+02 -0.49559564494E+02  0.19040417415E+03  0.17300000000E+03 0.  1.
         -6    1    1    2    0  502 -0.60946818639E+02  0.12413073694E+02  0.25962505743E+02  0.18566542706E+03  0.17300000000E+03 0.  1.
</event>
<event>
 4    1  0.5956049E+000  0.1000000E+03  0.7546771E-02  0.1280296E+00
         21   -1    0    0  503  502  0.00000000000E+00  0.00000000000E+00  0.22799803758E+02  0.22799803758E+02  0.00000000000E+00 0. -1.
         21   -1    0    0  501  503 -0.00000000000E+00 -0.00000000000E+00 -0.18413489117E+04  0.18413489117E+04  0.00000000000E+00 0.  1.
          6    1    1    2  501    0 -0.39444040428E+02  0.58219532007E+02 -0.12927981820E+04  0.13062164773E+04  0.17300000000E+03 0.  1.
         -6    1    1    2    0  502  0.39444040428E+02 -0.58219532007E+02 -0.52575092601E+03  0.55793223821E+03  0.17300000000E+03 0. -1.
</event>
<event>
 4    1  0.5956049E+000  0.1000000E+03  0.7546771E-02  0.1280296E+00
         21   -1    0    0  503  502  0.00000000000E+00  0.00000000000E+00  0.23487997053E+03  0.23487997053E+03  0.00000000000E+00 0. -1.
         21   -1    0    0  501  503 -0.00000000000E+00 -0.00000000000E+00 -0.22577800515E+03  0.22577800515E+03  0.00000000000E+00 0.  1.
          6    1    1    2  501    0 -0.53551346096E+02  0.37364584213E+02 -0.13272694565E+03  0.22761656557E+03  0.17300000000E+03 0.  1.
         -6    1    1    2    0  502  0.53551346096E+02 -0.37364584213E+02  0.14182891103E+03  0.23304141011E+03  0.17300000000E+03 0. -1.
</event>
<event>
 4    1  0.5956049E+000  0.1000000E+03  0.7546771E-02  0.1280296E+00
         21   -1    0    0  503  502  0.00000000000E+00  0.00000000000E+00  0.11652678350E+03  0.11652678350E+03  0.00000000000E+00 0. -1.
         21   -1    0    0  501  503 -0.00000000000E+00 -0.00000000000E+00 -0.40214289712E+03  0.40214289712E+03  0.00000000000E+00 0.  1.
          6    1    1    2  501    0  0.71890354420E+02  0.81995928713E+02 -0.22785665263E+03  0.30616859658E+03  0.17300000000E+03 0.  1.
         -6    1    1    2    0  502 -0.71890354420E+02 -0.81995928713E+02 -0.57759460994E+02  0.21250108404E+03  0.17300000000E+03 0. -1.
</event>
<event>
 4    1  0.5956049E+000  0.1000000E+03  0.7546771E-02  0.1280296E+00
         21   -1    0    0  503  502  0.00000000000E+00  0.00000000000E+00  0.17543717289E+03  0.17543717289E+03  0.00000000000E+00 0. -1.
         21   -1    0    0  501  503 -0.00000000000E+00 -0.00000000000E+00 -0.56290717100E+03  0.56290717100E+03  0.00000000000E+00 0. -1.
          6    1    1    2  501    0  0.10001400443E+03  0.19828827419E+02 -0.47770154297E+03  0.51819277073E+03  0.17300000000E+03 0. -1.
         -6    1    1    2    0  502 -0.10001400443E+03 -0.19828827419E+02  0.90231544859E+02  0.22015157316E+03  0.17300000000E+03 0. -1.
</event>
<event>
 4    1  0.5956049E+000  0.1000000E+03  0.7546771E-02  0.1280296E+00
         21   -1    0    0  503  502  0.00000000000E+00  0.00000000000E+00  0.40729541794E+03  0.40729541794E+03  0.00000000000E+00 0. -1.
         21   -1    0    0  501  503 -0.00000000000E+00 -0.00000000000E+00 -0.17498205960E+03  0.17498205960E+03  0.00000000000E+00 0. -1.
          6    1    1    2  501    0 -0.93822653545E+02  0.17699843014E+03  0.78233242322E+02  0.27600828755E+03  0.17300000000E+03 0. -1.
         -6    1    1    2    0  502  0.93822653545E+02 -0.17699843014E+03  0.15408011602E+03  0.30626919000E+03  0.17300000000E+03 0. -1.
</event>
<event>
 4    1  0.5956049E+000  0.1000000E+03  0.7546771E-02  0.1280296E+00
         21   -1    0    0  503  502  0.00000000000E+00  0.00000000000E+00  0.86320612168E+03  0.86320612168E+03  0.00000000000E+00 0. -1.
         21   -1    0    0  501  503 -0.00000000000E+00 -0.00000000000E+00 -0.49412898519E+02  0.49412898519E+02  0.00000000000E+00 0. -1.
          6    1    1    2  501    0  0.10691144645E+03  0.29986762460E+02  0.36297080054E+03  0.41714034251E+03  0.17300000000E+03 0. -1.
         -6    1    1    2    0  502 -0.10691144645E+03 -0.29986762460E+02  0.45082242262E+03  0.49547867769E+03  0.17300000000E+03 0. -1.
</event>
<event>
 4    1  0.5956049E+000  0.1000000E+03  0.7546771E-02  0.1280296E+00
         21   -1    0    0  501  502  0.00000000000E+00  0.00000000000E+00  0.67520430239E+02  0.67520430239E+02  0.00000000000E+00 0. -1.
         21   -1    0    0  502  503 -0.00000000000E+00 -0.00000000000E+00 -0.10560030459E+04  0.10560030459E+04  0.00000000000E+00 0.  1.
          6    1    1    2  501    0  0.65759374211E+02  0.22742656947E+02 -0.92141122299E+02  0.20799161079E+03  0.17300000000E+03 0. -1.
         -6    1    1    2    0  503 -0.65759374211E+02 -0.22742656947E+02 -0.89634149332E+03  0.91553186531E+03  0.17300000000E+03 0.  1.
</event>
<event>
 4    1  0.5956049E+000  0.1000000E+03  0.7546771E-02  0.1280296E+00
         21   -1    0    0  501  502  0.00000000000E+00  0.00000000000E+00  0.21647036851E+03  0.21647036851E+03  0.00000000000E+00 0. -1.
         21   -1    0    0  502  503 -0.00000000000E+00 -0.00000000000E+00 -0.57809746633E+03  0.57809746633E+03  0.00000000000E+00 0. -1.
          6    1    1    2  501    0 -0.12416683704E+02 -0.14778135048E+03  0.12307304967E+03  0.25897775414E+03  0.17300000000E+03 0. -1.
         -6    1    1    2    0  503  0.12416683704E+02  0.14778135048E+03 -0.48470014749E+03  0.53559008071E+03  0.17300000000E+03 0. -1.
</event>
<event>
 4    1  0.5956049E+000  0.1000000E+03  0.7546771E-02  0.1280296E+00
         21   -1    0    0  503  502  0.00000000000E+00  0.00000000000E+00  0.52224617390E+03  0.52224617390E+03  0.00000000000E+00 0. -1.
         21   -1    0    0  501  503 -0.00000000000E+00 -0.00000000000E+00 -0.97605483909E+02  0.97605483909E+02  0.00000000000E+00 0.  1.
          6    1    1    2  501    0 -0.13597878600E+03  0.46543328399E+02  0.23938002240E+03  0.32846355473E+03  0.17300000000E+03 0.  1.
         -6    1    1    2    0  502  0.13597878600E+03 -0.46543328399E+02  0.18526066759E+03  0.29138810308E+03  0.17300000000E+03 0. -1.
</event>
<event>
 4    1  0.5956049E+000  0.1000000E+03  0.7546771E-02  0.1280296E+00
         21   -1    0    0  503  502  0.00000000000E+00  0.00000000000E+00  0.57660399981E+03  0.57660399981E+03  0.00000000000E+00 0. -1.
         21   -1    0    0  501  503 -0.00000000000E+00 -0.00000000000E+00 -0.11785372970E+04  0.11785372970E+04  0.00000000000E+00 0.  1.
          6    1    1    2  501    0  0.96661915667E+02 -0.10879651209E+02 -0.11527229037E+04  0.11696841392E+04  0.17300000000E+03 0.  1.
         -6    1    1    2    0  502 -0.96661915667E+02  0.10879651209E+02  0.55078960651E+03  0.58545715761E+03  0.17300000000E+03 0. -1.
</event>
<event>
 4    1  0.5956049E+000  0.1000000E+03  0.7546771E-02  0.1280296E+00
         21   -1    0    0  503  502  0.00000000000E+00  0.00000000000E+00  0.26604339976E+03  0.26604339976E+03  0.00000000000E+00 0.  1.
         21   -1    0    0  501  503 -0.00000000000E+00 -0.00000000000E+00 -0.44567447121E+03  0.44567447121E+03  0.00000000000E+00 0.  1.
          6    1    1    2  501    0  0.15689669915E+02 -0.14573308039E+03 -0.35762961212E+03  0.42345275525E+03  0.17300000000E+03 0.  1.
         -6    1    1    2    0  502 -0.15689669915E+02  0.14573308039E+03  0.17799854067E+03  0.28826511572E+03  0.17300000000E+03 0.  1.
</event>
<event>
 4    1  0.5956049E+000  0.1000000E+03  0.7546771E-02  0.1280296E+00
         21   -1    0    0  503  502  0.00000000000E+00  0.00000000000E+00  0.18693365794E+03  0.18693365794E+03  0.00000000000E+00 0.  1.
         21   -1    0    0  501  503 -0.00000000000E+00 -0.00000000000E+00 -0.36303143459E+03  0.36303143459E+03  0.00000000000E+00 0.  1.
          6    1    1    2  501    0 -0.26883698969E+02  0.25073312822E+02 -0.28994376440E+03  0.33962890160E+03  0.17300000000E+03 0.  1.
         -6    1    1    2    0  502  0.26883698969E+02 -0.25073312822E+02  0.11384598776E+03  0.21033619093E+03  0.17300000000E+03 0.  1.
</event>
<event>
 4    1  0.5956049E+000  0.1000000E+03  0.7546771E-02  0.1280296E+00
         21   -1    0    0  503  502  0.00000000000E+00  0.00000000000E+00  0.47382322480E+03  0.47382322480E+03  0.00000000000E+00 0.  1.
         21   -1    0    0  501  503 -0.00000000000E+00 -0.00000000000E+00 -0.90252170820E+02  0.90252170820E+02  0.00000000000E+00 0.  1.
          6    1    1    2  501    0 -0.13186320247E+02 -0.10019723758E+03  0.12195891036E+03  0.23455562512E+03  0.17300000000E+03 0.  1.
         -6    1    1    2    0  502  0.13186320247E+02  0.10019723758E+03  0.26161214363E+03  0.32951977050E+03  0.17300000000E+03 0.  1.
</event>
<event>
 4    1  0.5956049E+000  0.1000000E+03  0.7546771E-02  0.1280296E+00
         21   -1    0    0  503  502  0.00000000000E+00  0.00000000000E+00  0.10540079536E+03  0.10540079536E+03  0.00000000000E+00 0. -1.
         21   -1    0    0  501  503 -0.00000000000E+00 -0.00000000000E+00 -0.36211836839E+03  0.36211836839E+03  0.00000000000E+00 0. -1.
          6    1    1    2  501    0 -0.21026064984E+02 -0.64598227348E+02 -0.20038466929E+03  0.27330942551E+03  0.17300000000E+03 0. -1.
         -6    1    1    2    0  502  0.21026064984E+02  0.64598227348E+02 -0.56332903746E+02  0.19420973825E+03  0.17300000000E+03 0. -1.
</event>
<event>
 4    1  0.5956049E+000  0.1000000E+03  0.7546771E-02  0.1280296E+00
         21   -1    0    0  501  502  0.00000000000E+00  0.00000000000E+00  0.23001822030E+03  0.23001822030E+03  0.00000000000E+00 0.  1.
         21   -1    0    0  502  503 -0.00000000000E+00 -0.00000000000E+00 -0.38638777168E+03  0.38638777168E+03  0.00000000000E+00 0. -1.
          6    1    1    2  501    0 -0.20855923387E+03  0.11901419409E+03 -0.11525684524E+03  0.31760741931E+03  0.17300000000E+03 0.  1.
         -6    1    1    2    0  503  0.20855923387E+03 -0.11901419409E+03 -0.41112706140E+02  0.29879857267E+03  0.17300000000E+03 0. -1.
</event>
<event>
 4    1  0.5956049E+000  0.1000000E+03  0.7546771E-02  0.1280296E+00
         21   -1    0    0  501  502  0.00000000000E+00  0.00000000000E+00  0.36026725558E+02  0.36026725558E+02  0.00000000000E+00 0. -1.
         21   -1    0    0  502  503 -0.00000000000E+00 -0.00000000000E+00 -0.19641801193E+04  0.19641801193E+04  0.00000000000E+00 0.  1.
          6    1    1    2  501    0 -0.69061385557E+02  0.80740373356E+02 -0.31784612559E+03  0.37715201500E+03  0.17300000000E+03 0. -1.
         -6    1    1    2    0  503  0.69061385557E+02 -0.80740373356E+02 -0.16103072682E+04  0.16230548299E+04  0.17300000000E+03 0.  1.
</event>
<event>
 4    1  0.5956049E+000  0.1000000E+03  0.7546771E-02  0.1280296E+00
         21   -1    0    0  501  502  0.00000000000E+00  0.00000000000E+00  0.39464716742E+03  0.39464716742E+03  0.00000000000E+00 0. -1.
         21   -1    0    0  502  503 -0.00000000000E+00 -0.00000000000E+00 -0.19444209278E+03  0.19444209278E+03  0.00000000000E+00 0.  1.
          6    1    1    2  501    0 -0.59703756129E+02  0.10353411858E+03  0.29185806787E+03  0.35971375284E+03  0.17300000000E+03 0. -1.
         -6    1    1    2    0  503  0.59703756129E+02 -0.10353411858E+03 -0.91652993224E+02  0.22937550735E+03  0.17300000000E+03 0.  1.
</event>
<event>
 4    1  0.5956049E+000  0.1000000E+03  0.7546771E-02  0.1280296E+00
         21   -1    0    0  503  502  0.00000000000E+00  0.00000000000E+00  0.11552661702E+03  0.11552661702E+03  0.00000000000E+00 0. -1.
         21   -1    0    0  501  503 -0.00000000000E+00 -0.00000000000E+00 -0.17287198831E+04  0.17287198831E+04  0.00000000000E+00 0. -1.
          6    1    1    2  501    0  0.32815880861E+03  0.26387432948E+02 -0.13178881797E+04  0.13693585193E+04  0.17300000000E+03 0. -1.
         -6    1    1    2    0  502 -0.32815880861E+03 -0.26387432948E+02 -0.29530508646E+03  0.47488798087E+03  0.17300000000E+03 0. -1.
</event>
<event>
 4    1  0.5956049E+000  0.1000000E+03  0.7546771E-02  0.1280296E+00
         21   -1    0    0  503  502  0.00000000000E+00  0.00000000000E+00  0.31579811851E+03  0.31579811851E+03  0.00000000000E+00 0. -1.
         21   -1    0    0  501  503 -0.00000000000E+00 -0.00000000000E+00 -0.28747815923E+03  0.28747815923E+03  0.00000000000E+00 0. -1.
          6    1    1    2  501    0 -0.16095943763E+03 -0.59948588175E+02 -0.16310687035E+03  0.29331659507E+03  0.17300000000E+03 0. -1.
         -6    1    1    2    0  502  0.16095943763E+03  0.59948588175E+02  0.19142682963E+03  0.30995968268E+03  0.17300000000E+03 0. -1.
</event>
<event>
 4    1  0.5956049E+000  0.1000000E+03  0.7546771E-02  0.1280296E+00
         21   -1    0    0  503  502  0.00000000000E+00  0.00000000000E+00  0.28329544773E+03  0.28329544773E+03  0.00000000000E+00 0. -1.
         21   -1    0    0  501  503 -0.00000000000E+00 -0.00000000000E+00 -0.40434553771E+03  0.40434553771E+03  0.00000000000E+00 0. -1.
          6    1    1    2  501    0 -0.36576511638E+02  0.14080404536E+03 -0.31642731262E+03  0.38886869836E+03  0.17300000000E+03 0. -1.
         -6    1    1    2    0  502  0.36576511638E+02 -0.14080404536E+03  0.19537722264E+03  0.29877228707E+03  0.17300000000E+03 0. -1.
</event>
<event>
 4    1  0.5956049E+000  0.1000000E+03  0.7546771E-02  0.1280296E+00
         21   -1    0    0  501  502  0.00000000000E+00  0.00000000000E+00  0.22340785296E+03  0.22340785296E+03  0.00000000000E+00 0. -1.
         21   -1    0    0  502  503 -0.00000000000E+00 -0.00000000000E+00 -0.25393450539E+03  0.25393450539E+03  0.00000000000E+00 0. -1.
          6    1    1    2  501    0  0.30653824237E+02 -0.16081724865E+03 -0.14918760772E+02  0.23864914378E+03  0.17300000000E+03 0. -1.
         -6    1    1    2    0  503 -0.30653824237E+02  0.16081724865E+03 -0.15607891664E+02  0.23869321458E+03  0.17300000000E+03 0. -1.
</event>
<event>
 4    1  0.5956049E+000  0.1000000E+03  0.7546771E-02  0.1280296E+00
         21   -1    0    0  501  502  0.00000000000E+00  0.00000000000E+00  0.10468304478E+04  0.10468304478E+04  0.00000000000E+00 0. -1.
         21   -1    0    0  502  503 -0.00000000000E+00 -0.00000000000E+00 -0.65122943314E+02  0.65122943314E+02  0.00000000000E+00 0.  1.
          6    1    1    2  501    0 -0.14735590536E+03  0.74039428271E+02  0.71467165003E+03  0.75357824222E+03  0.17300000000E+03 0. -1.
         -6    1    1    2    0  503  0.14735590536E+03 -0.74039428271E+02  0.26703585444E+03  0.35837514889E+03  0.17300000000E+03 0.  1.
</event>
<event>
 4    1  0.5956049E+000  0.1000000E+03  0.7546771E-02  0.1280296E+00
         21   -1    0    0  501  502  0.00000000000E+00  0.00000000000E+00  0.46504282898E+03  0.46504282898E+03  0.00000000000E+00 0. -1.
         21   -1    0    0  502  503 -0.00000000000E+00 -0.00000000000E+00 -0.14027085323E+03  0.14027085323E+03  0.00000000000E+00 0.  1.
          6    1    1    2  501    0  0.99052452130E+02 -0.11895385922E+03  0.36186840835E+02  0.23494658190E+03  0.17300000000E+03 0. -1.
         -6    1    1    2    0  503 -0.99052452130E+02  0.11895385922E+03  0.28858513492E+03  0.37036710031E+03  0.17300000000E+03 0.  1.
</event>
<event>
 4    1  0.5956049E+000  0.1000000E+03  0.7546771E-02  0.1280296E+00
         21   -1    0    0  501  502  0.00000000000E+00  0.00000000000E+00  0.16727978134E+03  0.16727978134E+03  0.00000000000E+00 0. -1.
         21   -1    0    0  502  503 -0.00000000000E+00 -0.00000000000E+00 -0.49801501600E+03  0.49801501600E+03  0.00000000000E+00 0.  1.
          6    1    1    2  501    0  0.22930195095E+03  0.27625473666E+02 -0.15842467562E+03  0.32919588295E+03  0.17300000000E+03 0. -1.
         -6    1    1    2    0  503 -0.22930195095E+03 -0.27625473666E+02 -0.17231055904E+03  0.33609891440E+03  0.17300000000E+03 0.  1.
</event>
<event>
 4    1  0.5956049E+000  0.1000000E+03  0.7546771E-02  0.1280296E+00
         21   -1    0    0  503  502  0.00000000000E+00  0.00000000000E+00  0.48977022330E+03  0.48977022330E+03  0.00000000000E+00 0. -1.
         21   -1    0    0  501  503 -0.00000000000E+00 -0.00000000000E+00 -0.22645286295E+03  0.22645286295E+03  0.00000000000E+00 0.  1.
          6    1    1    2  501    0  0.10586118429E+03 -0.26396810365E+03  0.14214606593E+03  0.36196720037E+03  0.17300000000E+03 0.  1.
         -6    1    1    2    0  502 -0.10586118429E+03  0.26396810365E+03  0.12117129441E+03  0.35425588587E+03  0.17300000000E+03 0. -1.
</event>
<event>
 4    1  0.5956049E+000  0.1000000E+03  0.7546771E-02  0.1280296E+00
         21   -1    0    0  503  502  0.00000000000E+00  0.00000000000E+00  0.11521029890E+04  0.11521029890E+04  0.00000000000E+00 0. -1.
         21   -1    0    0  501  503 -0.00000000000E+00 -0.00000000000E+00 -0.34705443414E+02  0.34705443414E+02  0.00000000000E+00 0.  1.
          6    1    1    2  501    0 -0.29334980568E+02  0.95418756622E+02  0.53055108619E+03  0.56690275644E+03  0.17300000000E+03 0.  1.
         -6    1    1    2    0  502  0.29334980568E+02 -0.95418756622E+02  0.58684645936E+03  0.61990567594E+03  0.17300000000E+03 0. -1.
</event>
<event>
 4    1  0.5956049E+000  0.1000000E+03  0.7546771E-02  0.1280296E+00
         21   -1    0    0  501  502  0.00000000000E+00  0.00000000000E+00  0.28890020329E+03  0.28890020329E+03  0.00000000000E+00 0. -1.
         21   -1    0    0  502  503 -0.00000000000E+00 -0.00000000000E+00 -0.23979627157E+03  0.23979627157E+03  0.00000000000E+00 0.  1.
          6    1    1    2  501    0  0.91756135136E+02 -0.55311540602E+02  0.19221871203E+03  0.27992068182E+03  0.17300000000E+03 0. -1.
         -6    1    1    2    0  503 -0.91756135136E+02  0.55311540602E+02 -0.14311478031E+03  0.24877579304E+03  0.17300000000E+03 0.  1.
</event>
<event>
 4    1  0.5956049E+000  0.1000000E+03  0.7546771E-02  0.1280296E+00
         21   -1    0    0  501  502  0.00000000000E+00  0.00000000000E+00  0.38282404174E+02  0.38282404174E+02  0.00000000000E+00 0. -1.
         21   -1    0    0  502  503 -0.00000000000E+00 -0.00000000000E+00 -0.17875009762E+04  0.17875009762E+04  0.00000000000E+00 0.  1.
          6    1    1    2  501    0  0.32556523152E+02  0.13494864303E+02 -0.20099557574E+03  0.26752618569E+03  0.17300000000E+03 0. -1.
         -6    1    1    2    0  503 -0.32556523152E+02 -0.13494864303E+02 -0.15482229962E+04  0.15582571946E+04  0.17300000000E+03 0.  1.
</event>
<event>
 4    1  0.5956049E+000  0.1000000E+03  0.7546771E-02  0.1280296E+00
         21   -1    0    0  503  502  0.00000000000E+00  0.00000000000E+00  0.11530361591E+03  0.11530361591E+03  0.00000000000E+00 0. -1.
         21   -1    0    0  501  503 -0.00000000000E+00 -0.00000000000E+00 -0.51996784934E+03  0.51996784934E+03  0.00000000000E+00 0. -1.
          6    1    1    2  501    0  0.28237682300E+02 -0.15992185057E+03 -0.12392904503E+03  0.26769343136E+03  0.17300000000E+03 0. -1.
         -6    1    1    2    0  502 -0.28237682300E+02  0.15992185057E+03 -0.28073518840E+03  0.36757803389E+03  0.17300000000E+03 0. -1.
</event>
<event>
 4    1  0.5956049E+000  0.1000000E+03  0.7546771E-02  0.1280296E+00
         21   -1    0    0  503  502  0.00000000000E+00  0.00000000000E+00  0.36205779898E+03  0.36205779898E+03  0.00000000000E+00 0. -1.
         21   -1    0    0  501  503 -0.00000000000E+00 -0.00000000000E+00 -0.11854623434E+03  0.11854623434E+03  0.00000000000E+00 0. -1.
          6    1    1    2  501    0 -0.21098254426E+02 -0.53979966210E+02  0.79153083807E+01  0.18262153542E+03  0.17300000000E+03 0. -1.
         -6    1    1    2    0  502  0.21098254426E+02  0.53979966210E+02  0.23559625626E+03  0.29798249790E+03  0.17300000000E+03 0. -1.
</event>
<event>
 4    1  0.5956049E+000  0.1000000E+03  0.7546771E-02  0.1280296E+00
         21   -1    0    0  503  502  0.00000000000E+00  0.00000000000E+00  0.45186938736E+03  0.45186938736E+03  0.00000000000E+00 0. -1.
         21   -1    0    0  501  503 -0.00000000000E+00 -0.00000000000E+00 -0.19645616696E+03  0.19645616696E+03  0.00000000000E+00 0. -1.
          6    1    1    2  501    0 -0.75918817985E+02  0.84724472749E+02 -0.10539103138E+03  0.23233203116E+03  0.17300000000E+03 0. -1.
         -6    1    1    2    0  502  0.75918817985E+02 -0.84724472749E+02  0.36080425178E+03  0.41599352316E+03  0.17300000000E+03 0. -1.
</event>
<event>
 4    1  0.5956049E+000  0.1000000E+03  0.7546771E-02  0.1280296E+00
         21   -1    0    0  501  502  0.00000000000E+00  0.00000000000E+00  0.59941578309E+02  0.59941578309E+02  0.00000000000E+00 0.  1.
         21   -1    0    0  502  503 -0.00000000000E+00 -0.00000000000E+00 -0.56999565746E+03  0.56999565746E+03  0.00000000000E+00 0. -1.
          6    1    1    2  501    0 -0.49976423715E+02 -0.32699355626E+02 -0.21090226104E+03  0.27924121203E+03  0.17300000000E+03 0.  1.
         -6    1    1    2    0  503  0.49976423715E+02  0.32699355626E+02 -0.29915181811E+03  0.35069602374E+03  0.17300000000E+03 0.  1.
</event>
<event>
 4    1  0.5956049E+000  0.1000000E+03  0.7546771E-02  0.1280296E+00
         21   -1    0    0  501  502  0.00000000000E+00  0.00000000000E+00  0.19134026052E+03  0.19134026052E+03  0.00000000000E+00 0. -1.
         21   -1    0    0  502  503 -0.00000000000E+00 -0.00000000000E+00 -0.10066812985E+04  0.10066812985E+04  0.00000000000E+00 0. -1.
          6    1    1    2  501    0 -0.31922915170E+03 -0.24016596685E+03 -0.33164547531E+03  0.54727019307E+03  0.17300000000E+03 0. -1.
         -6    1    1    2    0  503  0.31922915170E+03  0.24016596685E+03 -0.48369556266E+03  0.65075136594E+03  0.17300000000E+03 0. -1.
</event>
<event>
 4    1  0.5956049E+000  0.1000000E+03  0.7546771E-02  0.1280296E+00
         21   -1    0    0  501  502  0.00000000000E+00  0.00000000000E+00  0.38902628964E+03  0.38902628964E+03  0.00000000000E+00 0. -1.
         21   -1    0    0  502  503 -0.00000000000E+00 -0.00000000000E+00 -0.15365437449E+03  0.15365437449E+03  0.00000000000E+00 0. -1.
          6    1    1    2  501    0 -0.11504580005E+03 -0.67169635517E+02  0.23976256392E+03  0.32428750069E+03  0.17300000000E+03 0. -1.
         -6    1    1    2    0  503  0.11504580005E+03  0.67169635517E+02 -0.43906487695E+01  0.21839316345E+03  0.17300000000E+03 0. -1.
</event>
<event>
 4    1  0.5956049E+000  0.1000000E+03  0.7546771E-02  0.1280296E+00
         21   -1    0    0  501  502  0.00000000000E+00  0.00000000000E+00  0.20776003130E+03  0.20776003130E+03  0.00000000000E+00 0. -1.
         21   -1    0    0  502  503 -0.00000000000E+00 -0.00000000000E+00 -0.15249273554E+03  0.15249273554E+03  0.00000000000E+00 0. -1.
          6    1    1    2  501    0 -0.31903598494E+02  0.21386036622E+02  0.10769884854E+02  0.17753927053E+03  0.17300000000E+03 0. -1.
         -6    1    1    2    0  503  0.31903598494E+02 -0.21386036622E+02  0.44497410909E+02  0.18271349632E+03  0.17300000000E+03 0. -1.
</event>
<event>
 4    1  0.5956049E+000  0.1000000E+03  0.7546771E-02  0.1280296E+00
         21   -1    0    0  501  502  0.00000000000E+00  0.00000000000E+00  0.51864793854E+02  0.51864793854E+02  0.00000000000E+00 0. -1.
         21   -1    0    0  502  503 -0.00000000000E+00 -0.00000000000E+00 -0.10621239006E+04  0.10621239006E+04  0.00000000000E+00 0. -1.
          6    1    1    2  501    0 -0.35231080842E+02  0.80707945910E+02 -0.19206285218E+03  0.27307900098E+03  0.17300000000E+03 0. -1.
         -6    1    1    2    0  503  0.35231080842E+02 -0.80707945910E+02 -0.81819625458E+03  0.84090969348E+03  0.17300000000E+03 0. -1.
</event>
<event>
 4    1  0.5956049E+000  0.1000000E+03  0.7546771E-02  0.1280296E+00
         21   -1    0    0  501  502  0.00000000000E+00  0.00000000000E+00  0.31610369345E+03  0.31610369345E+03  0.00000000000E+00 0.  1.
         21   -1    0    0  502  503 -0.00000000000E+00 -0.00000000000E+00 -0.55517873612E+03  0.55517873612E+03  0.00000000000E+00 0. -1.
          6    1    1    2  501    0  0.83285673175E+02 -0.83956082732E+02  0.25768062391E+03  0.33213465812E+03  0.17300000000E+03 0. -1.
         -6    1    1    2    0  503 -0.83285673175E+02  0.83956082732E+02 -0.49675566658E+03  0.53914777145E+03  0.17300000000E+03 0.  1.
</event>
<event>
 4    1  0.5956049E+000  0.1000000E+03  0.7546771E-02  0.1280296E+00
         21   -1    0    0  501  502  0.00000000000E+00  0.00000000000E+00  0.69047831001E+02  0.69047831001E+02  0.00000000000E+00 0.  1.
         21   -1    0    0  502  503 -0.00000000000E+00 -0.00000000000E+00 -0.55267052154E+03  0.55267052154E+03  0.00000000000E+00 0.  1.
          6    1    1    2  501    0  0.44349649510E+02  0.56150617370E+02 -0.15304066243E+03  0.24180617775E+03  0.17300000000E+03 0.  1.
         -6    1    1    2    0  503 -0.44349649510E+02 -0.56150617370E+02 -0.33058202811E+03  0.37991217479E+03  0.17300000000E+03 0.  1.
</event>
<event>
 4    1  0.5956049E+000  0.1000000E+03  0.7546771E-02  0.1280296E+00
         21   -1    0    0  501  502  0.00000000000E+00  0.00000000000E+00  0.10052520007E+04  0.10052520007E+04  0.00000000000E+00 0.  1.
         21   -1    0    0  502  503 -0.00000000000E+00 -0.00000000000E+00 -0.28741858046E+03  0.28741858046E+03  0.00000000000E+00 0.  1.
          6    1    1    2  501    0  0.33477219715E+02  0.29231433577E+03  0.85822673077E+03  0.92360733894E+03  0.17300000000E+03 0.  1.
         -6    1    1    2    0  503 -0.33477219715E+02 -0.29231433577E+03 -0.14039331051E+03  0.36906324224E+03  0.17300000000E+03 0.  1.
</event>
<event>
 4    1  0.5956049E+000  0.1000000E+03  0.7546771E-02  0.1280296E+00
         21   -1    0    0  501  502  0.00000000000E+00  0.00000000000E+00  0.31132481000E+03  0.31132481000E+03  0.00000000000E+00 0. -1.
         21   -1    0    0  502  503 -0.00000000000E+00 -0.00000000000E+00 -0.19385320938E+03  0.19385320938E+03  0.00000000000E+00 0.  1.
          6    1    1    2  501    0 -0.74670534338E+02 -0.32867201736E+01  0.22077136947E+03  0.29026796035E+03  0.17300000000E+03 0. -1.
         -6    1    1    2    0  503  0.74670534338E+02  0.32867201736E+01 -0.10329976884E+03  0.21491005903E+03  0.17300000000E+03 0.  1.
</event>
<event>
 4    1  0.5956049E+000  0.1000000E+03  0.7546771E-02  0.1280296E+00
         21   -1    0    0  501  502  0.00000000000E+00  0.00000000000E+00  0.31354425565E+03  0.31354425565E+03  0.00000000000E+00 0. -1.
         21   -1    0    0  502  503 -0.00000000000E+00 -0.00000000000E+00 -0.33845435822E+03  0.33845435822E+03  0.00000000000E+00 0.  1.
          6    1    1    2  501    0  0.18970033483E+03 -0.16502782193E+03  0.10151855089E+03  0.32164485884E+03  0.17300000000E+03 0. -1.
         -6    1    1    2    0  503 -0.18970033483E+03  0.16502782193E+03 -0.12642865346E+03  0.33035375502E+03  0.17300000000E+03 0.  1.
</event>
<event>
 4    1  0.5956049E+000  0.1000000E+03  0.7546771E-02  0.1280296E+00
         21   -1    0    0  503  502  0.00000000000E+00  0.00000000000E+00  0.18129326087E+04  0.18129326087E+04  0.00000000000E+00 0.  1.
         21   -1    0    0  501  503 -0.00000000000E+00 -0.00000000000E+00 -0.11801139734E+03  0.11801139734E+03  0.00000000000E+00 0.  1.
          6    1    1    2  501    0 -0.93494530356E+02 -0.37612567199E+02 -0.22879379213E+02  0.20151525603E+03  0.17300000000E+03 0.  1.
         -6    1    1    2    0  502  0.93494530356E+02  0.37612567199E+02  0.17178005906E+04  0.17294287500E+04  0.17300000000E+03 0.  1.
</event>
<event>
 4    1  0.5956049E+000  0.1000000E+03  0.7546771E-02  0.1280296E+00
         21   -1    0    0  501  502  0.00000000000E+00  0.00000000000E+00  0.18145171847E+04  0.18145171847E+04  0.00000000000E+00 0. -1.
         21   -1    0    0  502  503 -0.00000000000E+00 -0.00000000000E+00 -0.26164747932E+02  0.26164747932E+02  0.00000000000E+00 0.  1.
          6    1    1    2  501    0  0.93452682386E+02  0.17488524784E+02  0.12837834896E+04  0.12988719339E+04  0.17300000000E+03 0. -1.
         -6    1    1    2    0  503 -0.93452682386E+02 -0.17488524784E+02  0.50456894715E+03  0.54180999877E+03  0.17300000000E+03 0. -1.
</event>
<event>
 4    1  0.5956049E+000  0.1000000E+03  0.7546771E-02  0.1280296E+00
         21   -1    0    0  503  502  0.00000000000E+00  0.00000000000E+00  0.16299898768E+04  0.16299898768E+04  0.00000000000E+00 0. -1.
         21   -1    0    0  501  503 -0.00000000000E+00 -0.00000000000E+00 -0.30242738786E+02  0.30242738786E+02  0.00000000000E+00 0.  1.
          6    1    1    2  501    0  0.10420549694E+03 -0.16730927987E+02  0.46073764331E+03  0.50333575822E+03  0.17300000000E+03 0.  1.
         -6    1    1    2    0  502 -0.10420549694E+03  0.16730927987E+02  0.11390094947E+04  0.11568968573E+04  0.17300000000E+03 0. -1.
</event>
<event>
 4    1  0.5956049E+000  0.1000000E+03  0.7546771E-02  0.1280296E+00
         21   -1    0    0  503  502  0.00000000000E+00  0.00000000000E+00  0.18599732039E+04  0.18599732039E+04  0.00000000000E+00 0. -1.
         21   -1    0    0  501  503 -0.00000000000E+00 -0.00000000000E+00 -0.11819157742E+03  0.11819157742E+03  0.00000000000E+00 0.  1.
          6    1    1    2  501    0 -0.17207594832E+03 -0.19584100020E+03  0.13424358657E+03  0.34046170105E+03  0.17300000000E+03 0.  1.
         -6    1    1    2    0  502  0.17207594832E+03  0.19584100020E+03  0.16075380399E+04  0.16377030803E+04  0.17300000000E+03 0. -1.
</event>
<event>
 4    1  0.5956049E+000  0.1000000E+03  0.7546771E-02  0.1280296E+00
         21   -1    0    0  503  502  0.00000000000E+00  0.00000000000E+00  0.64525951300E+02  0.64525951300E+02  0.00000000000E+00 0.  1.
         21   -1    0    0  501  503 -0.00000000000E+00 -0.00000000000E+00 -0.11374576805E+04  0.11374576805E+04  0.00000000000E+00 0.  1.
          6    1    1    2  501    0 -0.90743754015E+02 -0.73167912692E+01 -0.95254203659E+03  0.97239564777E+03  0.17300000000E+03 0. -1.
         -6    1    1    2    0  502  0.90743754015E+02  0.73167912692E+01 -0.12038969262E+03  0.22958798404E+03  0.17300000000E+03 0. -1.
</event>
<event>
 4    1  0.5956049E+000  0.1000000E+03  0.7546771E-02  0.1280296E+00
         21   -1    0    0  503  502  0.00000000000E+00  0.00000000000E+00  0.30972339758E+03  0.30972339758E+03  0.00000000000E+00 0.  1.
         21   -1    0    0  501  503 -0.00000000000E+00 -0.00000000000E+00 -0.13580642793E+04  0.13580642793E+04  0.00000000000E+00 0.  1.
          6    1    1    2  501    0 -0.96265084960E+02 -0.83994833327E+02 -0.13108827784E+04  0.13284068493E+04  0.17300000000E+03 0. -1.
         -6    1    1    2    0  502  0.96265084960E+02  0.83994833327E+02  0.26254189667E+03  0.33938082756E+03  0.17300000000E+03 0. -1.
</event>
<event>
 4    1  0.5956049E+000  0.1000000E+03  0.7546771E-02  0.1280296E+00
         21   -1    0    0  503  502  0.00000000000E+00  0.00000000000E+00  0.33671352822E+03  0.33671352822E+03  0.00000000000E+00 0.  1.
         21   -1    0    0  501  503 -0.00000000000E+00 -0.00000000000E+00 -0.10324711511E+03  0.10324711511E+03  0.00000000000E+00 0.  1.
          6    1    1    2  501    0  0.35200036906E+02  0.96292221905E+01  0.46895066785E+02  0.18292050680E+03  0.17300000000E+03 0.  1.
         -6    1    1    2    0  502 -0.35200036906E+02 -0.96292221905E+01  0.18657134633E+03  0.25704013653E+03  0.17300000000E+03 0.  1.
</event>
<event>
 4    1  0.5956049E+000  0.1000000E+03  0.7546771E-02  0.1280296E+00
         21   -1    0    0  503  502  0.00000000000E+00  0.00000000000E+00  0.19108513036E+04  0.19108513036E+04  0.00000000000E+00 0.  1.
         21   -1    0    0  501  503 -0.00000000000E+00 -0.00000000000E+00 -0.10865156143E+03  0.10865156143E+03  0.00000000000E+00 0.  1.
          6    1    1    2  501    0 -0.18902515966E+03 -0.97009026860E+02  0.94296822130E+02  0.28976223518E+03  0.17300000000E+03 0.  1.
         -6    1    1    2    0  502  0.18902515966E+03  0.97009026860E+02  0.17079029200E+04  0.17297406298E+04  0.17300000000E+03 0.  1.
</event>
<event>
 4    1  0.5956049E+000  0.1000000E+03  0.7546771E-02  0.1280296E+00
         21   -1    0    0  503  502  0.00000000000E+00  0.00000000000E+00  0.34754069153E+03  0.34754069153E+03  0.00000000000E+00 0.  1.
         21   -1    0    0  501  503 -0.00000000000E+00 -0.00000000000E+00 -0.21767823935E+03  0.21767823935E+03  0.00000000000E+00 0.  1.
          6    1    1    2  501    0  0.14898526397E+03 -0.12563101403E+03 -0.25483463324E+02  0.26183614622E+03  0.17300000000E+03 0.  1.
         -6    1    1    2    0  502 -0.14898526397E+03  0.12563101403E+03  0.15534591550E+03  0.30338278466E+03  0.17300000000E+03 0.  1.
</event>
<event>
 4    1  0.5956049E+000  0.1000000E+03  0.7546771E-02  0.1280296E+00
         21   -1    0    0  503  502  0.00000000000E+00  0.00000000000E+00  0.16822341702E+03  0.16822341702E+03  0.00000000000E+00 0.  1.
         21   -1    0    0  501  503 -0.00000000000E+00 -0.00000000000E+00 -0.23605322220E+03  0.23605322220E+03  0.00000000000E+00 0.  1.
          6    1    1    2  501    0  0.88869724566E+01  0.38474518212E+02 -0.12589072651E+03  0.21757008492E+03  0.17300000000E+03 0.  1.
         -6    1    1    2    0  502 -0.88869724566E+01 -0.38474518212E+02  0.58060921326E+02  0.18670655429E+03  0.17300000000E+03 0.  1.
</event>
<event>
 4    1  0.5956049E+000  0.1000000E+03  0.7546771E-02  0.1280296E+00
         21   -1    0    0  501  502  0.00000000000E+00  0.00000000000E+00  0.52146263715E+02  0.52146263715E+02  0.00000000000E+00 0.  1.
         21   -1    0    0  502  503 -0.00000000000E+00 -0.00000000000E+00 -0.17248307138E+04  0.17248307138E+04  0.00000000000E+00 0.  1.
          6    1    1    2  501    0 -0.12258756006E+03 -0.68672423510E+02 -0.24182772536E+03  0.32886663009E+03  0.17300000000E+03 0.  1.
         -6    1    1    2    0  503  0.12258756006E+03  0.68672423510E+02 -0.14308567247E+04  0.14481103474E+04  0.17300000000E+03 0.  1.
</event>
<event>
 4    1  0.5956049E+000  0.1000000E+03  0.7546771E-02  0.1280296E+00
         21   -1    0    0  501  502  0.00000000000E+00  0.00000000000E+00  0.39692185530E+03  0.39692185530E+03  0.00000000000E+00 0.  1.
         21   -1    0    0  502  503 -0.00000000000E+00 -0.00000000000E+00 -0.11640174409E+03  0.11640174409E+03  0.00000000000E+00 0.  1.
          6    1    1    2  501    0 -0.56096216793E+02 -0.15995639004E+02  0.27572624551E+03  0.33069110733E+03  0.17300000000E+03 0.  1.
         -6    1    1    2    0  503  0.56096216793E+02  0.15995639004E+02  0.47938657019E+01  0.18263249205E+03  0.17300000000E+03 0.  1.
</event>
<event>
 4    1  0.5956049E+000  0.1000000E+03  0.7546771E-02  0.1280296E+00
         21   -1    0    0  503  502  0.00000000000E+00  0.00000000000E+00  0.45916950382E+03  0.45916950382E+03  0.00000000000E+00 0.  1.
         21   -1    0    0  501  503 -0.00000000000E+00 -0.00000000000E+00 -0.23646779817E+03  0.23646779817E+03  0.00000000000E+00 0.  1.
          6    1    1    2  501    0  0.20822256174E+01  0.11065384342E+03 -0.16064875948E+03  0.26074054661E+03  0.17300000000E+03 0.  1.
         -6    1    1    2    0  502 -0.20822256174E+01 -0.11065384342E+03  0.38335046513E+03  0.43489675538E+03  0.17300000000E+03 0.  1.
</event>
<event>
 4    1  0.5956049E+000  0.1000000E+03  0.7546771E-02  0.1280296E+00
         21   -1    0    0  503  502  0.00000000000E+00  0.00000000000E+00  0.17843719767E+03  0.17843719767E+03  0.00000000000E+00 0.  1.
         21   -1    0    0  501  503 -0.00000000000E+00 -0.00000000000E+00 -0.45474422564E+03  0.45474422564E+03  0.00000000000E+00 0.  1.
          6    1    1    2  501    0  0.19571374294E+02  0.59672137676E+01 -0.38864045511E+03  0.42589793341E+03  0.17300000000E+03 0.  1.
         -6    1    1    2    0  502 -0.19571374294E+02 -0.59672137676E+01  0.11233342714E+03  0.20728348990E+03  0.17300000000E+03 0.  1.
</event>
<event>
 4    1  0.5956049E+000  0.1000000E+03  0.7546771E-02  0.1280296E+00
         21   -1    0    0  503  502  0.00000000000E+00  0.00000000000E+00  0.57088769014E+02  0.57088769014E+02  0.00000000000E+00 0.  1.
         21   -1    0    0  501  503 -0.00000000000E+00 -0.00000000000E+00 -0.82532833827E+03  0.82532833827E+03  0.00000000000E+00 0.  1.
          6    1    1    2  501    0  0.77894144132E+02  0.27739274090E+02 -0.59091793515E+03  0.62124871919E+03  0.17300000000E+03 0.  1.
         -6    1    1    2    0  502 -0.77894144132E+02 -0.27739274090E+02 -0.17732163411E+03  0.26116838810E+03  0.17300000000E+03 0.  1.
</event>
<event>
 4    1  0.5956049E+000  0.1000000E+03  0.7546771E-02  0.1280296E+00
         21   -1    0    0  503  502  0.00000000000E+00  0.00000000000E+00  0.32478969343E+03  0.32478969343E+03  0.00000000000E+00 0.  1.
         21   -1    0    0  501  503 -0.00000000000E+00 -0.00000000000E+00 -0.18739047126E+03  0.18739047126E+03  0.00000000000E+00 0.  1.
          6    1    1    2  501    0  0.14916630603E+03  0.70687976258E+02  0.56761225864E+01  0.23918318337E+03  0.17300000000E+03 0.  1.
         -6    1    1    2    0  502 -0.14916630603E+03 -0.70687976258E+02  0.13172309959E+03  0.27299698131E+03  0.17300000000E+03 0.  1.
</event>
<event>
 4    1  0.5956049E+000  0.1000000E+03  0.7546771E-02  0.1280296E+00
         21   -1    0    0  503  502  0.00000000000E+00  0.00000000000E+00  0.14139391276E+03  0.14139391276E+03  0.00000000000E+00 0.  1.
         21   -1    0    0  501  503 -0.00000000000E+00 -0.00000000000E+00 -0.13730831598E+04  0.13730831598E+04  0.00000000000E+00 0.  1.
          6    1    1    2  501    0 -0.51403708105E+02  0.11170873911E+03 -0.12794365253E+04  0.12969225134E+04  0.17300000000E+03 0.  1.
         -6    1    1    2    0  502  0.51403708105E+02 -0.11170873911E+03  0.47747278275E+02  0.21755455910E+03  0.17300000000E+03 0.  1.
</event>
<event>
 4    1  0.5956049E+000  0.1000000E+03  0.7546771E-02  0.1280296E+00
         21   -1    0    0  503  502  0.00000000000E+00  0.00000000000E+00  0.34606785508E+03  0.34606785508E+03  0.00000000000E+00 0.  1.
         21   -1    0    0  501  503 -0.00000000000E+00 -0.00000000000E+00 -0.12261408298E+03  0.12261408298E+03  0.00000000000E+00 0.  1.
          6    1    1    2  501    0 -0.73597205855E+02 -0.40425250583E+00  0.15956530736E+02  0.18868047860E+03  0.17300000000E+03 0. -1.
         -6    1    1    2    0  502  0.73597205855E+02  0.40425250583E+00  0.20749724137E+03  0.28000145947E+03  0.17300000000E+03 0. -1.
</event>
<event>
 4    1  0.5956049E+000  0.1000000E+03  0.7546771E-02  0.1280296E+00
         21   -1    0    0  503  502  0.00000000000E+00  0.00000000000E+00  0.17911809239E+04  0.17911809239E+04  0.00000000000E+00 0.  1.
         21   -1    0    0  501  503 -0.00000000000E+00 -0.00000000000E+00 -0.65164764506E+02  0.65164764506E+02  0.00000000000E+00 0.  1.
          6    1    1    2  501    0  0.86784322594E+02 -0.46633545884E+02  0.10871108529E+03  0.22683321255E+03  0.17300000000E+03 0. -1.
         -6    1    1    2    0  502 -0.86784322594E+02  0.46633545884E+02  0.16173050741E+04  0.16295124759E+04  0.17300000000E+03 0. -1.
</event>
<event>
 4    1  0.5956049E+000  0.1000000E+03  0.7546771E-02  0.1280296E+00
         21   -1    0    0  503  502  0.00000000000E+00  0.00000000000E+00  0.95540174114E+02  0.95540174114E+02  0.00000000000E+00 0.  1.
         21   -1    0    0  501  503 -0.00000000000E+00 -0.00000000000E+00 -0.51845043063E+03  0.51845043063E+03  0.00000000000E+00 0.  1.
          6    1    1    2  501    0  0.67033664479E+02  0.11544265973E+03 -0.15320454335E+03  0.26687291350E+03  0.17300000000E+03 0. -1.
         -6    1    1    2    0  502 -0.67033664479E+02 -0.11544265973E+03 -0.26970571317E+03  0.34711769124E+03  0.17300000000E+03 0. -1.
</event>
<event>
 4    1  0.5956049E+000  0.1000000E+03  0.7546771E-02  0.1280296E+00
         21   -1    0    0  501  502  0.00000000000E+00  0.00000000000E+00  0.48517894616E+03  0.48517894616E+03  0.00000000000E+00 0. -1.
         21   -1    0    0  502  503 -0.00000000000E+00 -0.00000000000E+00 -0.20091336350E+03  0.20091336350E+03  0.00000000000E+00 0. -1.
          6    1    1    2  501    0 -0.25697786198E+02 -0.15587857526E+03  0.36888852037E+03  0.43699684999E+03  0.17300000000E+03 0. -1.
         -6    1    1    2    0  503  0.25697786198E+02  0.15587857526E+03 -0.84622937705E+02  0.24909545967E+03  0.17300000000E+03 0. -1.
</event>
<event>
 4    1  0.5956049E+000  0.1000000E+03  0.7546771E-02  0.1280296E+00
         21   -1    0    0  501  502  0.00000000000E+00  0.00000000000E+00  0.16891955744E+03  0.16891955744E+03  0.00000000000E+00 0. -1.
         21   -1    0    0  502  503 -0.00000000000E+00 -0.00000000000E+00 -0.54939645178E+03  0.54939645178E+03  0.00000000000E+00 0. -1.
          6    1    1    2  501    0 -0.14068642305E+03 -0.54887703827E+02  0.45760186237E+02  0.23415448812E+03  0.17300000000E+03 0. -1.
         -6    1    1    2    0  503  0.14068642305E+03  0.54887703827E+02 -0.42623708057E+03  0.48416152110E+03  0.17300000000E+03 0. -1.
</event>
<event>
 4    1  0.5956049E+000  0.1000000E+03  0.7546771E-02  0.1280296E+00
         21   -1    0    0  501  502  0.00000000000E+00  0.00000000000E+00  0.32786221578E+03  0.32786221578E+03  0.00000000000E+00 0. -1.
         21   -1    0    0  502  503 -0.00000000000E+00 -0.00000000000E+00 -0.11822111821E+03  0.11822111821E+03  0.00000000000E+00 0. -1.
          6    1    1    2  501    0  0.85053172342E+02 -0.56952627312E+01  0.14963484723E+03  0.24410257198E+03  0.17300000000E+03 0. -1.
         -6    1    1    2    0  503 -0.85053172342E+02  0.56952627312E+01  0.60006250336E+02  0.20198076201E+03  0.17300000000E+03 0. -1.
</event>
<event>
 4    1  0.5956049E+000  0.1000000E+03  0.7546771E-02  0.1280296E+00
         21   -1    0    0  503  502  0.00000000000E+00  0.00000000000E+00  0.58152724360E+02  0.58152724360E+02  0.00000000000E+00 0. -1.
         21   -1    0    0  501  503 -0.00000000000E+00 -0.00000000000E+00 -0.94821861137E+03  0.94821861137E+03  0.00000000000E+00 0. -1.
          6    1    1    2  501    0 -0.40257969442E+02 -0.15825909657E+01 -0.11591891238E+03  0.21210705539E+03  0.17300000000E+03 0. -1.
         -6    1    1    2    0  502  0.40257969442E+02  0.15825909657E+01 -0.77414697463E+03  0.79426428034E+03  0.17300000000E+03 0. -1.
</event>
<event>
 4    1  0.5956049E+000  0.1000000E+03  0.7546771E-02  0.1280296E+00
         21   -1    0    0  503  502  0.00000000000E+00  0.00000000000E+00  0.21768417049E+03  0.21768417049E+03  0.00000000000E+00 0. -1.
         21   -1    0    0  501  503 -0.00000000000E+00 -0.00000000000E+00 -0.55573750773E+03  0.55573750773E+03  0.00000000000E+00 0. -1.
          6    1    1    2  501    0 -0.24044603815E+02  0.21569036744E+03 -0.40210218683E+03  0.48858535204E+03  0.17300000000E+03 0. -1.
         -6    1    1    2    0  502  0.24044603815E+02 -0.21569036744E+03  0.64048849580E+02  0.28483632618E+03  0.17300000000E+03 0. -1.
</event>
<event>
 4    1  0.5956049E+000  0.1000000E+03  0.7546771E-02  0.1280296E+00
         21   -1    0    0  501  502  0.00000000000E+00  0.00000000000E+00  0.26987852566E+03  0.26987852566E+03  0.00000000000E+00 0.  1.
         21   -1    0    0  502  503 -0.00000000000E+00 -0.00000000000E+00 -0.10233504059E+04  0.10233504059E+04  0.00000000000E+00 0.  1.
          6    1    1    2  501    0  0.36867457947E+03 -0.13892902364E+03 -0.74796258862E+03  0.86290164743E+03  0.17300000000E+03 0.  1.
         -6    1    1    2    0  503 -0.36867457947E+03  0.13892902364E+03 -0.55092916080E+01  0.43032728412E+03  0.17300000000E+03 0.  1.
</event>
<event>
 4    1  0.5956049E+000  0.1000000E+03  0.7546771E-02  0.1280296E+00
         21   -1    0    0  503  502  0.00000000000E+00  0.00000000000E+00  0.47410628818E+03  0.47410628818E+03  0.00000000000E+00 0. -1.
         21   -1    0    0  501  503 -0.00000000000E+00 -0.00000000000E+00 -0.31318000861E+03  0.31318000861E+03  0.00000000000E+00 0. -1.
          6    1    1    2  501    0 -0.14261060890E+03  0.19588131447E+03 -0.16944439500E+03  0.34256047368E+03  0.17300000000E+03 0. -1.
         -6    1    1    2    0  502  0.14261060890E+03 -0.19588131447E+03  0.33037067457E+03  0.44472582312E+03  0.17300000000E+03 0. -1.
</event>
<event>
 4    1  0.5956049E+000  0.1000000E+03  0.7546771E-02  0.1280296E+00
         21   -1    0    0  501  502  0.00000000000E+00  0.00000000000E+00  0.17552853857E+03  0.17552853857E+03  0.00000000000E+00 0.  1.
         21   -1    0    0  502  503 -0.00000000000E+00 -0.00000000000E+00 -0.82376072512E+03  0.82376072512E+03  0.00000000000E+00 0.  1.
          6    1    1    2  501    0 -0.31089378458E+02 -0.94598309555E+02  0.10115123766E+03  0.22377659061E+03  0.17300000000E+03 0. -1.
         -6    1    1    2    0  503  0.31089378458E+02  0.94598309555E+02 -0.74938342422E+03  0.77551267309E+03  0.17300000000E+03 0. -1.
</event>
<event>
 4    1  0.5956049E+000  0.1000000E+03  0.7546771E-02  0.1280296E+00
         21   -1    0    0  503  502  0.00000000000E+00  0.00000000000E+00  0.65533972472E+03  0.65533972472E+03  0.00000000000E+00 0.  1.
         21   -1    0    0  501  503 -0.00000000000E+00 -0.00000000000E+00 -0.50546158550E+03  0.50546158550E+03  0.00000000000E+00 0. -1.
          6    1    1    2  501    0  0.45189658329E+02 -0.45786797142E+03 -0.22697897496E+03  0.54141817438E+03  0.17300000000E+03 0.  1.
         -6    1    1    2    0  502 -0.45189658329E+02  0.45786797142E+03  0.37685711417E+03  0.61938313585E+03  0.17300000000E+03 0.  1.
</event>
<event>
 4    1  0.5956049E+000  0.1000000E+03  0.7546771E-02  0.1280296E+00
         21   -1    0    0  503  502  0.00000000000E+00  0.00000000000E+00  0.41865859542E+02  0.41865859542E+02  0.00000000000E+00 0.  1.
         21   -1    0    0  501  503 -0.00000000000E+00 -0.00000000000E+00 -0.14661512965E+04  0.14661512965E+04  0.00000000000E+00 0. -1.
          6    1    1    2  501    0  0.11530098815E+03  0.56889231179E+02 -0.10839091207E+04  0.11051328809E+04  0.17300000000E+03 0.  1.
         -6    1    1    2    0  502 -0.11530098815E+03 -0.56889231179E+02 -0.34037631625E+03  0.40288427514E+03  0.17300000000E+03 0.  1.
</event>
<event>
 4    1  0.5956049E+000  0.1000000E+03  0.7546771E-02  0.1280296E+00
         21   -1    0    0  503  502  0.00000000000E+00  0.00000000000E+00  0.11127769755E+03  0.11127769755E+03  0.00000000000E+00 0. -1.
         21   -1    0    0  501  503 -0.00000000000E+00 -0.00000000000E+00 -0.45042456839E+03  0.45042456839E+03  0.00000000000E+00 0. -1.
          6    1    1    2  501    0  0.10590851853E+03  0.92134304925E+02 -0.14186508538E+03  0.26412127307E+03  0.17300000000E+03 0. -1.
         -6    1    1    2    0  502 -0.10590851853E+03 -0.92134304925E+02 -0.19728178546E+03  0.29758099287E+03  0.17300000000E+03 0. -1.
</event>
<event>
 4    1  0.5956049E+000  0.1000000E+03  0.7546771E-02  0.1280296E+00
         21   -1    0    0  503  502  0.00000000000E+00  0.00000000000E+00  0.44477479082E+03  0.44477479082E+03  0.00000000000E+00 0.  1.
         21   -1    0    0  501  503 -0.00000000000E+00 -0.00000000000E+00 -0.21413741872E+03  0.21413741872E+03  0.00000000000E+00 0.  1.
          6    1    1    2  501    0 -0.15849088285E+03  0.17405981563E+03  0.91126123914E+01  0.29228106176E+03  0.17300000000E+03 0.  1.
         -6    1    1    2    0  502  0.15849088285E+03 -0.17405981563E+03  0.22152475971E+03  0.36663114778E+03  0.17300000000E+03 0.  1.
</event>
<event>
 4    1  0.5956049E+000  0.1000000E+03  0.7546771E-02  0.1280296E+00
         21   -1    0    0  503  502  0.00000000000E+00  0.00000000000E+00  0.11109886192E+03  0.11109886192E+03  0.00000000000E+00 0.  1.
         21   -1    0    0  501  503 -0.00000000000E+00 -0.00000000000E+00 -0.42419577293E+03  0.42419577293E+03  0.00000000000E+00 0.  1.
          6    1    1    2  501    0  0.66600438821E+02  0.63799776550E+02 -0.41600643171E+02  0.20041368080E+03  0.17300000000E+03 0.  1.
         -6    1    1    2    0  502 -0.66600438821E+02 -0.63799776550E+02 -0.27149626784E+03  0.33488095406E+03  0.17300000000E+03 0.  1.
</event>
<event>
 4    1  0.5956049E+000  0.1000000E+03  0.7546771E-02  0.1280296E+00
         21   -1    0    0  503  502  0.00000000000E+00  0.00000000000E+00  0.13337281282E+04  0.13337281282E+04  0.00000000000E+00 0. -1.
         21   -1    0    0  501  503 -0.00000000000E+00 -0.00000000000E+00 -0.42291926234E+02  0.42291926234E+02  0.00000000000E+00 0.  1.
          6    1    1    2  501    0  0.30727783443E+02  0.71657016628E+01  0.18329032001E+03  0.25400764824E+03  0.17300000000E+03 0.  1.
         -6    1    1    2    0  502 -0.30727783443E+02 -0.71657016628E+01  0.11081458820E+04  0.11220124062E+04  0.17300000000E+03 0. -1.
</event>
<event>
 4    1  0.5956049E+000  0.1000000E+03  0.7546771E-02  0.1280296E+00
         21   -1    0    0  503  502  0.00000000000E+00  0.00000000000E+00  0.37263705040E+03  0.37263705040E+03  0.00000000000E+00 0.  1.
         21   -1    0    0  501  503 -0.00000000000E+00 -0.00000000000E+00 -0.13148765736E+03  0.13148765736E+03  0.00000000000E+00 0. -1.
          6    1    1    2  501    0 -0.83285132094E+02  0.42425648098E+02  0.48273681079E+01  0.19669431188E+03  0.17300000000E+03 0. -1.
         -6    1    1    2    0  502  0.83285132094E+02 -0.42425648098E+02  0.23632202492E+03  0.30743039588E+03  0.17300000000E+03 0.  1.
</event>
<event>
 4    1  0.5956049E+000  0.1000000E+03  0.7546771E-02  0.1280296E+00
         21   -1    0    0  503  502  0.00000000000E+00  0.00000000000E+00  0.17640083083E+03  0.17640083083E+03  0.00000000000E+00 0.  1.
         21   -1    0    0  501  503 -0.00000000000E+00 -0.00000000000E+00 -0.84157504984E+03  0.84157504984E+03  0.00000000000E+00 0. -1.
          6    1    1    2  501    0 -0.11543443466E+03  0.20368262290E+03 -0.66603468992E+03  0.72687201607E+03  0.17300000000E+03 0. -1.
         -6    1    1    2    0  502  0.11543443466E+03 -0.20368262290E+03  0.86047090665E+00  0.29110386460E+03  0.17300000000E+03 0.  1.
</event>
<event>
 4    1  0.5956049E+000  0.1000000E+03  0.7546771E-02  0.1280296E+00
         21   -1    0    0  503  502  0.00000000000E+00  0.00000000000E+00  0.24954891917E+04  0.24954891917E+04  0.00000000000E+00 0.  1.
         21   -1    0    0  501  503 -0.00000000000E+00 -0.00000000000E+00 -0.37705703878E+02  0.37705703878E+02  0.00000000000E+00 0.  1.
          6    1    1    2  501    0 -0.25205270031E+03  0.85978520884E+01  0.11311188378E+04  0.11717351714E+04  0.17300000000E+03 0.  1.
         -6    1    1    2    0  502  0.25205270031E+03 -0.85978520884E+01  0.13266646501E+04  0.13614597242E+04  0.17300000000E+03 0.  1.
</event>
<event>
 4    1  0.5956049E+000  0.1000000E+03  0.7546771E-02  0.1280296E+00
         21   -1    0    0  503  502  0.00000000000E+00  0.00000000000E+00  0.18661533388E+03  0.18661533388E+03  0.00000000000E+00 0.  1.
         21   -1    0    0  501  503 -0.00000000000E+00 -0.00000000000E+00 -0.47177054473E+03  0.47177054473E+03  0.00000000000E+00 0.  1.
          6    1    1    2  501    0  0.14934833639E+03 -0.11999341391E+03 -0.30490510867E+03  0.39949902411E+03  0.17300000000E+03 0.  1.
         -6    1    1    2    0  502 -0.14934833639E+03  0.11999341391E+03  0.19749897823E+02  0.25888685449E+03  0.17300000000E+03 0.  1.
</event>
<event>
 4    1  0.5956049E+000  0.1000000E+03  0.7546771E-02  0.1280296E+00
         21   -1    0    0  503  502  0.00000000000E+00  0.00000000000E+00  0.13266438151E+03  0.13266438151E+03  0.00000000000E+00 0.  1.
         21   -1    0    0  501  503 -0.00000000000E+00 -0.00000000000E+00 -0.83052271780E+03  0.83052271780E+03  0.00000000000E+00 0.  1.
          6    1    1    2  501    0 -0.26353917294E+02  0.15394806658E+03 -0.69182917722E+03  0.73003503108E+03  0.17300000000E+03 0.  1.
         -6    1    1    2    0  502  0.26353917294E+02 -0.15394806658E+03 -0.60291590797E+01  0.23315206823E+03  0.17300000000E+03 0.  1.
</event>
<event>
 4    1  0.5956049E+000  0.1000000E+03  0.7546771E-02  0.1280296E+00
         21   -1    0    0  501  502  0.00000000000E+00  0.00000000000E+00  0.19997270372E+03  0.19997270372E+03  0.00000000000E+00 0. -1.
         21   -1    0    0  502  503 -0.00000000000E+00 -0.00000000000E+00 -0.23931570629E+03  0.23931570629E+03  0.00000000000E+00 0. -1.
          6    1    1    2  501    0  0.19109501215E+02 -0.11988342317E+03 -0.76383036112E+02  0.22472333299E+03  0.17300000000E+03 0. -1.
         -6    1    1    2    0  503 -0.19109501215E+02  0.11988342317E+03  0.37040033545E+02  0.21456507701E+03  0.17300000000E+03 0. -1.
</event>
<event>
 4    1  0.5956049E+000  0.1000000E+03  0.7546771E-02  0.1280296E+00
         21   -1    0    0  503  502  0.00000000000E+00  0.00000000000E+00  0.60139582577E+03  0.60139582577E+03  0.00000000000E+00 0. -1.
         21   -1    0    0  501  503 -0.00000000000E+00 -0.00000000000E+00 -0.73704809203E+02  0.73704809203E+02  0.00000000000E+00 0. -1.
          6    1    1    2  501    0 -0.53230487703E+02  0.30684868544E+02  0.98608318957E+02  0.20839300983E+03  0.17300000000E+03 0. -1.
         -6    1    1    2    0  502  0.53230487703E+02 -0.30684868544E+02  0.42908269761E+03  0.46670762515E+03  0.17300000000E+03 0. -1.
</event>
<event>
 4    1  0.5956049E+000  0.1000000E+03  0.7546771E-02  0.1280296E+00
         21   -1    0    0  503  502  0.00000000000E+00  0.00000000000E+00  0.24911316658E+03  0.24911316658E+03  0.00000000000E+00 0. -1.
         21   -1    0    0  501  503 -0.00000000000E+00 -0.00000000000E+00 -0.18198229905E+03  0.18198229905E+03  0.00000000000E+00 0. -1.
          6    1    1    2  501    0  0.73735921127E+02 -0.61047164364E+02 -0.46413037517E+02  0.20309335881E+03  0.17300000000E+03 0. -1.
         -6    1    1    2    0  502 -0.73735921127E+02  0.61047164364E+02  0.11354390505E+03  0.22800210682E+03  0.17300000000E+03 0. -1.
</event>
<event>
 4    1  0.5956049E+000  0.1000000E+03  0.7546771E-02  0.1280296E+00
         21   -1    0    0  503  502  0.00000000000E+00  0.00000000000E+00  0.62391316816E+03  0.62391316816E+03  0.00000000000E+00 0. -1.
         21   -1    0    0  501  503 -0.00000000000E+00 -0.00000000000E+00 -0.17821154778E+03  0.17821154778E+03  0.00000000000E+00 0. -1.
          6    1    1    2  501    0  0.99871401466E+02 -0.12591969244E+03 -0.60322457023E+02  0.24371677127E+03  0.17300000000E+03 0. -1.
         -6    1    1    2    0  502 -0.99871401466E+02  0.12591969244E+03  0.50602407740E+03  0.55840794468E+03  0.17300000000E+03 0. -1.
</event>
<event>
 4    1  0.5956049E+000  0.1000000E+03  0.7546771E-02  0.1280296E+00
         21   -1    0    0  503  502  0.00000000000E+00  0.00000000000E+00  0.27770916849E+03  0.27770916849E+03  0.00000000000E+00 0.  1.
         21   -1    0    0  501  503 -0.00000000000E+00 -0.00000000000E+00 -0.18200103841E+03  0.18200103841E+03  0.00000000000E+00 0. -1.
          6    1    1    2  501    0 -0.12285445887E+03  0.49062296844E+02 -0.91995943835E+01  0.21797697028E+03  0.17300000000E+03 0. -1.
         -6    1    1    2    0  502  0.12285445887E+03 -0.49062296844E+02  0.10490772446E+03  0.24173323662E+03  0.17300000000E+03 0. -1.
</event>
<event>
 4    1  0.5956049E+000  0.1000000E+03  0.7546771E-02  0.1280296E+00
         21   -1    0    0  503  502  0.00000000000E+00  0.00000000000E+00  0.59969139279E+03  0.59969139279E+03  0.00000000000E+00 0.  1.
         21   -1    0    0  501  503 -0.00000000000E+00 -0.00000000000E+00 -0.34139407302E+03  0.34139407302E+03  0.00000000000E+00 0. -1.
          6    1    1    2  501    0  0.10267382766E+03 -0.24730778822E+03 -0.20476521408E+03  0.37889424633E+03  0.17300000000E+03 0. -1.
         -6    1    1    2    0  502 -0.10267382766E+03  0.24730778822E+03  0.46306253385E+03  0.56219121948E+03  0.17300000000E+03 0.  1.
</event>
<event>
 4    1  0.5956049E+000  0.1000000E+03  0.7546771E-02  0.1280296E+00
         21   -1    0    0  503  502  0.00000000000E+00  0.00000000000E+00  0.37404272194E+03  0.37404272194E+03  0.00000000000E+00 0. -1.
         21   -1    0    0  501  503 -0.00000000000E+00 -0.00000000000E+00 -0.31823045867E+03  0.31823045867E+03  0.00000000000E+00 0.  1.
          6    1    1    2  501    0  0.42747200847E+01  0.20041372557E+03 -0.19399226509E+03  0.32824675710E+03  0.17300000000E+03 0.  1.
         -6    1    1    2    0  502 -0.42747200847E+01 -0.20041372557E+03  0.24980452836E+03  0.36402642352E+03  0.17300000000E+03 0. -1.
</event>
<event>
 4    1  0.5956049E+000  0.1000000E+03  0.7546771E-02  0.1280296E+00
         21   -1    0    0  503  502  0.00000000000E+00  0.00000000000E+00  0.57711251655E+02  0.57711251655E+02  0.00000000000E+00 0. -1.
         21   -1    0    0  501  503 -0.00000000000E+00 -0.00000000000E+00 -0.14443076528E+04  0.14443076528E+04  0.00000000000E+00 0.  1.
          6    1    1    2  501    0  0.52315831943E+02 -0.17227486322E+03 -0.10703317595E+04  0.10990699023E+04  0.17300000000E+03 0.  1.
         -6    1    1    2    0  502 -0.52315831943E+02  0.17227486322E+03 -0.31626464160E+03  0.40294900210E+03  0.17300000000E+03 0. -1.
</event>
<event>
 4    1  0.5956049E+000  0.1000000E+03  0.7546771E-02  0.1280296E+00
         21   -1    0    0  503  502  0.00000000000E+00  0.00000000000E+00  0.73954812672E+03  0.73954812672E+03  0.00000000000E+00 0. -1.
         21   -1    0    0  501  503 -0.00000000000E+00 -0.00000000000E+00 -0.58514876084E+02  0.58514876084E+02  0.00000000000E+00 0.  1.
          6    1    1    2  501    0 -0.77913508100E+02 -0.41953884741E+02  0.19806724150E+03  0.27747121534E+03  0.17300000000E+03 0.  1.
         -6    1    1    2    0  502  0.77913508100E+02  0.41953884741E+02  0.48296600914E+03  0.52059178746E+03  0.17300000000E+03 0. -1.
</event>
<event>
 4    1  0.5956049E+000  0.1000000E+03  0.7546771E-02  0.1280296E+00
         21   -1    0    0  503  502  0.00000000000E+00  0.00000000000E+00  0.88524921854E+03  0.88524921854E+03  0.00000000000E+00 0. -1.
         21   -1    0    0  501  503 -0.00000000000E+00 -0.00000000000E+00 -0.13129072604E+03  0.13129072604E+03  0.00000000000E+00 0.  1.
          6    1    1    2  501    0  0.27079949723E+02  0.35642705288E+02 -0.55871897478E+02  0.18722818977E+03  0.17300000000E+03 0.  1.
         -6    1    1    2    0  502 -0.27079949723E+02 -0.35642705288E+02  0.80983038998E+03  0.82931175480E+03  0.17300000000E+03 0. -1.
</event>
<event>
 4    1  0.5956049E+000  0.1000000E+03  0.7546771E-02  0.1280296E+00
         21   -1    0    0  501  502  0.00000000000E+00  0.00000000000E+00  0.19519160955E+04  0.19519160955E+04  0.00000000000E+00 0. -1.
         21   -1    0    0  502  503 -0.00000000000E+00 -0.00000000000E+00 -0.34929624665E+02  0.34929624665E+02  0.00000000000E+00 0. -1.
          6    1    1    2  501    0 -0.72205450862E+02  0.10618837101E+03  0.15197311897E+04  0.15349271925E+04  0.17300000000E+03 0. -1.
         -6    1    1    2    0  503  0.72205450862E+02 -0.10618837101E+03  0.39725528111E+03  0.45191852766E+03  0.17300000000E+03 0. -1.
</event>
<event>
 4    1  0.5956049E+000  0.1000000E+03  0.7546771E-02  0.1280296E+00
         21   -1    0    0  501  502  0.00000000000E+00  0.00000000000E+00  0.51856181724E+03  0.51856181724E+03  0.00000000000E+00 0. -1.
         21   -1    0    0  502  503 -0.00000000000E+00 -0.00000000000E+00 -0.46188828734E+03  0.46188828734E+03  0.00000000000E+00 0. -1.
          6    1    1    2  501    0 -0.28020338416E+01 -0.44064998197E+02  0.48477422498E+03  0.51660877332E+03  0.17300000000E+03 0. -1.
         -6    1    1    2    0  503  0.28020338416E+01  0.44064998197E+02 -0.42810069508E+03  0.46384133126E+03  0.17300000000E+03 0. -1.
</event>
<event>
 4    1  0.5956049E+000  0.1000000E+03  0.7546771E-02  0.1280296E+00
         21   -1    0    0  501  502  0.00000000000E+00  0.00000000000E+00  0.58791941747E+02  0.58791941747E+02  0.00000000000E+00 0. -1.
         21   -1    0    0  502  503 -0.00000000000E+00 -0.00000000000E+00 -0.97747384490E+03  0.97747384490E+03  0.00000000000E+00 0. -1.
          6    1    1    2  501    0  0.72851797594E+02 -0.30959054215E+02 -0.14410090435E+03  0.23866277063E+03  0.17300000000E+03 0. -1.
         -6    1    1    2    0  503 -0.72851797594E+02  0.30959054215E+02 -0.77458099881E+03  0.79760301602E+03  0.17300000000E+03 0. -1.
</event>
<event>
 4    1  0.5956049E+000  0.1000000E+03  0.7546771E-02  0.1280296E+00
         21   -1    0    0  501  502  0.00000000000E+00  0.00000000000E+00  0.16138532685E+03  0.16138532685E+03  0.00000000000E+00 0. -1.
         21   -1    0    0  502  503 -0.00000000000E+00 -0.00000000000E+00 -0.35807562407E+03  0.35807562407E+03  0.00000000000E+00 0. -1.
          6    1    1    2  501    0 -0.71732589295E+01 -0.10861849836E+03  0.38363297542E+02  0.20796676760E+03  0.17300000000E+03 0. -1.
         -6    1    1    2    0  503  0.71732589295E+01  0.10861849836E+03 -0.23505359476E+03  0.31149418331E+03  0.17300000000E+03 0. -1.
</event>
<event>
 4    1  0.5956049E+000  0.1000000E+03  0.7546771E-02  0.1280296E+00
         21   -1    0    0  501  502  0.00000000000E+00  0.00000000000E+00  0.24935682738E+03  0.24935682738E+03  0.00000000000E+00 0. -1.
         21   -1    0    0  502  503 -0.00000000000E+00 -0.00000000000E+00 -0.69228725812E+03  0.69228725812E+03  0.00000000000E+00 0. -1.
          6    1    1    2  501    0  0.28902486857E+02 -0.51702376967E+02  0.20130613069E+03  0.27195890827E+03  0.17300000000E+03 0. -1.
         -6    1    1    2    0  503 -0.28902486857E+02  0.51702376967E+02 -0.64423656143E+03  0.66968517724E+03  0.17300000000E+03 0. -1.
</event>
<event>
 4    1  0.5956049E+000  0.1000000E+03  0.7546771E-02  0.1280296E+00
         21   -1    0    0  501  502  0.00000000000E+00  0.00000000000E+00  0.28558410050E+03  0.28558410050E+03  0.00000000000E+00 0. -1.
         21   -1    0    0  502  503 -0.00000000000E+00 -0.00000000000E+00 -0.20720677425E+03  0.20720677425E+03  0.00000000000E+00 0. -1.
          6    1    1    2  501    0  0.10622040679E+03 -0.59675274994E+02  0.16074449107E+03  0.26572862976E+03  0.17300000000E+03 0. -1.
         -6    1    1    2    0  503 -0.10622040679E+03  0.59675274994E+02 -0.82367164818E+02  0.22706224500E+03  0.17300000000E+03 0. -1.
</event>
<event>
 4    1  0.5956049E+000  0.1000000E+03  0.7546771E-02  0.1280296E+00
         21   -1    0    0  501  502  0.00000000000E+00  0.00000000000E+00  0.43020413139E+03  0.43020413139E+03  0.00000000000E+00 0. -1.
         21   -1    0    0  502  503 -0.00000000000E+00 -0.00000000000E+00 -0.10459722495E+03  0.10459722495E+03  0.00000000000E+00 0. -1.
          6    1    1    2  501    0 -0.66716746780E+02  0.86689880139E+01  0.29223639470E+03  0.34620425480E+03  0.17300000000E+03 0. -1.
         -6    1    1    2    0  503  0.66716746780E+02 -0.86689880139E+01  0.33370511745E+02  0.18859710154E+03  0.17300000000E+03 0. -1.
</event>
<event>
 4    1  0.5956049E+000  0.1000000E+03  0.7546771E-02  0.1280296E+00
         21   -1    0    0  503  502  0.00000000000E+00  0.00000000000E+00  0.29931943930E+03  0.29931943930E+03  0.00000000000E+00 0.  1.
         21   -1    0    0  501  503 -0.00000000000E+00 -0.00000000000E+00 -0.10732326875E+03  0.10732326875E+03  0.00000000000E+00 0.  1.
          6    1    1    2  501    0 -0.16007859074E+02  0.43933598783E+02  0.92685313976E+02  0.20175723055E+03  0.17300000000E+03 0.  1.
         -6    1    1    2    0  502  0.16007859074E+02 -0.43933598783E+02  0.99310856580E+02  0.20488547750E+03  0.17300000000E+03 0.  1.
</event>
<event>
 4    1  0.5956049E+000  0.1000000E+03  0.7546771E-02  0.1280296E+00
         21   -1    0    0  501  502  0.00000000000E+00  0.00000000000E+00  0.79209771642E+03  0.79209771642E+03  0.00000000000E+00 0.  1.
         21   -1    0    0  502  503 -0.00000000000E+00 -0.00000000000E+00 -0.95829022683E+02  0.95829022683E+02  0.00000000000E+00 0. -1.
          6    1    1    2  501    0 -0.54367852405E+02  0.17216284938E+03  0.53453788974E+03  0.59013190529E+03  0.17300000000E+03 0. -1.
         -6    1    1    2    0  503  0.54367852405E+02 -0.17216284938E+03  0.16173080400E+03  0.29779483381E+03  0.17300000000E+03 0. -1.
</event>
<event>
 4    1  0.5956049E+000  0.1000000E+03  0.7546771E-02  0.1280296E+00
         21   -1    0    0  501  502  0.00000000000E+00  0.00000000000E+00  0.10243549145E+03  0.10243549145E+03  0.00000000000E+00 0.  1.
         21   -1    0    0  502  503 -0.00000000000E+00 -0.00000000000E+00 -0.31420944792E+03  0.31420944792E+03  0.00000000000E+00 0. -1.
          6    1    1    2  501    0 -0.21252547865E+02  0.39462514000E+02 -0.12418211929E+03  0.21762159716E+03  0.17300000000E+03 0. -1.
         -6    1    1    2    0  503  0.21252547865E+02 -0.39462514000E+02 -0.87591837187E+02  0.19902334221E+03  0.17300000000E+03 0. -1.
</event>
<event>
 4    1  0.5956049E+000  0.1000000E+03  0.7546771E-02  0.1280296E+00
         21   -1    0    0  501  502  0.00000000000E+00  0.00000000000E+00  0.76550273684E+03  0.76550273684E+03  0.00000000000E+00 0.  1.
         21   -1    0    0  502  503 -0.00000000000E+00 -0.00000000000E+00 -0.52030029102E+02  0.52030029102E+02  0.00000000000E+00 0. -1.
          6    1    1    2  501    0 -0.32171120674E+02 -0.26463104897E+02  0.54181185852E+03  0.57028446144E+03  0.17300000000E+03 0. -1.
         -6    1    1    2    0  503  0.32171120674E+02  0.26463104897E+02  0.17166084923E+03  0.24724830451E+03  0.17300000000E+03 0. -1.
</event>
<event>
 4    1  0.5956049E+000  0.1000000E+03  0.7546771E-02  0.1280296E+00
         21   -1    0    0  501  502  0.00000000000E+00  0.00000000000E+00  0.19778828213E+04  0.19778828213E+04  0.00000000000E+00 0.  1.
         21   -1    0    0  502  503 -0.00000000000E+00 -0.00000000000E+00 -0.63560660959E+02  0.63560660959E+02  0.00000000000E+00 0. -1.
          6    1    1    2  501    0  0.14027926124E+03  0.11425858136E+03  0.16800417377E+04  0.16985883948E+04  0.17300000000E+03 0. -1.
         -6    1    1    2    0  503 -0.14027926124E+03 -0.11425858136E+03  0.23428042259E+03  0.34285508740E+03  0.17300000000E+03 0. -1.
</event>
<event>
 4    1  0.5956049E+000  0.1000000E+03  0.7546771E-02  0.1280296E+00
         21   -1    0    0  501  502  0.00000000000E+00  0.00000000000E+00  0.86365377675E+03  0.86365377675E+03  0.00000000000E+00 0. -1.
         21   -1    0    0  502  503 -0.00000000000E+00 -0.00000000000E+00 -0.40057425470E+02  0.40057425470E+02  0.00000000000E+00 0.  1.
          6    1    1    2  501    0 -0.66105047088E+02 -0.16590918086E+02  0.42309159759E+03  0.46214785055E+03  0.17300000000E+03 0. -1.
         -6    1    1    2    0  503  0.66105047088E+02  0.16590918086E+02  0.40050475369E+03  0.44156335168E+03  0.17300000000E+03 0.  1.
</event>
<event>
 4    1  0.5956049E+000  0.1000000E+03  0.7546771E-02  0.1280296E+00
         21   -1    0    0  501  502  0.00000000000E+00  0.00000000000E+00  0.88993439412E+02  0.88993439412E+02  0.00000000000E+00 0.  1.
         21   -1    0    0  502  503 -0.00000000000E+00 -0.00000000000E+00 -0.52285093173E+03  0.52285093173E+03  0.00000000000E+00 0.  1.
          6    1    1    2  501    0  0.82607918913E+02  0.16081022544E+02 -0.78562431157E+02  0.20780693719E+03  0.17300000000E+03 0.  1.
         -6    1    1    2    0  503 -0.82607918913E+02 -0.16081022544E+02 -0.35529506117E+03  0.40403743396E+03  0.17300000000E+03 0.  1.
</event>
<event>
 4    1  0.5956049E+000  0.1000000E+03  0.7546771E-02  0.1280296E+00
         21   -1    0    0  501  502  0.00000000000E+00  0.00000000000E+00  0.47309469907E+02  0.47309469907E+02  0.00000000000E+00 0.  1.
         21   -1    0    0  502  503 -0.00000000000E+00 -0.00000000000E+00 -0.17337726572E+04  0.17337726572E+04  0.00000000000E+00 0.  1.
          6    1    1    2  501    0  0.15110897219E+03 -0.16452284343E+02 -0.31379990026E+03  0.38923511730E+03  0.17300000000E+03 0.  1.
         -6    1    1    2    0  503 -0.15110897219E+03  0.16452284343E+02 -0.13726632870E+04  0.13918470098E+04  0.17300000000E+03 0.  1.
</event>
<event>
 4    1  0.5956049E+000  0.1000000E+03  0.7546771E-02  0.1280296E+00
         21   -1    0    0  501  502  0.00000000000E+00  0.00000000000E+00  0.15182164020E+03  0.15182164020E+03  0.00000000000E+00 0.  1.
         21   -1    0    0  502  503 -0.00000000000E+00 -0.00000000000E+00 -0.27029868067E+03  0.27029868067E+03  0.00000000000E+00 0.  1.
          6    1    1    2  501    0 -0.50811955744E+02  0.73683557263E+02 -0.12565721207E+01  0.19478629426E+03  0.17300000000E+03 0.  1.
         -6    1    1    2    0  503  0.50811955744E+02 -0.73683557263E+02 -0.11722046835E+03  0.22733402662E+03  0.17300000000E+03 0.  1.
</event>
<event>
 4    1  0.5956049E+000  0.1000000E+03  0.7546771E-02  0.1280296E+00
         21   -1    0    0  503  502  0.00000000000E+00  0.00000000000E+00  0.24256834477E+03  0.24256834477E+03  0.00000000000E+00 0.  1.
         21   -1    0    0  501  503 -0.00000000000E+00 -0.00000000000E+00 -0.20444516948E+03  0.20444516948E+03  0.00000000000E+00 0.  1.
          6    1    1    2  501    0 -0.15192865672E+02  0.13876054136E+03  0.56856136184E+01  0.22236599832E+03  0.17300000000E+03 0.  1.
         -6    1    1    2    0  502  0.15192865672E+02 -0.13876054136E+03  0.32437561667E+02  0.22464751593E+03  0.17300000000E+03 0.  1.
</event>
<event>
 4    1  0.5956049E+000  0.1000000E+03  0.7546771E-02  0.1280296E+00
         21   -1    0    0  503  502  0.00000000000E+00  0.00000000000E+00  0.13701798031E+03  0.13701798031E+03  0.00000000000E+00 0.  1.
         21   -1    0    0  501  503 -0.00000000000E+00 -0.00000000000E+00 -0.13412338635E+04  0.13412338635E+04  0.00000000000E+00 0.  1.
          6    1    1    2  501    0 -0.19088814529E+03 -0.23906864641E+03 -0.10253251557E+04  0.10838878063E+04  0.17300000000E+03 0.  1.
         -6    1    1    2    0  502  0.19088814529E+03  0.23906864641E+03 -0.17889072748E+03  0.39436403752E+03  0.17300000000E+03 0.  1.
</event>
<event>
 4    1  0.5956049E+000  0.1000000E+03  0.7546771E-02  0.1280296E+00
         21   -1    0    0  503  502  0.00000000000E+00  0.00000000000E+00  0.33704787991E+03  0.33704787991E+03  0.00000000000E+00 0.  1.
         21   -1    0    0  501  503 -0.00000000000E+00 -0.00000000000E+00 -0.21527065332E+03  0.21527065332E+03  0.00000000000E+00 0.  1.
          6    1    1    2  501    0 -0.90235514209E+02 -0.65019957232E+02 -0.11744686217E+03  0.23683920346E+03  0.17300000000E+03 0.  1.
         -6    1    1    2    0  502  0.90235514209E+02  0.65019957232E+02  0.23922408877E+03  0.31547932977E+03  0.17300000000E+03 0.  1.
</event>
<event>
 4    1  0.5956049E+000  0.1000000E+03  0.7546771E-02  0.1280296E+00
         21   -1    0    0  503  502  0.00000000000E+00  0.00000000000E+00  0.36855495106E+03  0.36855495106E+03  0.00000000000E+00 0.  1.
         21   -1    0    0  501  503 -0.00000000000E+00 -0.00000000000E+00 -0.32539556622E+03  0.32539556622E+03  0.00000000000E+00 0.  1.
          6    1    1    2  501    0 -0.12094182163E+03 -0.14205950688E+01 -0.25348551008E+03  0.32986792226E+03  0.17300000000E+03 0.  1.
         -6    1    1    2    0  502  0.12094182163E+03  0.14205950688E+01  0.29664489493E+03  0.36408259502E+03  0.17300000000E+03 0.  1.
</event>
<event>
 4    1  0.5956049E+000  0.1000000E+03  0.7546771E-02  0.1280296E+00
         21   -1    0    0  503  502  0.00000000000E+00  0.00000000000E+00  0.44007395839E+03  0.44007395839E+03  0.00000000000E+00 0. -1.
         21   -1    0    0  501  503 -0.00000000000E+00 -0.00000000000E+00 -0.10969746578E+03  0.10969746578E+03  0.00000000000E+00 0. -1.
          6    1    1    2  501    0 -0.99073337661E+02 -0.51215264431E+02  0.69028847388E+02  0.21710023334E+03  0.17300000000E+03 0. -1.
         -6    1    1    2    0  502  0.99073337661E+02  0.51215264431E+02  0.26134764522E+03  0.33267119083E+03  0.17300000000E+03 0. -1.
</event>
<event>
 4    1  0.5956049E+000  0.1000000E+03  0.7546771E-02  0.1280296E+00
         21   -1    0    0  503  502  0.00000000000E+00  0.00000000000E+00  0.19279331197E+03  0.19279331197E+03  0.00000000000E+00 0. -1.
         21   -1    0    0  501  503 -0.00000000000E+00 -0.00000000000E+00 -0.19731790563E+03  0.19731790563E+03  0.00000000000E+00 0. -1.
          6    1    1    2  501    0 -0.84110146800E+02  0.26931936715E+02 -0.19947561911E+02  0.19526072630E+03  0.17300000000E+03 0. -1.
         -6    1    1    2    0  502  0.84110146800E+02 -0.26931936715E+02  0.15422968251E+02  0.19485049130E+03  0.17300000000E+03 0. -1.
</event>
<event>
 4    1  0.5956049E+000  0.1000000E+03  0.7546771E-02  0.1280296E+00
         21   -1    0    0  503  502  0.00000000000E+00  0.00000000000E+00  0.71060831800E+03  0.71060831800E+03  0.00000000000E+00 0. -1.
         21   -1    0    0  501  503 -0.00000000000E+00 -0.00000000000E+00 -0.51875320768E+02  0.51875320768E+02  0.00000000000E+00 0. -1.
          6    1    1    2  501    0 -0.25504254615E+02 -0.29115419065E+02  0.18296715950E+03  0.25476294096E+03  0.17300000000E+03 0. -1.
         -6    1    1    2    0  502  0.25504254615E+02  0.29115419065E+02  0.47576583773E+03  0.50772069780E+03  0.17300000000E+03 0. -1.
</event>
<event>
 4    1  0.5956049E+000  0.1000000E+03  0.7546771E-02  0.1280296E+00
         21   -1    0    0  503  502  0.00000000000E+00  0.00000000000E+00  0.34732858697E+03  0.34732858697E+03  0.00000000000E+00 0. -1.
         21   -1    0    0  501  503 -0.00000000000E+00 -0.00000000000E+00 -0.28461662961E+03  0.28461662961E+03  0.00000000000E+00 0. -1.
          6    1    1    2  501    0  0.10754589811E+02  0.94220863165E+02 -0.21467114181E+03  0.29155776680E+03  0.17300000000E+03 0. -1.
         -6    1    1    2    0  502 -0.10754589811E+02 -0.94220863165E+02  0.27738309917E+03  0.34038744977E+03  0.17300000000E+03 0. -1.
</event>
<event>
 4    1  0.5956049E+000  0.1000000E+03  0.7546771E-02  0.1280296E+00
         21   -1    0    0  503  502  0.00000000000E+00  0.00000000000E+00  0.26447471237E+04  0.26447471237E+04  0.00000000000E+00 0. -1.
         21   -1    0    0  501  503 -0.00000000000E+00 -0.00000000000E+00 -0.54582955780E+02  0.54582955780E+02  0.00000000000E+00 0. -1.
          6    1    1    2  501    0  0.13515379764E+03  0.27320814487E+03  0.77397703898E+03  0.84963444863E+03  0.17300000000E+03 0. -1.
         -6    1    1    2    0  502 -0.13515379764E+03 -0.27320814487E+03  0.18161871290E+04  0.18496956309E+04  0.17300000000E+03 0. -1.
</event>
<event>
 4    1  0.5956049E+000  0.1000000E+03  0.7546771E-02  0.1280296E+00
         21   -1    0    0  501  502  0.00000000000E+00  0.00000000000E+00  0.54883481288E+03  0.54883481288E+03  0.00000000000E+00 0.  1.
         21   -1    0    0  502  503 -0.00000000000E+00 -0.00000000000E+00 -0.10560436908E+03  0.10560436908E+03  0.00000000000E+00 0.  1.
          6    1    1    2  501    0  0.31580814812E+02 -0.13830364318E+03  0.34246099044E+03  0.40906451271E+03  0.17300000000E+03 0.  1.
         -6    1    1    2    0  503 -0.31580814812E+02  0.13830364318E+03  0.10076945335E+03  0.24537466925E+03  0.17300000000E+03 0.  1.
</event>
<event>
 4    1  0.5956049E+000  0.1000000E+03  0.7546771E-02  0.1280296E+00
         21   -1    0    0  501  502  0.00000000000E+00  0.00000000000E+00  0.56328119857E+03  0.56328119857E+03  0.00000000000E+00 0.  1.
         21   -1    0    0  502  503 -0.00000000000E+00 -0.00000000000E+00 -0.20569753981E+03  0.20569753981E+03  0.00000000000E+00 0.  1.
          6    1    1    2  501    0 -0.27700731717E+02 -0.19676740622E+03  0.42224111224E+03  0.49769599109E+03  0.17300000000E+03 0.  1.
         -6    1    1    2    0  503  0.27700731717E+02  0.19676740622E+03 -0.64657453477E+02  0.27128274729E+03  0.17300000000E+03 0.  1.
</event>
<event>
 4    1  0.5956049E+000  0.1000000E+03  0.7546771E-02  0.1280296E+00
         21   -1    0    0  503  502  0.00000000000E+00  0.00000000000E+00  0.14463667154E+04  0.14463667154E+04  0.00000000000E+00 0.  1.
         21   -1    0    0  501  503 -0.00000000000E+00 -0.00000000000E+00 -0.38378081174E+02  0.38378081174E+02  0.00000000000E+00 0.  1.
          6    1    1    2  501    0 -0.15618462070E+03  0.24366956593E+02  0.62730292323E+03  0.66964568378E+03  0.17300000000E+03 0.  1.
         -6    1    1    2    0  502  0.15618462070E+03 -0.24366956593E+02  0.78068571097E+03  0.81509911277E+03  0.17300000000E+03 0.  1.
</event>
<event>
 4    1  0.5956049E+000  0.1000000E+03  0.7546771E-02  0.1280296E+00
         21   -1    0    0  503  502  0.00000000000E+00  0.00000000000E+00  0.35793018760E+03  0.35793018760E+03  0.00000000000E+00 0.  1.
         21   -1    0    0  501  503 -0.00000000000E+00 -0.00000000000E+00 -0.52461896546E+03  0.52461896546E+03  0.00000000000E+00 0.  1.
          6    1    1    2  501    0 -0.16976525091E+03 -0.57218143208E+01 -0.44908582256E+03  0.51035287361E+03  0.17300000000E+03 0.  1.
         -6    1    1    2    0  502  0.16976525091E+03  0.57218143208E+01  0.28239704470E+03  0.37219627944E+03  0.17300000000E+03 0.  1.
</event>
<event>
 4    1  0.5956049E+000  0.1000000E+03  0.7546771E-02  0.1280296E+00
         21   -1    0    0  503  502  0.00000000000E+00  0.00000000000E+00  0.30206780604E+03  0.30206780604E+03  0.00000000000E+00 0.  1.
         21   -1    0    0  501  503 -0.00000000000E+00 -0.00000000000E+00 -0.21590262924E+03  0.21590262924E+03  0.00000000000E+00 0.  1.
          6    1    1    2  501    0 -0.41302355777E+02 -0.51548905961E+02  0.22142271065E+03  0.28865237066E+03  0.17300000000E+03 0.  1.
         -6    1    1    2    0  502  0.41302355777E+02  0.51548905961E+02 -0.13525753384E+03  0.22931806462E+03  0.17300000000E+03 0.  1.
</event>
<event>
 4    1  0.5956049E+000  0.1000000E+03  0.7546771E-02  0.1280296E+00
         21   -1    0    0  503  502  0.00000000000E+00  0.00000000000E+00  0.19978656836E+03  0.19978656836E+03  0.00000000000E+00 0. -1.
         21   -1    0    0  501  503 -0.00000000000E+00 -0.00000000000E+00 -0.53331998638E+03  0.53331998638E+03  0.00000000000E+00 0. -1.
          6    1    1    2  501    0 -0.20052415338E+03 -0.16185295878E+03 -0.28026154616E+03  0.41818877390E+03  0.17300000000E+03 0. -1.
         -6    1    1    2    0  502  0.20052415338E+03  0.16185295878E+03 -0.53271871862E+02  0.31491778084E+03  0.17300000000E+03 0. -1.
</event>
<event>
 4    1  0.5956049E+000  0.1000000E+03  0.7546771E-02  0.1280296E+00
         21   -1    0    0  503  502  0.00000000000E+00  0.00000000000E+00  0.17656964483E+03  0.17656964483E+03  0.00000000000E+00 0.  1.
         21   -1    0    0  501  503 -0.00000000000E+00 -0.00000000000E+00 -0.22981634054E+03  0.22981634054E+03  0.00000000000E+00 0.  1.
          6    1    1    2  501    0 -0.32264396984E+02  0.86530844804E+02  0.19831574081E+02  0.19710623974E+03  0.17300000000E+03 0.  1.
         -6    1    1    2    0  502  0.32264396984E+02 -0.86530844804E+02 -0.73078269783E+02  0.20927974563E+03  0.17300000000E+03 0.  1.
</event>
<event>
 4    1  0.5956049E+000  0.1000000E+03  0.7546771E-02  0.1280296E+00
         21   -1    0    0  503  502  0.00000000000E+00  0.00000000000E+00  0.22118526071E+03  0.22118526071E+03  0.00000000000E+00 0.  1.
         21   -1    0    0  501  503 -0.00000000000E+00 -0.00000000000E+00 -0.16343327056E+03  0.16343327056E+03  0.00000000000E+00 0.  1.
          6    1    1    2  501    0 -0.77390554518E+02  0.15178329647E+02  0.29475189072E+02  0.19239923698E+03  0.17300000000E+03 0.  1.
         -6    1    1    2    0  502  0.77390554518E+02 -0.15178329647E+02  0.28276801080E+02  0.19221929429E+03  0.17300000000E+03 0.  1.
</event>
<event>
 4    1  0.5956049E+000  0.1000000E+03  0.7546771E-02  0.1280296E+00
         21   -1    0    0  503  502  0.00000000000E+00  0.00000000000E+00  0.23048868122E+02  0.23048868122E+02  0.00000000000E+00 0.  1.
         21   -1    0    0  501  503 -0.00000000000E+00 -0.00000000000E+00 -0.15001008631E+04  0.15001008631E+04  0.00000000000E+00 0.  1.
          6    1    1    2  501    0  0.50941306749E+02  0.37424417781E+02 -0.84302828511E+03  0.86291441828E+03  0.17300000000E+03 0.  1.
         -6    1    1    2    0  502 -0.50941306749E+02 -0.37424417781E+02 -0.63402370982E+03  0.66023531290E+03  0.17300000000E+03 0.  1.
</event>
<event>
 4    1  0.5956049E+000  0.1000000E+03  0.7546771E-02  0.1280296E+00
         21   -1    0    0  503  502  0.00000000000E+00  0.00000000000E+00  0.22590957756E+03  0.22590957756E+03  0.00000000000E+00 0.  1.
         21   -1    0    0  501  503 -0.00000000000E+00 -0.00000000000E+00 -0.17065638726E+03  0.17065638726E+03  0.00000000000E+00 0.  1.
          6    1    1    2  501    0 -0.58220673319E+02 -0.22008631306E+02 -0.41971671970E+02  0.18858591650E+03  0.17300000000E+03 0.  1.
         -6    1    1    2    0  502  0.58220673319E+02  0.22008631306E+02  0.97224862272E+02  0.20798004832E+03  0.17300000000E+03 0.  1.
</event>
<event>
 4    1  0.5956049E+000  0.1000000E+03  0.7546771E-02  0.1280296E+00
         21   -1    0    0  503  502  0.00000000000E+00  0.00000000000E+00  0.18234070783E+03  0.18234070783E+03  0.00000000000E+00 0. -1.
         21   -1    0    0  501  503 -0.00000000000E+00 -0.00000000000E+00 -0.18987845977E+03  0.18987845977E+03  0.00000000000E+00 0.  1.
          6    1    1    2  501    0 -0.39902486091E+02  0.35995491578E+01  0.51815966123E+02  0.18498394389E+03  0.17300000000E+03 0.  1.
         -6    1    1    2    0  502  0.39902486091E+02 -0.35995491578E+01 -0.59353718073E+02  0.18723522371E+03  0.17300000000E+03 0. -1.
</event>
<event>
 4    1  0.5956049E+000  0.1000000E+03  0.7546771E-02  0.1280296E+00
         21   -1    0    0  503  502  0.00000000000E+00  0.00000000000E+00  0.88108913504E+02  0.88108913504E+02  0.00000000000E+00 0. -1.
         21   -1    0    0  501  503 -0.00000000000E+00 -0.00000000000E+00 -0.42058984805E+03  0.42058984805E+03  0.00000000000E+00 0.  1.
          6    1    1    2  501    0  0.44694205583E+02  0.63855046315E+02 -0.12335157511E+03  0.22631758667E+03  0.17300000000E+03 0.  1.
         -6    1    1    2    0  502 -0.44694205583E+02 -0.63855046315E+02 -0.20912935943E+03  0.28238117488E+03  0.17300000000E+03 0. -1.
</event>
<event>
 4    1  0.5956049E+000  0.1000000E+03  0.7546771E-02  0.1280296E+00
         21   -1    0    0  503  502  0.00000000000E+00  0.00000000000E+00  0.15111739172E+03  0.15111739172E+03  0.00000000000E+00 0. -1.
         21   -1    0    0  501  503 -0.00000000000E+00 -0.00000000000E+00 -0.29777849719E+03  0.29777849719E+03  0.00000000000E+00 0.  1.
          6    1    1    2  501    0 -0.58628335026E+02 -0.10670844116E+03 -0.89943724315E+02  0.22987571996E+03  0.17300000000E+03 0.  1.
         -6    1    1    2    0  502  0.58628335026E+02  0.10670844116E+03 -0.56717381158E+02  0.21902016895E+03  0.17300000000E+03 0. -1.
</event>
<event>
 4    1  0.5956049E+000  0.1000000E+03  0.7546771E-02  0.1280296E+00
         21   -1    0    0  501  502  0.00000000000E+00  0.00000000000E+00  0.46270358872E+03  0.46270358872E+03  0.00000000000E+00 0. -1.
         21   -1    0    0  502  503 -0.00000000000E+00 -0.00000000000E+00 -0.16636804556E+03  0.16636804556E+03  0.00000000000E+00 0.  1.
          6    1    1    2  501    0 -0.16575935318E+03  0.51929165366E+02  0.29544482162E+03  0.38391332876E+03  0.17300000000E+03 0. -1.
         -6    1    1    2    0  503  0.16575935318E+03 -0.51929165366E+02  0.89072154310E+00  0.24515830552E+03  0.17300000000E+03 0.  1.
</event>
<event>
 4    1  0.5956049E+000  0.1000000E+03  0.7546771E-02  0.1280296E+00
         21   -1    0    0  501  502  0.00000000000E+00  0.00000000000E+00  0.41384661465E+03  0.41384661465E+03  0.00000000000E+00 0. -1.
         21   -1    0    0  502  503 -0.00000000000E+00 -0.00000000000E+00 -0.10293829420E+03  0.10293829420E+03  0.00000000000E+00 0.  1.
          6    1    1    2  501    0  0.67923808154E+02  0.89064824268E+02  0.16947762482E+03  0.26682925617E+03  0.17300000000E+03 0. -1.
         -6    1    1    2    0  503 -0.67923808154E+02 -0.89064824268E+02  0.14143069563E+03  0.24995565267E+03  0.17300000000E+03 0.  1.
</event>
<event>
 4    1  0.5956049E+000  0.1000000E+03  0.7546771E-02  0.1280296E+00
         21   -1    0    0  501  502  0.00000000000E+00  0.00000000000E+00  0.22421655060E+03  0.22421655060E+03  0.00000000000E+00 0. -1.
         21   -1    0    0  502  503 -0.00000000000E+00 -0.00000000000E+00 -0.20925720168E+03  0.20925720168E+03  0.00000000000E+00 0.  1.
          6    1    1    2  501    0 -0.31702978662E+02  0.65298810895E+02 -0.10084802401E+03  0.21299844485E+03  0.17300000000E+03 0. -1.
         -6    1    1    2    0  503  0.31702978662E+02 -0.65298810895E+02  0.11580737293E+03  0.22047530743E+03  0.17300000000E+03 0.  1.
</event>
<event>
 4    1  0.5956049E+000  0.1000000E+03  0.7546771E-02  0.1280296E+00
         21   -1    0    0  501  502  0.00000000000E+00  0.00000000000E+00  0.27102211048E+03  0.27102211048E+03  0.00000000000E+00 0. -1.
         21   -1    0    0  502  503 -0.00000000000E+00 -0.00000000000E+00 -0.14847805090E+03  0.14847805090E+03  0.00000000000E+00 0. -1.
          6    1    1    2  501    0  0.94423666209E+02 -0.35742331199E+02  0.72653875093E+02  0.21307493646E+03  0.17300000000E+03 0. -1.
         -6    1    1    2    0  503 -0.94423666209E+02  0.35742331199E+02  0.49890184486E+02  0.20642522493E+03  0.17300000000E+03 0. -1.
</event>
<event>
 4    1  0.5956049E+000  0.1000000E+03  0.7546771E-02  0.1280296E+00
         21   -1    0    0  503  502  0.00000000000E+00  0.00000000000E+00  0.91086861160E+02  0.91086861160E+02  0.00000000000E+00 0. -1.
         21   -1    0    0  501  503 -0.00000000000E+00 -0.00000000000E+00 -0.41217994756E+03  0.41217994756E+03  0.00000000000E+00 0. -1.
          6    1    1    2  501    0  0.78456172543E+02  0.18612157066E+02 -0.20387981523E+03  0.27928079500E+03  0.17300000000E+03 0. -1.
         -6    1    1    2    0  502 -0.78456172543E+02 -0.18612157066E+02 -0.11721327117E+03  0.22398601371E+03  0.17300000000E+03 0. -1.
</event>
<event>
 4    1  0.5956049E+000  0.1000000E+03  0.7546771E-02  0.1280296E+00
         21   -1    0    0  503  502  0.00000000000E+00  0.00000000000E+00  0.57077978570E+03  0.57077978570E+03  0.00000000000E+00 0. -1.
         21   -1    0    0  501  503 -0.00000000000E+00 -0.00000000000E+00 -0.10724178168E+03  0.10724178168E+03  0.00000000000E+00 0. -1.
          6    1    1    2  501    0 -0.43564789639E+02 -0.17004094637E+03  0.20204306523E+03  0.31868827174E+03  0.17300000000E+03 0. -1.
         -6    1    1    2    0  502  0.43564789639E+02  0.17004094637E+03  0.26149493880E+03  0.35933329564E+03  0.17300000000E+03 0. -1.
</event>
<event>
 4    1  0.5956049E+000  0.1000000E+03  0.7546771E-02  0.1280296E+00
         21   -1    0    0  503  502  0.00000000000E+00  0.00000000000E+00  0.54601503084E+03  0.54601503084E+03  0.00000000000E+00 0. -1.
         21   -1    0    0  501  503 -0.00000000000E+00 -0.00000000000E+00 -0.27042093522E+03  0.27042093522E+03  0.00000000000E+00 0. -1.
          6    1    1    2  501    0 -0.23835284158E+02  0.86036382606E+02 -0.21415287677E+03  0.28941464118E+03  0.17300000000E+03 0. -1.
         -6    1    1    2    0  502  0.23835284158E+02 -0.86036382606E+02  0.48974697239E+03  0.52702132487E+03  0.17300000000E+03 0. -1.
</event>
<event>
 4    1  0.5956049E+000  0.1000000E+03  0.7546771E-02  0.1280296E+00
         21   -1    0    0  501  502  0.00000000000E+00  0.00000000000E+00  0.13246668785E+03  0.13246668785E+03  0.00000000000E+00 0. -1.
         21   -1    0    0  502  503 -0.00000000000E+00 -0.00000000000E+00 -0.35369449153E+03  0.35369449153E+03  0.00000000000E+00 0. -1.
          6    1    1    2  501    0 -0.77705231823E+02  0.83944408306E+02 -0.41032974297E+02  0.21141776585E+03  0.17300000000E+03 0. -1.
         -6    1    1    2    0  503  0.77705231823E+02 -0.83944408306E+02 -0.18019482938E+03  0.27474341352E+03  0.17300000000E+03 0. -1.
</event>
<event>
 4    1  0.5956049E+000  0.1000000E+03  0.7546771E-02  0.1280296E+00
         21   -1    0    0  501  502  0.00000000000E+00  0.00000000000E+00  0.27560534936E+03  0.27560534936E+03  0.00000000000E+00 0. -1.
         21   -1    0    0  502  503 -0.00000000000E+00 -0.00000000000E+00 -0.14393561956E+03  0.14393561956E+03  0.00000000000E+00 0. -1.
          6    1    1    2  501    0  0.84576727720E+02 -0.50321235637E+02  0.58025651602E+02  0.20731962250E+03  0.17300000000E+03 0. -1.
         -6    1    1    2    0  503 -0.84576727720E+02  0.50321235637E+02  0.73644078195E+02  0.21222134643E+03  0.17300000000E+03 0. -1.
</event>
<event>
 4    1  0.5956049E+000  0.1000000E+03  0.7546771E-02  0.1280296E+00
         21   -1    0    0  501  502  0.00000000000E+00  0.00000000000E+00  0.35966362178E+02  0.35966362178E+02  0.00000000000E+00 0.  1.
         21   -1    0    0  502  503 -0.00000000000E+00 -0.00000000000E+00 -0.12036613232E+04  0.12036613232E+04  0.00000000000E+00 0.  1.
          6    1    1    2  501    0 -0.10544288944E+03  0.47345294863E+02 -0.57910057977E+03  0.61534239361E+03  0.17300000000E+03 0.  1.
         -6    1    1    2    0  503  0.10544288944E+03 -0.47345294863E+02 -0.58859438122E+03  0.62428529174E+03  0.17300000000E+03 0.  1.
</event>
<event>
 4    1  0.5956049E+000  0.1000000E+03  0.7546771E-02  0.1280296E+00
         21   -1    0    0  501  502  0.00000000000E+00  0.00000000000E+00  0.42217337404E+03  0.42217337404E+03  0.00000000000E+00 0.  1.
         21   -1    0    0  502  503 -0.00000000000E+00 -0.00000000000E+00 -0.79687580409E+02  0.79687580409E+02  0.00000000000E+00 0.  1.
          6    1    1    2  501    0 -0.59157380049E+02 -0.12742606584E+02  0.18101345274E+03  0.25759821372E+03  0.17300000000E+03 0.  1.
         -6    1    1    2    0  503  0.59157380049E+02  0.12742606584E+02  0.16147234088E+03  0.24426274073E+03  0.17300000000E+03 0.  1.
</event>
<event>
 4    1  0.5956049E+000  0.1000000E+03  0.7546771E-02  0.1280296E+00
         21   -1    0    0  501  502  0.00000000000E+00  0.00000000000E+00  0.85515114478E+03  0.85515114478E+03  0.00000000000E+00 0.  1.
         21   -1    0    0  502  503 -0.00000000000E+00 -0.00000000000E+00 -0.16240760255E+03  0.16240760255E+03  0.00000000000E+00 0. -1.
          6    1    1    2  501    0  0.26544225690E+03  0.16491995846E+03  0.49147082557E+03  0.60756131940E+03  0.17300000000E+03 0.  1.
         -6    1    1    2    0  503 -0.26544225690E+03 -0.16491995846E+03  0.20127271666E+03  0.40999742794E+03  0.17300000000E+03 0. -1.
</event>
<event>
 4    1  0.5956049E+000  0.1000000E+03  0.7546771E-02  0.1280296E+00
         21   -1    0    0  503  502  0.00000000000E+00  0.00000000000E+00  0.59661086075E+02  0.59661086075E+02  0.00000000000E+00 0.  1.
         21   -1    0    0  501  503 -0.00000000000E+00 -0.00000000000E+00 -0.57627632653E+03  0.57627632653E+03  0.00000000000E+00 0.  1.
          6    1    1    2  501    0  0.65076922232E+00  0.65586461983E+02 -0.23728673891E+03  0.30089201378E+03  0.17300000000E+03 0.  1.
         -6    1    1    2    0  502 -0.65076922232E+00 -0.65586461983E+02 -0.27932850155E+03  0.33504539882E+03  0.17300000000E+03 0.  1.
</event>
<event>
 4    1  0.5956049E+000  0.1000000E+03  0.7546771E-02  0.1280296E+00
         21   -1    0    0  503  502  0.00000000000E+00  0.00000000000E+00  0.28708413401E+03  0.28708413401E+03  0.00000000000E+00 0.  1.
         21   -1    0    0  501  503 -0.00000000000E+00 -0.00000000000E+00 -0.41896354574E+03  0.41896354574E+03  0.00000000000E+00 0.  1.
          6    1    1    2  501    0  0.56853333466E+02  0.16827679425E+03 -0.31276961815E+03  0.39912806847E+03  0.17300000000E+03 0.  1.
         -6    1    1    2    0  502 -0.56853333466E+02 -0.16827679425E+03  0.18089020642E+03  0.30691961127E+03  0.17300000000E+03 0.  1.
</event>
<event>
 4    1  0.5956049E+000  0.1000000E+03  0.7546771E-02  0.1280296E+00
         21   -1    0    0  503  502  0.00000000000E+00  0.00000000000E+00  0.30231885292E+03  0.30231885292E+03  0.00000000000E+00 0.  1.
         21   -1    0    0  501  503 -0.00000000000E+00 -0.00000000000E+00 -0.22879360316E+03  0.22879360316E+03  0.00000000000E+00 0.  1.
          6    1    1    2  501    0  0.11332667766E+03  0.94086946413E+02 -0.96980151474E+02  0.24704137130E+03  0.17300000000E+03 0.  1.
         -6    1    1    2    0  502 -0.11332667766E+03 -0.94086946413E+02  0.17050540123E+03  0.28407108478E+03  0.17300000000E+03 0.  1.
</event>
<event>
 4    1  0.5956049E+000  0.1000000E+03  0.7546771E-02  0.1280296E+00
         21   -1    0    0  503  502  0.00000000000E+00  0.00000000000E+00  0.19399494284E+03  0.19399494284E+03  0.00000000000E+00 0.  1.
         21   -1    0    0  501  503 -0.00000000000E+00 -0.00000000000E+00 -0.21072024578E+03  0.21072024578E+03  0.00000000000E+00 0.  1.
          6    1    1    2  501    0 -0.22924217189E+02 -0.31331944542E+02  0.88892710350E+02  0.19833840888E+03  0.17300000000E+03 0.  1.
         -6    1    1    2    0  502  0.22924217189E+02  0.31331944542E+02 -0.10561801329E+03  0.20637677974E+03  0.17300000000E+03 0.  1.
</event>
<event>
 4    1  0.5956049E+000  0.1000000E+03  0.7546771E-02  0.1280296E+00
         21   -1    0    0  503  502  0.00000000000E+00  0.00000000000E+00  0.22144709557E+03  0.22144709557E+03  0.00000000000E+00 0.  1.
         21   -1    0    0  501  503 -0.00000000000E+00 -0.00000000000E+00 -0.40806000372E+03  0.40806000372E+03  0.00000000000E+00 0.  1.
          6    1    1    2  501    0  0.19665254679E+03  0.50786302881E+02 -0.23832865561E+03  0.35774435118E+03  0.17300000000E+03 0.  1.
         -6    1    1    2    0  502 -0.19665254679E+03 -0.50786302881E+02  0.51715747460E+02  0.27176274810E+03  0.17300000000E+03 0.  1.
</event>
<event>
 4    1  0.5956049E+000  0.1000000E+03  0.7546771E-02  0.1280296E+00
         21   -1    0    0  503  502  0.00000000000E+00  0.00000000000E+00  0.14604262479E+04  0.14604262479E+04  0.00000000000E+00 0. -1.
         21   -1    0    0  501  503 -0.00000000000E+00 -0.00000000000E+00 -0.25505091193E+02  0.25505091193E+02  0.00000000000E+00 0. -1.
          6    1    1    2  501    0  0.15594725424E+02 -0.78142846162E+02  0.59757756561E+03  0.62719809214E+03  0.17300000000E+03 0. -1.
         -6    1    1    2    0  502 -0.15594725424E+02  0.78142846162E+02  0.83734359111E+03  0.85873324697E+03  0.17300000000E+03 0. -1.
</event>
<event>
 4    1  0.5956049E+000  0.1000000E+03  0.7546771E-02  0.1280296E+00
         21   -1    0    0  503  502  0.00000000000E+00  0.00000000000E+00  0.34603069491E+03  0.34603069491E+03  0.00000000000E+00 0. -1.
         21   -1    0    0  501  503 -0.00000000000E+00 -0.00000000000E+00 -0.13223026009E+03  0.13223026009E+03  0.00000000000E+00 0. -1.
          6    1    1    2  501    0  0.76456383874E+02 -0.70865300916E+01 -0.45054231303E+01  0.18932801267E+03  0.17300000000E+03 0. -1.
         -6    1    1    2    0  502 -0.76456383874E+02  0.70865300916E+01  0.21830585796E+03  0.28893294233E+03  0.17300000000E+03 0. -1.
</event>
<event>
 4    1  0.5956049E+000  0.1000000E+03  0.7546771E-02  0.1280296E+00
         21   -1    0    0  503  502  0.00000000000E+00  0.00000000000E+00  0.73188547121E+02  0.73188547121E+02  0.00000000000E+00 0. -1.
         21   -1    0    0  501  503 -0.00000000000E+00 -0.00000000000E+00 -0.69692034236E+03  0.69692034236E+03  0.00000000000E+00 0. -1.
          6    1    1    2  501    0  0.19307824899E+01 -0.88781935470E+02 -0.50768641520E+03  0.54365472146E+03  0.17300000000E+03 0. -1.
         -6    1    1    2    0  502 -0.19307824899E+01  0.88781935470E+02 -0.11604538004E+03  0.22645416803E+03  0.17300000000E+03 0. -1.
</event>
<event>
 4    1  0.5956049E+000  0.1000000E+03  0.7546771E-02  0.1280296E+00
         21   -1    0    0  503  502  0.00000000000E+00  0.00000000000E+00  0.12807186030E+02  0.12807186030E+02  0.00000000000E+00 0. -1.
         21   -1    0    0  501  503 -0.00000000000E+00 -0.00000000000E+00 -0.28368945954E+04  0.28368945954E+04  0.00000000000E+00 0. -1.
          6    1    1    2  501    0  0.51671212861E+02  0.60155799511E+02 -0.13318806294E+04  0.13454083564E+04  0.17300000000E+03 0. -1.
         -6    1    1    2    0  502 -0.51671212861E+02 -0.60155799511E+02 -0.14922067800E+04  0.15042934250E+04  0.17300000000E+03 0. -1.
</event>
<event>
 4    1  0.5956049E+000  0.1000000E+03  0.7546771E-02  0.1280296E+00
         21   -1    0    0  503  502  0.00000000000E+00  0.00000000000E+00  0.88035133878E+02  0.88035133878E+02  0.00000000000E+00 0. -1.
         21   -1    0    0  501  503 -0.00000000000E+00 -0.00000000000E+00 -0.94046580491E+03  0.94046580491E+03  0.00000000000E+00 0. -1.
          6    1    1    2  501    0 -0.16919017588E+03 -0.50621706252E+02 -0.68934897464E+03  0.73233795586E+03  0.17300000000E+03 0. -1.
         -6    1    1    2    0  502  0.16919017588E+03  0.50621706252E+02 -0.16308169639E+03  0.29616298293E+03  0.17300000000E+03 0. -1.
</event>
<event>
 4    1  0.5956049E+000  0.1000000E+03  0.7546771E-02  0.1280296E+00
         21   -1    0    0  503  502  0.00000000000E+00  0.00000000000E+00  0.32565443492E+04  0.32565443492E+04  0.00000000000E+00 0. -1.
         21   -1    0    0  501  503 -0.00000000000E+00 -0.00000000000E+00 -0.10867970774E+02  0.10867970774E+02  0.00000000000E+00 0. -1.
          6    1    1    2  501    0 -0.45333169670E+02 -0.32750887652E+02  0.12031819707E+04  0.12168416378E+04  0.17300000000E+03 0. -1.
         -6    1    1    2    0  502  0.45333169670E+02  0.32750887652E+02  0.20424944078E+04  0.20505706822E+04  0.17300000000E+03 0. -1.
</event>
<event>
 4    1  0.5956049E+000  0.1000000E+03  0.7546771E-02  0.1280296E+00
         21   -1    0    0  503  502  0.00000000000E+00  0.00000000000E+00  0.24240498555E+04  0.24240498555E+04  0.00000000000E+00 0. -1.
         21   -1    0    0  501  503 -0.00000000000E+00 -0.00000000000E+00 -0.24928010412E+02  0.24928010412E+02  0.00000000000E+00 0. -1.
          6    1    1    2  501    0  0.11025555908E+03  0.11763106297E+03  0.86524426079E+03  0.89697825286E+03  0.17300000000E+03 0. -1.
         -6    1    1    2    0  502 -0.11025555908E+03 -0.11763106297E+03  0.15338775843E+04  0.15519996130E+04  0.17300000000E+03 0. -1.
</event>
<event>
 4    1  0.5956049E+000  0.1000000E+03  0.7546771E-02  0.1280296E+00
         21   -1    0    0  501  502  0.00000000000E+00  0.00000000000E+00  0.69901265731E+02  0.69901265731E+02  0.00000000000E+00 0. -1.
         21   -1    0    0  502  503 -0.00000000000E+00 -0.00000000000E+00 -0.62807927850E+03  0.62807927850E+03  0.00000000000E+00 0. -1.
          6    1    1    2  501    0 -0.23876362903E+02  0.77382547573E+02 -0.13565238115E+03  0.23428339225E+03  0.17300000000E+03 0. -1.
         -6    1    1    2    0  503  0.23876362903E+02 -0.77382547573E+02 -0.42252563162E+03  0.46369715198E+03  0.17300000000E+03 0. -1.
</event>
<event>
 4    1  0.5956049E+000  0.1000000E+03  0.7546771E-02  0.1280296E+00
         21   -1    0    0  501  502  0.00000000000E+00  0.00000000000E+00  0.58931514308E+03  0.58931514308E+03  0.00000000000E+00 0. -1.
         21   -1    0    0  502  503 -0.00000000000E+00 -0.00000000000E+00 -0.74625897627E+02  0.74625897627E+02  0.00000000000E+00 0. -1.
          6    1    1    2  501    0 -0.10921463073E+03  0.41829089449E+02  0.22682664555E+03  0.30831288559E+03  0.17300000000E+03 0. -1.
         -6    1    1    2    0  503  0.10921463073E+03 -0.41829089449E+02  0.28786259989E+03  0.35562815511E+03  0.17300000000E+03 0. -1.
</event>
<event>
 4    1  0.5956049E+000  0.1000000E+03  0.7546771E-02  0.1280296E+00
         21   -1    0    0  501  502  0.00000000000E+00  0.00000000000E+00  0.30045790795E+04  0.30045790795E+04  0.00000000000E+00 0. -1.
         21   -1    0    0  502  503 -0.00000000000E+00 -0.00000000000E+00 -0.66792711218E+02  0.66792711218E+02  0.00000000000E+00 0. -1.
          6    1    1    2  501    0  0.18728546589E+03 -0.21078434878E+03  0.25044175530E+04  0.25261714445E+04  0.17300000000E+03 0. -1.
         -6    1    1    2    0  503 -0.18728546589E+03  0.21078434878E+03  0.43336881534E+03  0.54520034623E+03  0.17300000000E+03 0. -1.
</event>
<event>
 4    1  0.5956049E+000  0.1000000E+03  0.7546771E-02  0.1280296E+00
         21   -1    0    0  501  502  0.00000000000E+00  0.00000000000E+00  0.27251927627E+02  0.27251927627E+02  0.00000000000E+00 0. -1.
         21   -1    0    0  502  503 -0.00000000000E+00 -0.00000000000E+00 -0.15046482187E+04  0.15046482187E+04  0.00000000000E+00 0.  1.
          6    1    1    2  501    0 -0.78667403324E+02  0.69188067873E+02 -0.70086978351E+03  0.72946761581E+03  0.17300000000E+03 0. -1.
         -6    1    1    2    0  503  0.78667403324E+02 -0.69188067873E+02 -0.77652650762E+03  0.80243253057E+03  0.17300000000E+03 0.  1.
</event>
<event>
 4    1  0.5956049E+000  0.1000000E+03  0.7546771E-02  0.1280296E+00
         21   -1    0    0  501  502  0.00000000000E+00  0.00000000000E+00  0.70081981316E+03  0.70081981316E+03  0.00000000000E+00 0. -1.
         21   -1    0    0  502  503 -0.00000000000E+00 -0.00000000000E+00 -0.19993215943E+03  0.19993215943E+03  0.00000000000E+00 0. -1.
          6    1    1    2  501    0 -0.13575390606E+03 -0.20719207061E+03  0.51631602405E+03  0.59822145885E+03  0.17300000000E+03 0. -1.
         -6    1    1    2    0  503  0.13575390606E+03  0.20719207061E+03 -0.15428370322E+02  0.30253051374E+03  0.17300000000E+03 0. -1.
</event>
<event>
 4    1  0.5956049E+000  0.1000000E+03  0.7546771E-02  0.1280296E+00
         21   -1    0    0  501  502  0.00000000000E+00  0.00000000000E+00  0.12239272919E+03  0.12239272919E+03  0.00000000000E+00 0. -1.
         21   -1    0    0  502  503 -0.00000000000E+00 -0.00000000000E+00 -0.75688592924E+03  0.75688592924E+03  0.00000000000E+00 0. -1.
          6    1    1    2  501    0 -0.84358414344E+02  0.77398709971E+02  0.44530729794E+01  0.20749875237E+03  0.17300000000E+03 0. -1.
         -6    1    1    2    0  503  0.84358414344E+02 -0.77398709971E+02 -0.63894627302E+03  0.67177990606E+03  0.17300000000E+03 0. -1.
</event>
<event>
 4    1  0.5956049E+000  0.1000000E+03  0.7546771E-02  0.1280296E+00
         21   -1    0    0  501  502  0.00000000000E+00  0.00000000000E+00  0.28018386112E+03  0.28018386112E+03  0.00000000000E+00 0. -1.
         21   -1    0    0  502  503 -0.00000000000E+00 -0.00000000000E+00 -0.27670633448E+03  0.27670633448E+03  0.00000000000E+00 0. -1.
          6    1    1    2  501    0  0.67631795162E+02 -0.97939919507E+02  0.18459024788E+03  0.27958692237E+03  0.17300000000E+03 0. -1.
         -6    1    1    2    0  503 -0.67631795162E+02  0.97939919507E+02 -0.18111272124E+03  0.27730327323E+03  0.17300000000E+03 0. -1.
</event>
<event>
 4    1  0.5956049E+000  0.1000000E+03  0.7546771E-02  0.1280296E+00
         21   -1    0    0  501  502  0.00000000000E+00  0.00000000000E+00  0.28967671348E+03  0.28967671348E+03  0.00000000000E+00 0. -1.
         21   -1    0    0  502  503 -0.00000000000E+00 -0.00000000000E+00 -0.24305715048E+03  0.24305715048E+03  0.00000000000E+00 0. -1.
          6    1    1    2  501    0 -0.15489954033E+03 -0.98927475074E+01  0.15181551958E+03  0.27761247456E+03  0.17300000000E+03 0. -1.
         -6    1    1    2    0  503  0.15489954033E+03  0.98927475074E+01 -0.10519595658E+03  0.25512138940E+03  0.17300000000E+03 0. -1.
</event>
<event>
 4    1  0.5956049E+000  0.1000000E+03  0.7546771E-02  0.1280296E+00
         21   -1    0    0  501  502  0.00000000000E+00  0.00000000000E+00  0.92594886506E+02  0.92594886506E+02  0.00000000000E+00 0. -1.
         21   -1    0    0  502  503 -0.00000000000E+00 -0.00000000000E+00 -0.47926307828E+03  0.47926307828E+03  0.00000000000E+00 0. -1.
          6    1    1    2  501    0  0.47553611263E+01  0.99688071047E+02 -0.10240488824E+03  0.22444617641E+03  0.17300000000E+03 0. -1.
         -6    1    1    2    0  503 -0.47553611263E+01 -0.99688071047E+02 -0.28426330354E+03  0.34741178838E+03  0.17300000000E+03 0. -1.
</event>
<event>
 4    1  0.5956049E+000  0.1000000E+03  0.7546771E-02  0.1280296E+00
         21   -1    0    0  501  502  0.00000000000E+00  0.00000000000E+00  0.76703952199E+02  0.76703952199E+02  0.00000000000E+00 0. -1.
         21   -1    0    0  502  503 -0.00000000000E+00 -0.00000000000E+00 -0.59411612697E+03  0.59411612697E+03  0.00000000000E+00 0. -1.
          6    1    1    2  501    0 -0.38491354467E+02 -0.10721456743E+03 -0.17758730119E+03  0.27284207407E+03  0.17300000000E+03 0. -1.
         -6    1    1    2    0  503  0.38491354467E+02  0.10721456743E+03 -0.33982487358E+03  0.39797800510E+03  0.17300000000E+03 0. -1.
</event>
<event>
 4    1  0.5956049E+000  0.1000000E+03  0.7546771E-02  0.1280296E+00
         21   -1    0    0  501  502  0.00000000000E+00  0.00000000000E+00  0.65883427793E+03  0.65883427793E+03  0.00000000000E+00 0.  1.
         21   -1    0    0  502  503 -0.00000000000E+00 -0.00000000000E+00 -0.31612991027E+03  0.31612991027E+03  0.00000000000E+00 0.  1.
          6    1    1    2  501    0 -0.15898745973E+03 -0.16193112321E+03  0.55178869922E+03  0.62120726782E+03  0.17300000000E+03 0.  1.
         -6    1    1    2    0  503  0.15898745973E+03  0.16193112321E+03 -0.20908433155E+03  0.35375692038E+03  0.17300000000E+03 0.  1.
</event>
<event>
 4    1  0.5956049E+000  0.1000000E+03  0.7546771E-02  0.1280296E+00
         21   -1    0    0  501  502  0.00000000000E+00  0.00000000000E+00  0.93085805024E+02  0.93085805024E+02  0.00000000000E+00 0.  1.
         21   -1    0    0  502  503 -0.00000000000E+00 -0.00000000000E+00 -0.97078343882E+03  0.97078343882E+03  0.00000000000E+00 0.  1.
          6    1    1    2  501    0  0.52618446090E+02 -0.92469541537E+01 -0.14226996763E+02  0.18161942205E+03  0.17300000000E+03 0.  1.
         -6    1    1    2    0  503 -0.52618446090E+02  0.92469541537E+01 -0.86347063703E+03  0.88224982179E+03  0.17300000000E+03 0.  1.
</event>
<event>
 4    1  0.5956049E+000  0.1000000E+03  0.7546771E-02  0.1280296E+00
         21   -1    0    0  503  502  0.00000000000E+00  0.00000000000E+00  0.16871327926E+03  0.16871327926E+03  0.00000000000E+00 0.  1.
         21   -1    0    0  501  503 -0.00000000000E+00 -0.00000000000E+00 -0.23853978270E+03  0.23853978270E+03  0.00000000000E+00 0.  1.
          6    1    1    2  501    0 -0.20276709712E+02 -0.15082955528E+02 -0.13476459672E+03  0.22074677129E+03  0.17300000000E+03 0.  1.
         -6    1    1    2    0  502  0.20276709712E+02  0.15082955528E+02  0.64938093283E+02  0.18650629068E+03  0.17300000000E+03 0.  1.
</event>
<event>
 4    1  0.5956049E+000  0.1000000E+03  0.7546771E-02  0.1280296E+00
         21   -1    0    0  503  502  0.00000000000E+00  0.00000000000E+00  0.29543654009E+04  0.29543654009E+04  0.00000000000E+00 0.  1.
         21   -1    0    0  501  503 -0.00000000000E+00 -0.00000000000E+00 -0.80767366065E+02  0.80767366065E+02  0.00000000000E+00 0.  1.
          6    1    1    2  501    0 -0.24763502304E+03 -0.33420696792E+03  0.20235429925E+04  0.20730828841E+04  0.17300000000E+03 0.  1.
         -6    1    1    2    0  502  0.24763502304E+03  0.33420696792E+03  0.85005504235E+03  0.96204988284E+03  0.17300000000E+03 0.  1.
</event>
<event>
 4    1  0.5956049E+000  0.1000000E+03  0.7546771E-02  0.1280296E+00
         21   -1    0    0  503  502  0.00000000000E+00  0.00000000000E+00  0.60564255802E+02  0.60564255802E+02  0.00000000000E+00 0.  1.
         21   -1    0    0  501  503 -0.00000000000E+00 -0.00000000000E+00 -0.16347990492E+04  0.16347990492E+04  0.00000000000E+00 0.  1.
          6    1    1    2  501    0 -0.59531430082E+02  0.16843167714E+03 -0.13064887275E+04  0.13299454937E+04  0.17300000000E+03 0.  1.
         -6    1    1    2    0  502  0.59531430082E+02 -0.16843167714E+03 -0.26774606586E+03  0.36541781130E+03  0.17300000000E+03 0.  1.
</event>
<event>
 4    1  0.5956049E+000  0.1000000E+03  0.7546771E-02  0.1280296E+00
         21   -1    0    0  501  502  0.00000000000E+00  0.00000000000E+00  0.49791610703E+03  0.49791610703E+03  0.00000000000E+00 0. -1.
         21   -1    0    0  502  503 -0.00000000000E+00 -0.00000000000E+00 -0.18716453074E+03  0.18716453074E+03  0.00000000000E+00 0. -1.
          6    1    1    2  501    0  0.53525976192E+01  0.59396272991E+02  0.42955419535E+03  0.46690724378E+03  0.17300000000E+03 0. -1.
         -6    1    1    2    0  503 -0.53525976192E+01 -0.59396272991E+02 -0.11880261906E+03  0.21817339398E+03  0.17300000000E+03 0. -1.
</event>
<event>
 4    1  0.5956049E+000  0.1000000E+03  0.7546771E-02  0.1280296E+00
         21   -1    0    0  501  502  0.00000000000E+00  0.00000000000E+00  0.12980303735E+03  0.12980303735E+03  0.00000000000E+00 0.  1.
         21   -1    0    0  502  503 -0.00000000000E+00 -0.00000000000E+00 -0.29249859178E+03  0.29249859178E+03  0.00000000000E+00 0. -1.
          6    1    1    2  501    0 -0.36122727403E+02 -0.45917890582E+02 -0.15504305985E+03  0.23954259437E+03  0.17300000000E+03 0.  1.
         -6    1    1    2    0  503  0.36122727403E+02  0.45917890582E+02 -0.76524945761E+01  0.18275903475E+03  0.17300000000E+03 0. -1.
</event>
<event>
 4    1  0.5956049E+000  0.1000000E+03  0.7546771E-02  0.1280296E+00
         21   -1    0    0  501  502  0.00000000000E+00  0.00000000000E+00  0.18222342247E+03  0.18222342247E+03  0.00000000000E+00 0.  1.
         21   -1    0    0  502  503 -0.00000000000E+00 -0.00000000000E+00 -0.23594107091E+03  0.23594107091E+03  0.00000000000E+00 0.  1.
          6    1    1    2  501    0 -0.95599253509E+02 -0.55564141230E+01  0.36071700648E+02  0.20099815571E+03  0.17300000000E+03 0.  1.
         -6    1    1    2    0  503  0.95599253509E+02  0.55564141230E+01 -0.89789349093E+02  0.21716633768E+03  0.17300000000E+03 0.  1.
</event>
<event>
 4    1  0.5956049E+000  0.1000000E+03  0.7546771E-02  0.1280296E+00
         21   -1    0    0  503  502  0.00000000000E+00  0.00000000000E+00  0.22944644163E+04  0.22944644163E+04  0.00000000000E+00 0. -1.
         21   -1    0    0  501  503 -0.00000000000E+00 -0.00000000000E+00 -0.32655141875E+02  0.32655141875E+02  0.00000000000E+00 0.  1.
          6    1    1    2  501    0  0.12268408098E+02  0.12401343621E+03  0.40120892482E+03  0.45434287444E+03  0.17300000000E+03 0.  1.
         -6    1    1    2    0  502 -0.12268408098E+02 -0.12401343621E+03  0.18606003496E+04  0.18727766838E+04  0.17300000000E+03 0.  1.
</event>
<event>
 4    1  0.5956049E+000  0.1000000E+03  0.7546771E-02  0.1280296E+00
         21   -1    0    0  503  502  0.00000000000E+00  0.00000000000E+00  0.46985411165E+03  0.46985411165E+03  0.00000000000E+00 0. -1.
         21   -1    0    0  501  503 -0.00000000000E+00 -0.00000000000E+00 -0.15229386481E+03  0.15229386481E+03  0.00000000000E+00 0.  1.
          6    1    1    2  501    0 -0.40125088225E+02  0.19104428803E+03  0.89796200579E+02  0.27586282883E+03  0.17300000000E+03 0.  1.
         -6    1    1    2    0  502  0.40125088225E+02 -0.19104428803E+03  0.22776404626E+03  0.34628514762E+03  0.17300000000E+03 0.  1.
</event>
<event>
 4    1  0.5956049E+000  0.1000000E+03  0.7546771E-02  0.1280296E+00
         21   -1    0    0  501  502  0.00000000000E+00  0.00000000000E+00  0.69654025298E+03  0.69654025298E+03  0.00000000000E+00 0. -1.
         21   -1    0    0  502  503 -0.00000000000E+00 -0.00000000000E+00 -0.34358301067E+03  0.34358301067E+03  0.00000000000E+00 0. -1.
          6    1    1    2  501    0  0.61697795228E+02 -0.89666158909E+02  0.64897395202E+03  0.68039902145E+03  0.17300000000E+03 0. -1.
         -6    1    1    2    0  503 -0.61697795228E+02  0.89666158909E+02 -0.29601670972E+03  0.35972424219E+03  0.17300000000E+03 0. -1.
</event>
<event>
 4    1  0.5956049E+000  0.1000000E+03  0.7546771E-02  0.1280296E+00
         21   -1    0    0  501  502  0.00000000000E+00  0.00000000000E+00  0.31093352722E+03  0.31093352722E+03  0.00000000000E+00 0. -1.
         21   -1    0    0  502  503 -0.00000000000E+00 -0.00000000000E+00 -0.33606441500E+03  0.33606441500E+03  0.00000000000E+00 0. -1.
          6    1    1    2  501    0 -0.11356981489E+03  0.24305591903E+03 -0.63499964837E+02  0.32547738502E+03  0.17300000000E+03 0. -1.
         -6    1    1    2    0  503  0.11356981489E+03 -0.24305591903E+03  0.38369077055E+02  0.32152055720E+03  0.17300000000E+03 0. -1.
</event>
<event>
 4    1  0.5956049E+000  0.1000000E+03  0.7546771E-02  0.1280296E+00
         21   -1    0    0  501  502  0.00000000000E+00  0.00000000000E+00  0.10290650384E+03  0.10290650384E+03  0.00000000000E+00 0. -1.
         21   -1    0    0  502  503 -0.00000000000E+00 -0.00000000000E+00 -0.74419222532E+03  0.74419222532E+03  0.00000000000E+00 0. -1.
          6    1    1    2  501    0  0.73790806454E+02  0.49111494153E+02 -0.19179426255E+02  0.19533016246E+03  0.17300000000E+03 0. -1.
         -6    1    1    2    0  503 -0.73790806454E+02 -0.49111494153E+02 -0.62210629522E+03  0.65176856670E+03  0.17300000000E+03 0. -1.
</event>
<event>
 4    1  0.5956049E+000  0.1000000E+03  0.7546771E-02  0.1280296E+00
         21   -1    0    0  501  502  0.00000000000E+00  0.00000000000E+00  0.57967853271E+02  0.57967853271E+02  0.00000000000E+00 0. -1.
         21   -1    0    0  502  503 -0.00000000000E+00 -0.00000000000E+00 -0.11598604520E+04  0.11598604520E+04  0.00000000000E+00 0. -1.
          6    1    1    2  501    0  0.14790424510E+02 -0.15503687380E+03 -0.28267635035E+03  0.36618316174E+03  0.17300000000E+03 0. -1.
         -6    1    1    2    0  503 -0.14790424510E+02  0.15503687380E+03 -0.81921624838E+03  0.85164514353E+03  0.17300000000E+03 0. -1.
</event>
<event>
 4    1  0.5956049E+000  0.1000000E+03  0.7546771E-02  0.1280296E+00
         21   -1    0    0  501  502  0.00000000000E+00  0.00000000000E+00  0.48802991651E+02  0.48802991651E+02  0.00000000000E+00 0. -1.
         21   -1    0    0  502  503 -0.00000000000E+00 -0.00000000000E+00 -0.64607303779E+03  0.64607303779E+03  0.00000000000E+00 0. -1.
          6    1    1    2  501    0  0.12588573360E+01  0.72552522250E+01 -0.22167436016E+03  0.28128765589E+03  0.17300000000E+03 0. -1.
         -6    1    1    2    0  503 -0.12588573360E+01 -0.72552522250E+01 -0.37559568598E+03  0.41358837355E+03  0.17300000000E+03 0. -1.
</event>
<event>
 4    1  0.5956049E+000  0.1000000E+03  0.7546771E-02  0.1280296E+00
         21   -1    0    0  501  502  0.00000000000E+00  0.00000000000E+00  0.12158655911E+04  0.12158655911E+04  0.00000000000E+00 0. -1.
         21   -1    0    0  502  503 -0.00000000000E+00 -0.00000000000E+00 -0.43020638592E+02  0.43020638592E+02  0.00000000000E+00 0. -1.
          6    1    1    2  501    0  0.12184519354E+03  0.57187313106E+02  0.76608826971E+03  0.79682926462E+03  0.17300000000E+03 0. -1.
         -6    1    1    2    0  503 -0.12184519354E+03 -0.57187313106E+02  0.40675668277E+03  0.46205696505E+03  0.17300000000E+03 0. -1.
</event>
<event>
 4    1  0.5956049E+000  0.1000000E+03  0.7546771E-02  0.1280296E+00
         21   -1    0    0  501  502  0.00000000000E+00  0.00000000000E+00  0.12239285069E+03  0.12239285069E+03  0.00000000000E+00 0. -1.
         21   -1    0    0  502  503 -0.00000000000E+00 -0.00000000000E+00 -0.40721301790E+03  0.40721301790E+03  0.00000000000E+00 0. -1.
          6    1    1    2  501    0 -0.10589891904E+03  0.60941102237E+02 -0.58684083203E+02  0.21977538674E+03  0.17300000000E+03 0. -1.
         -6    1    1    2    0  503  0.10589891904E+03 -0.60941102237E+02 -0.22613608400E+03  0.30983048185E+03  0.17300000000E+03 0. -1.
</event>
<event>
 4    1  0.5956049E+000  0.1000000E+03  0.7546771E-02  0.1280296E+00
         21   -1    0    0  501  502  0.00000000000E+00  0.00000000000E+00  0.45690619182E+03  0.45690619182E+03  0.00000000000E+00 0. -1.
         21   -1    0    0  502  503 -0.00000000000E+00 -0.00000000000E+00 -0.12312736976E+03  0.12312736976E+03  0.00000000000E+00 0. -1.
          6    1    1    2  501    0 -0.25413210611E+02 -0.79514469071E+01  0.36260187482E+03  0.40263901501E+03  0.17300000000E+03 0. -1.
         -6    1    1    2    0  503  0.25413210611E+02  0.79514469071E+01 -0.28823052769E+02  0.17739454657E+03  0.17300000000E+03 0. -1.
</event>
<event>
 4    1  0.5956049E+000  0.1000000E+03  0.7546771E-02  0.1280296E+00
         21   -1    0    0  501  502  0.00000000000E+00  0.00000000000E+00  0.18265587982E+03  0.18265587982E+03  0.00000000000E+00 0. -1.
         21   -1    0    0  502  503 -0.00000000000E+00 -0.00000000000E+00 -0.17937254979E+03  0.17937254979E+03  0.00000000000E+00 0. -1.
          6    1    1    2  501    0 -0.25841482555E+01 -0.25927470931E+02  0.48071360641E+02  0.18143529779E+03  0.17300000000E+03 0. -1.
         -6    1    1    2    0  503  0.25841482555E+01  0.25927470931E+02 -0.44788030611E+02  0.18059313181E+03  0.17300000000E+03 0. -1.
</event>
<event>
 4    1  0.5956049E+000  0.1000000E+03  0.7546771E-02  0.1280296E+00
         21   -1    0    0  501  502  0.00000000000E+00  0.00000000000E+00  0.56615725606E+03  0.56615725606E+03  0.00000000000E+00 0. -1.
         21   -1    0    0  502  503 -0.00000000000E+00 -0.00000000000E+00 -0.62870978299E+02  0.62870978299E+02  0.00000000000E+00 0. -1.
          6    1    1    2  501    0  0.37844831566E+02 -0.60398850830E+02  0.29198445233E+03  0.34679125257E+03  0.17300000000E+03 0.  1.
         -6    1    1    2    0  503 -0.37844831566E+02  0.60398850830E+02  0.21130182543E+03  0.28223698179E+03  0.17300000000E+03 0.  1.
</event>
<event>
 4    1  0.5956049E+000  0.1000000E+03  0.7546771E-02  0.1280296E+00
         21   -1    0    0  503  502  0.00000000000E+00  0.00000000000E+00  0.97859160837E+03  0.97859160837E+03  0.00000000000E+00 0.  1.
         21   -1    0    0  501  503 -0.00000000000E+00 -0.00000000000E+00 -0.67746998637E+02  0.67746998637E+02  0.00000000000E+00 0.  1.
          6    1    1    2  501    0 -0.24768801192E+02  0.15198333746E+03  0.22684597169E+03  0.32419210856E+03  0.17300000000E+03 0.  1.
         -6    1    1    2    0  502  0.24768801192E+02 -0.15198333746E+03  0.68399863804E+03  0.72214649845E+03  0.17300000000E+03 0.  1.
</event>
<event>
 4    1  0.5956049E+000  0.1000000E+03  0.7546771E-02  0.1280296E+00
         21   -1    0    0  503  502  0.00000000000E+00  0.00000000000E+00  0.17188877064E+03  0.17188877064E+03  0.00000000000E+00 0.  1.
         21   -1    0    0  501  503 -0.00000000000E+00 -0.00000000000E+00 -0.27236972074E+03  0.27236972074E+03  0.00000000000E+00 0.  1.
          6    1    1    2  501    0 -0.64095907517E+02  0.10685483838E+03 -0.88128314173E+02  0.23069859472E+03  0.17300000000E+03 0.  1.
         -6    1    1    2    0  502  0.64095907517E+02 -0.10685483838E+03 -0.12352635933E+02  0.21355989666E+03  0.17300000000E+03 0.  1.
</event>
<event>
 4    1  0.5956049E+000  0.1000000E+03  0.7546771E-02  0.1280296E+00
         21   -1    0    0  501  502  0.00000000000E+00  0.00000000000E+00  0.45122815017E+03  0.45122815017E+03  0.00000000000E+00 0.  1.
         21   -1    0    0  502  503 -0.00000000000E+00 -0.00000000000E+00 -0.96288178502E+02  0.96288178502E+02  0.00000000000E+00 0.  1.
          6    1    1    2  501    0  0.10055381418E+03  0.14091831687E+01  0.25411735582E+03  0.32344657344E+03  0.17300000000E+03 0.  1.
         -6    1    1    2    0  503 -0.10055381418E+03 -0.14091831687E+01  0.10082261585E+03  0.22406975523E+03  0.17300000000E+03 0.  1.
</event>
<event>
 4    1  0.5956049E+000  0.1000000E+03  0.7546771E-02  0.1280296E+00
         21   -1    0    0  501  502  0.00000000000E+00  0.00000000000E+00  0.46440037428E+03  0.46440037428E+03  0.00000000000E+00 0.  1.
         21   -1    0    0  502  503 -0.00000000000E+00 -0.00000000000E+00 -0.12779884494E+03  0.12779884494E+03  0.00000000000E+00 0.  1.
          6    1    1    2  501    0  0.11051189186E+03  0.10292405066E+03  0.69450086639E+02  0.23991363651E+03  0.17300000000E+03 0.  1.
         -6    1    1    2    0  503 -0.11051189186E+03 -0.10292405066E+03  0.26715144271E+03  0.35228558271E+03  0.17300000000E+03 0.  1.
</event>
<event>
 4    1  0.5956049E+000  0.1000000E+03  0.7546771E-02  0.1280296E+00
         21   -1    0    0  501  502  0.00000000000E+00  0.00000000000E+00  0.11230219952E+04  0.11230219952E+04  0.00000000000E+00 0.  1.
         21   -1    0    0  502  503 -0.00000000000E+00 -0.00000000000E+00 -0.61550471160E+02  0.61550471160E+02  0.00000000000E+00 0.  1.
          6    1    1    2  501    0  0.60390433908E+02  0.10923726952E+03  0.87691759455E+03  0.90249279952E+03  0.17300000000E+03 0.  1.
         -6    1    1    2    0  503 -0.60390433908E+02 -0.10923726952E+03  0.18455392952E+03  0.28207966687E+03  0.17300000000E+03 0.  1.
</event>
<event>
 4    1  0.5956049E+000  0.1000000E+03  0.7546771E-02  0.1280296E+00
         21   -1    0    0  503  502  0.00000000000E+00  0.00000000000E+00  0.14163656067E+03  0.14163656067E+03  0.00000000000E+00 0. -1.
         21   -1    0    0  501  503 -0.00000000000E+00 -0.00000000000E+00 -0.79904688733E+03  0.79904688733E+03  0.00000000000E+00 0. -1.
          6    1    1    2  501    0 -0.11396845987E+02  0.23739838868E+03 -0.55740265411E+03  0.63017029591E+03  0.17300000000E+03 0. -1.
         -6    1    1    2    0  502  0.11396845987E+02 -0.23739838868E+03 -0.10000767256E+03  0.31051315208E+03  0.17300000000E+03 0. -1.
</event>
<event>
 4    1  0.5956049E+000  0.1000000E+03  0.7546771E-02  0.1280296E+00
         21   -1    0    0  503  502  0.00000000000E+00  0.00000000000E+00  0.61089818778E+02  0.61089818778E+02  0.00000000000E+00 0. -1.
         21   -1    0    0  501  503 -0.00000000000E+00 -0.00000000000E+00 -0.69596983880E+03  0.69596983880E+03  0.00000000000E+00 0. -1.
          6    1    1    2  501    0 -0.81509744868E+02  0.49163013774E+02 -0.42646167208E+03  0.46995680459E+03  0.17300000000E+03 0. -1.
         -6    1    1    2    0  502  0.81509744868E+02 -0.49163013774E+02 -0.20841834794E+03  0.28710285298E+03  0.17300000000E+03 0. -1.
</event>
<event>
 4    1  0.5956049E+000  0.1000000E+03  0.7546771E-02  0.1280296E+00
         21   -1    0    0  503  502  0.00000000000E+00  0.00000000000E+00  0.70791658384E+03  0.70791658384E+03  0.00000000000E+00 0. -1.
         21   -1    0    0  501  503 -0.00000000000E+00 -0.00000000000E+00 -0.58449229851E+02  0.58449229851E+02  0.00000000000E+00 0.  1.
          6    1    1    2  501    0 -0.16927569143E+02 -0.54852248865E+02  0.15464285681E+03  0.23903707864E+03  0.17300000000E+03 0.  1.
         -6    1    1    2    0  502  0.16927569143E+02  0.54852248865E+02  0.49482449717E+03  0.52732873505E+03  0.17300000000E+03 0. -1.
</event>
<event>
 4    1  0.5956049E+000  0.1000000E+03  0.7546771E-02  0.1280296E+00
         21   -1    0    0  503  502  0.00000000000E+00  0.00000000000E+00  0.25695816475E+03  0.25695816475E+03  0.00000000000E+00 0. -1.
         21   -1    0    0  501  503 -0.00000000000E+00 -0.00000000000E+00 -0.29953511974E+03  0.29953511974E+03  0.00000000000E+00 0.  1.
          6    1    1    2  501    0  0.19838080338E+02 -0.17739477924E+03 -0.14484372536E+03  0.28769977739E+03  0.17300000000E+03 0.  1.
         -6    1    1    2    0  502 -0.19838080338E+02  0.17739477924E+03  0.10226677038E+03  0.26879350710E+03  0.17300000000E+03 0. -1.
</event>
<event>
 4    1  0.5956049E+000  0.1000000E+03  0.7546771E-02  0.1280296E+00
         21   -1    0    0  503  502  0.00000000000E+00  0.00000000000E+00  0.46337679416E+03  0.46337679416E+03  0.00000000000E+00 0. -1.
         21   -1    0    0  501  503 -0.00000000000E+00 -0.00000000000E+00 -0.24156045972E+03  0.24156045972E+03  0.00000000000E+00 0.  1.
          6    1    1    2  501    0  0.11038396700E+03  0.78451865122E+02 -0.15491415231E+03  0.26882468245E+03  0.17300000000E+03 0.  1.
         -6    1    1    2    0  502 -0.11038396700E+03 -0.78451865122E+02  0.37673048674E+03  0.43611257142E+03  0.17300000000E+03 0. -1.
</event>
<event>
 4    1  0.5956049E+000  0.1000000E+03  0.7546771E-02  0.1280296E+00
         21   -1    0    0  503  502  0.00000000000E+00  0.00000000000E+00  0.38877239248E+03  0.38877239248E+03  0.00000000000E+00 0.  1.
         21   -1    0    0  501  503 -0.00000000000E+00 -0.00000000000E+00 -0.37795058949E+03  0.37795058949E+03  0.00000000000E+00 0. -1.
          6    1    1    2  501    0  0.17790752585E+03 -0.17656604639E+03 -0.22738062384E+03  0.38007578796E+03  0.17300000000E+03 0. -1.
         -6    1    1    2    0  502 -0.17790752585E+03  0.17656604639E+03  0.23820242682E+03  0.38664719401E+03  0.17300000000E+03 0.  1.
</event>
<event>
 4    1  0.5956049E+000  0.1000000E+03  0.7546771E-02  0.1280296E+00
         21   -1    0    0  503  502  0.00000000000E+00  0.00000000000E+00  0.92308042580E+02  0.92308042580E+02  0.00000000000E+00 0.  1.
         21   -1    0    0  501  503 -0.00000000000E+00 -0.00000000000E+00 -0.87748590012E+03  0.87748590012E+03  0.00000000000E+00 0. -1.
          6    1    1    2  501    0  0.10780617086E+03 -0.10462714061E+03 -0.68022255203E+03  0.71777484584E+03  0.17300000000E+03 0. -1.
         -6    1    1    2    0  502 -0.10780617086E+03  0.10462714061E+03 -0.10495530551E+03  0.25201909686E+03  0.17300000000E+03 0.  1.
</event>
<event>
 4    1  0.5956049E+000  0.1000000E+03  0.7546771E-02  0.1280296E+00
         21   -1    0    0  503  502  0.00000000000E+00  0.00000000000E+00  0.99274786816E+03  0.99274786816E+03  0.00000000000E+00 0.  1.
         21   -1    0    0  501  503 -0.00000000000E+00 -0.00000000000E+00 -0.73120818129E+02  0.73120818129E+02  0.00000000000E+00 0. -1.
          6    1    1    2  501    0 -0.27238804918E+02  0.19223516428E+03  0.32043264858E+03  0.41267710520E+03  0.17300000000E+03 0. -1.
         -6    1    1    2    0  502  0.27238804918E+02 -0.19223516428E+03  0.59919440145E+03  0.65319158109E+03  0.17300000000E+03 0.  1.
</event>
<event>
 4    1  0.5956049E+000  0.1000000E+03  0.7546771E-02  0.1280296E+00
         21   -1    0    0  503  502  0.00000000000E+00  0.00000000000E+00  0.66693266921E+03  0.66693266921E+03  0.00000000000E+00 0. -1.
         21   -1    0    0  501  503 -0.00000000000E+00 -0.00000000000E+00 -0.16375507422E+03  0.16375507422E+03  0.00000000000E+00 0.  1.
          6    1    1    2  501    0  0.79297728178E+02 -0.59298198678E+02 -0.79694825013E+02  0.21467340589E+03  0.17300000000E+03 0.  1.
         -6    1    1    2    0  502 -0.79297728178E+02  0.59298198678E+02  0.58287242000E+03  0.61601433754E+03  0.17300000000E+03 0. -1.
</event>
<event>
 4    1  0.5956049E+000  0.1000000E+03  0.7546771E-02  0.1280296E+00
         21   -1    0    0  503  502  0.00000000000E+00  0.00000000000E+00  0.29197616033E+04  0.29197616033E+04  0.00000000000E+00 0. -1.
         21   -1    0    0  501  503 -0.00000000000E+00 -0.00000000000E+00 -0.98520209670E+02  0.98520209670E+02  0.00000000000E+00 0.  1.
          6    1    1    2  501    0  0.16094287888E+03 -0.20291291267E+03  0.18201609540E+03  0.36074245575E+03  0.17300000000E+03 0.  1.
         -6    1    1    2    0  502 -0.16094287888E+03  0.20291291267E+03  0.26392252982E+04  0.26575393572E+04  0.17300000000E+03 0. -1.
</event>
<event>
 4    1  0.5956049E+000  0.1000000E+03  0.7546771E-02  0.1280296E+00
         21   -1    0    0  503  502  0.00000000000E+00  0.00000000000E+00  0.22009208062E+03  0.22009208062E+03  0.00000000000E+00 0. -1.
         21   -1    0    0  501  503 -0.00000000000E+00 -0.00000000000E+00 -0.42419460020E+03  0.42419460020E+03  0.00000000000E+00 0.  1.
          6    1    1    2  501    0 -0.40396206096E+02  0.12112763401E+03 -0.33093188118E+03  0.39465005660E+03  0.17300000000E+03 0.  1.
         -6    1    1    2    0  502  0.40396206096E+02 -0.12112763401E+03  0.12682936161E+03  0.24963662423E+03  0.17300000000E+03 0. -1.
</event>
<event>
 4    1  0.5956049E+000  0.1000000E+03  0.7546771E-02  0.1280296E+00
         21   -1    0    0  501  502  0.00000000000E+00  0.00000000000E+00  0.44456108542E+03  0.44456108542E+03  0.00000000000E+00 0. -1.
         21   -1    0    0  502  503 -0.00000000000E+00 -0.00000000000E+00 -0.90076531095E+02  0.90076531095E+02  0.00000000000E+00 0. -1.
          6    1    1    2  501    0  0.71686093157E+00 -0.96909017467E+02  0.21317763009E+03  0.29114527907E+03  0.17300000000E+03 0. -1.
         -6    1    1    2    0  503 -0.71686093157E+00  0.96909017467E+02  0.14130692424E+03  0.24349233744E+03  0.17300000000E+03 0. -1.
</event>
<event>
 4    1  0.5956049E+000  0.1000000E+03  0.7546771E-02  0.1280296E+00
         21   -1    0    0  501  502  0.00000000000E+00  0.00000000000E+00  0.11124384250E+03  0.11124384250E+03  0.00000000000E+00 0. -1.
         21   -1    0    0  502  503 -0.00000000000E+00 -0.00000000000E+00 -0.60699533509E+03  0.60699533509E+03  0.00000000000E+00 0. -1.
          6    1    1    2  501    0 -0.13813722593E+03  0.55440162048E+02 -0.76151382261E+02  0.24058997854E+03  0.17300000000E+03 0. -1.
         -6    1    1    2    0  503  0.13813722593E+03 -0.55440162048E+02 -0.41960011033E+03  0.47764919904E+03  0.17300000000E+03 0. -1.
</event>
<event>
 4    1  0.5956049E+000  0.1000000E+03  0.7546771E-02  0.1280296E+00
         21   -1    0    0  501  502  0.00000000000E+00  0.00000000000E+00  0.57475504434E+03  0.57475504434E+03  0.00000000000E+00 0. -1.
         21   -1    0    0  502  503 -0.00000000000E+00 -0.00000000000E+00 -0.21336735434E+03  0.21336735434E+03  0.00000000000E+00 0. -1.
          6    1    1    2  501    0 -0.21135388850E+03 -0.28280505517E+02  0.42525581255E+03  0.50620327862E+03  0.17300000000E+03 0. -1.
         -6    1    1    2    0  503  0.21135388850E+03  0.28280505517E+02 -0.63868122549E+02  0.28191912006E+03  0.17300000000E+03 0. -1.
</event>
<event>
 4    1  0.5956049E+000  0.1000000E+03  0.7546771E-02  0.1280296E+00
         21   -1    0    0  503  502  0.00000000000E+00  0.00000000000E+00  0.65082755204E+02  0.65082755204E+02  0.00000000000E+00 0. -1.
         21   -1    0    0  501  503 -0.00000000000E+00 -0.00000000000E+00 -0.55845272001E+03  0.55845272001E+03  0.00000000000E+00 0. -1.
          6    1    1    2  501    0  0.14995778088E+02  0.59222286986E+02 -0.33141471156E+03  0.37880979881E+03  0.17300000000E+03 0.  1.
         -6    1    1    2    0  502 -0.14995778088E+02 -0.59222286986E+02 -0.16195525324E+03  0.24472567640E+03  0.17300000000E+03 0.  1.
</event>
<event>
 4    1  0.5956049E+000  0.1000000E+03  0.7546771E-02  0.1280296E+00
         21   -1    0    0  503  502  0.00000000000E+00  0.00000000000E+00  0.67841870303E+02  0.67841870303E+02  0.00000000000E+00 0. -1.
         21   -1    0    0  501  503 -0.00000000000E+00 -0.00000000000E+00 -0.12519445062E+04  0.12519445062E+04  0.00000000000E+00 0. -1.
          6    1    1    2  501    0 -0.15906196396E+03 -0.70776878034E+02 -0.94787783962E+03  0.97913812799E+03  0.17300000000E+03 0.  1.
         -6    1    1    2    0  502  0.15906196396E+03  0.70776878034E+02 -0.23622479630E+03  0.34064824854E+03  0.17300000000E+03 0.  1.
</event>
<event>
 4    1  0.5956049E+000  0.1000000E+03  0.7546771E-02  0.1280296E+00
         21   -1    0    0  503  502  0.00000000000E+00  0.00000000000E+00  0.21280151715E+03  0.21280151715E+03  0.00000000000E+00 0. -1.
         21   -1    0    0  501  503 -0.00000000000E+00 -0.00000000000E+00 -0.72494106609E+03  0.72494106609E+03  0.00000000000E+00 0. -1.
          6    1    1    2  501    0 -0.89386193187E+02  0.32275557182E+02 -0.66143320561E+03  0.69025682800E+03  0.17300000000E+03 0.  1.
         -6    1    1    2    0  502  0.89386193187E+02 -0.32275557182E+02  0.14929365667E+03  0.24748575524E+03  0.17300000000E+03 0.  1.
</event>
<event>
 4    1  0.5956049E+000  0.1000000E+03  0.7546771E-02  0.1280296E+00
         21   -1    0    0  503  502  0.00000000000E+00  0.00000000000E+00  0.39616212357E+03  0.39616212357E+03  0.00000000000E+00 0.  1.
         21   -1    0    0  501  503 -0.00000000000E+00 -0.00000000000E+00 -0.34879296443E+03  0.34879296443E+03  0.00000000000E+00 0. -1.
          6    1    1    2  501    0 -0.20190476077E+03 -0.93794238841E+02 -0.21905997403E+03  0.35704224383E+03  0.17300000000E+03 0. -1.
         -6    1    1    2    0  502  0.20190476077E+03  0.93794238841E+02  0.26642913317E+03  0.38791284416E+03  0.17300000000E+03 0.  1.
</event>
<event>
 4    1  0.5956049E+000  0.1000000E+03  0.7546771E-02  0.1280296E+00
         21   -1    0    0  503  502  0.00000000000E+00  0.00000000000E+00  0.13900280844E+03  0.13900280844E+03  0.00000000000E+00 0.  1.
         21   -1    0    0  501  503 -0.00000000000E+00 -0.00000000000E+00 -0.35338440585E+03  0.35338440585E+03  0.00000000000E+00 0. -1.
          6    1    1    2  501    0 -0.40254658236E+02 -0.22123712422E+02 -0.25237433590E+03  0.30940540005E+03  0.17300000000E+03 0. -1.
         -6    1    1    2    0  502  0.40254658236E+02  0.22123712422E+02  0.37992738490E+02  0.18298181423E+03  0.17300000000E+03 0.  1.
</event>
<event>
 4    1  0.5956049E+000  0.1000000E+03  0.7546771E-02  0.1280296E+00
         21   -1    0    0  503  502  0.00000000000E+00  0.00000000000E+00  0.23828824461E+03  0.23828824461E+03  0.00000000000E+00 0. -1.
         21   -1    0    0  501  503 -0.00000000000E+00 -0.00000000000E+00 -0.21062036213E+03  0.21062036213E+03  0.00000000000E+00 0. -1.
          6    1    1    2  501    0  0.10812667807E+03 -0.90948678306E+02 -0.34126724571E+01  0.22339133137E+03  0.17300000000E+03 0. -1.
         -6    1    1    2    0  502 -0.10812667807E+03  0.90948678306E+02  0.31080554933E+02  0.22551727537E+03  0.17300000000E+03 0. -1.
</event>
<event>
 4    1  0.5956049E+000  0.1000000E+03  0.7546771E-02  0.1280296E+00
         21   -1    0    0  503  502  0.00000000000E+00  0.00000000000E+00  0.37824713080E+02  0.37824713080E+02  0.00000000000E+00 0. -1.
         21   -1    0    0  501  503 -0.00000000000E+00 -0.00000000000E+00 -0.10754419682E+04  0.10754419682E+04  0.00000000000E+00 0. -1.
          6    1    1    2  501    0 -0.72464332318E+02 -0.26608176980E+01 -0.72332051101E+03  0.74724809873E+03  0.17300000000E+03 0. -1.
         -6    1    1    2    0  502  0.72464332318E+02  0.26608176980E+01 -0.31429674407E+03  0.36601858251E+03  0.17300000000E+03 0. -1.
</event>
<event>
 4    1  0.5956049E+000  0.1000000E+03  0.7546771E-02  0.1280296E+00
         21   -1    0    0  503  502  0.00000000000E+00  0.00000000000E+00  0.32770064066E+03  0.32770064066E+03  0.00000000000E+00 0. -1.
         21   -1    0    0  501  503 -0.00000000000E+00 -0.00000000000E+00 -0.21891568773E+03  0.21891568773E+03  0.00000000000E+00 0. -1.
          6    1    1    2  501    0 -0.17396551806E+02 -0.13963426806E+03  0.20577649738E+03  0.30343588401E+03  0.17300000000E+03 0. -1.
         -6    1    1    2    0  502  0.17396551806E+02  0.13963426806E+03 -0.96991544447E+02  0.24318044438E+03  0.17300000000E+03 0. -1.
</event>
<event>
 4    1  0.5956049E+000  0.1000000E+03  0.7546771E-02  0.1280296E+00
         21   -1    0    0  503  502  0.00000000000E+00  0.00000000000E+00  0.14742367143E+03  0.14742367143E+03  0.00000000000E+00 0. -1.
         21   -1    0    0  501  503 -0.00000000000E+00 -0.00000000000E+00 -0.35032011021E+03  0.35032011021E+03  0.00000000000E+00 0. -1.
          6    1    1    2  501    0 -0.82543305899E+02  0.15241393653E+02 -0.23409181777E+03  0.30294170491E+03  0.17300000000E+03 0. -1.
         -6    1    1    2    0  502  0.82543305899E+02 -0.15241393653E+02  0.31195378988E+02  0.19480207673E+03  0.17300000000E+03 0. -1.
</event>
<event>
 4    1  0.5956049E+000  0.1000000E+03  0.7546771E-02  0.1280296E+00
         21   -1    0    0  503  502  0.00000000000E+00  0.00000000000E+00  0.32128569739E+03  0.32128569739E+03  0.00000000000E+00 0. -1.
         21   -1    0    0  501  503 -0.00000000000E+00 -0.00000000000E+00 -0.99074837127E+02  0.99074837127E+02  0.00000000000E+00 0.  1.
          6    1    1    2  501    0  0.39017146083E+02  0.64196393519E+01  0.89422268986E+02  0.19871812109E+03  0.17300000000E+03 0. -1.
         -6    1    1    2    0  502 -0.39017146083E+02 -0.64196393519E+01  0.13278859128E+03  0.22164241343E+03  0.17300000000E+03 0.  1.
</event>
<event>
 4    1  0.5956049E+000  0.1000000E+03  0.7546771E-02  0.1280296E+00
         21   -1    0    0  501  502  0.00000000000E+00  0.00000000000E+00  0.64799985260E+03  0.64799985260E+03  0.00000000000E+00 0. -1.
         21   -1    0    0  502  503 -0.00000000000E+00 -0.00000000000E+00 -0.76555560733E+02  0.76555560733E+02  0.00000000000E+00 0. -1.
          6    1    1    2  501    0 -0.57017115942E+02  0.12639419812E+03  0.25112042117E+03  0.33498792628E+03  0.17300000000E+03 0. -1.
         -6    1    1    2    0  503  0.57017115942E+02 -0.12639419812E+03  0.32032387070E+03  0.38956748705E+03  0.17300000000E+03 0. -1.
</event>
<event>
 4    1  0.5956049E+000  0.1000000E+03  0.7546771E-02  0.1280296E+00
         21   -1    0    0  501  502  0.00000000000E+00  0.00000000000E+00  0.97138478795E+02  0.97138478795E+02  0.00000000000E+00 0. -1.
         21   -1    0    0  502  503 -0.00000000000E+00 -0.00000000000E+00 -0.42530353787E+03  0.42530353787E+03  0.00000000000E+00 0.  1.
          6    1    1    2  501    0  0.83063318570E+02 -0.61016772379E+01 -0.78373714602E+02  0.20738414717E+03  0.17300000000E+03 0.  1.
         -6    1    1    2    0  503 -0.83063318570E+02  0.61016772379E+01 -0.24979134447E+03  0.31505786949E+03  0.17300000000E+03 0. -1.
</event>
<event>
 4    1  0.5956049E+000  0.1000000E+03  0.7546771E-02  0.1280296E+00
         21   -1    0    0  501  502  0.00000000000E+00  0.00000000000E+00  0.19381927501E+03  0.19381927501E+03  0.00000000000E+00 0. -1.
         21   -1    0    0  502  503 -0.00000000000E+00 -0.00000000000E+00 -0.52843087585E+03  0.52843087585E+03  0.00000000000E+00 0.  1.
          6    1    1    2  501    0  0.17063338509E+03 -0.19954696699E+03 -0.10001324515E+03  0.32994907690E+03  0.17300000000E+03 0.  1.
         -6    1    1    2    0  503 -0.17063338509E+03  0.19954696699E+03 -0.23459835569E+03  0.39230107396E+03  0.17300000000E+03 0. -1.
</event>
<event>
 4    1  0.5956049E+000  0.1000000E+03  0.7546771E-02  0.1280296E+00
         21   -1    0    0  503  502  0.00000000000E+00  0.00000000000E+00  0.17146049616E+03  0.17146049616E+03  0.00000000000E+00 0.  1.
         21   -1    0    0  501  503 -0.00000000000E+00 -0.00000000000E+00 -0.38253475046E+03  0.38253475046E+03  0.00000000000E+00 0. -1.
          6    1    1    2  501    0  0.11568826885E+03 -0.12355772213E+03 -0.19609521154E+03  0.31150059107E+03  0.17300000000E+03 0.  1.
         -6    1    1    2    0  502 -0.11568826885E+03  0.12355772213E+03 -0.14979042767E+02  0.24249465555E+03  0.17300000000E+03 0. -1.
</event>
<event>
 4    1  0.5956049E+000  0.1000000E+03  0.7546771E-02  0.1280296E+00
         21   -1    0    0  503  502  0.00000000000E+00  0.00000000000E+00  0.86606535597E+02  0.86606535597E+02  0.00000000000E+00 0.  1.
         21   -1    0    0  501  503 -0.00000000000E+00 -0.00000000000E+00 -0.68402331915E+03  0.68402331915E+03  0.00000000000E+00 0. -1.
          6    1    1    2  501    0 -0.35877253858E+02 -0.72176676330E+02 -0.53782930900E+03  0.57068907083E+03  0.17300000000E+03 0. -1.
         -6    1    1    2    0  502  0.35877253858E+02  0.72176676330E+02 -0.59587474561E+02  0.19994078392E+03  0.17300000000E+03 0.  1.
</event>
<event>
 4    1  0.5956049E+000  0.1000000E+03  0.7546771E-02  0.1280296E+00
         21   -1    0    0  503  502  0.00000000000E+00  0.00000000000E+00  0.62694380353E+03  0.62694380353E+03  0.00000000000E+00 0.  1.
         21   -1    0    0  501  503 -0.00000000000E+00 -0.00000000000E+00 -0.85801902093E+02  0.85801902093E+02  0.00000000000E+00 0. -1.
          6    1    1    2  501    0  0.67273176346E+02 -0.64270632358E+02  0.46005464888E+03  0.50023561888E+03  0.17300000000E+03 0. -1.
         -6    1    1    2    0  502 -0.67273176346E+02  0.64270632358E+02  0.81087252551E+02  0.21251008674E+03  0.17300000000E+03 0.  1.
</event>
<event>
 4    1  0.5956049E+000  0.1000000E+03  0.7546771E-02  0.1280296E+00
         21   -1    0    0  503  502  0.00000000000E+00  0.00000000000E+00  0.31198874038E+03  0.31198874038E+03  0.00000000000E+00 0.  1.
         21   -1    0    0  501  503 -0.00000000000E+00 -0.00000000000E+00 -0.14563828958E+03  0.14563828958E+03  0.00000000000E+00 0. -1.
          6    1    1    2  501    0  0.48666178880E+02  0.80747342647E+02 -0.41626537610E+01  0.19706561851E+03  0.17300000000E+03 0. -1.
         -6    1    1    2    0  502 -0.48666178880E+02 -0.80747342647E+02  0.17051310456E+03  0.26056141145E+03  0.17300000000E+03 0.  1.
</event>
<event>
 4    1  0.5956049E+000  0.1000000E+03  0.7546771E-02  0.1280296E+00
         21   -1    0    0  503  502  0.00000000000E+00  0.00000000000E+00  0.15188117648E+03  0.15188117648E+03  0.00000000000E+00 0.  1.
         21   -1    0    0  501  503 -0.00000000000E+00 -0.00000000000E+00 -0.37444894079E+03  0.37444894079E+03  0.00000000000E+00 0. -1.
          6    1    1    2  501    0 -0.12314165736E+03 -0.12678662241E+02 -0.23022939172E+03  0.31346321804E+03  0.17300000000E+03 0. -1.
         -6    1    1    2    0  502  0.12314165736E+03  0.12678662241E+02  0.76616274054E+01  0.21286689923E+03  0.17300000000E+03 0.  1.
</event>
<event>
 4    1  0.5956049E+000  0.1000000E+03  0.7546771E-02  0.1280296E+00
         21   -1    0    0  501  502  0.00000000000E+00  0.00000000000E+00  0.10219510242E+03  0.10219510242E+03  0.00000000000E+00 0.  1.
         21   -1    0    0  502  503 -0.00000000000E+00 -0.00000000000E+00 -0.88705315614E+03  0.88705315614E+03  0.00000000000E+00 0. -1.
          6    1    1    2  501    0  0.89642110942E+02 -0.37064160946E+02 -0.20291481997E+02  0.19937453278E+03  0.17300000000E+03 0.  1.
         -6    1    1    2    0  503 -0.89642110942E+02  0.37064160946E+02 -0.76456657172E+03  0.78987372578E+03  0.17300000000E+03 0. -1.
</event>
<event>
 4    1  0.5956049E+000  0.1000000E+03  0.7546771E-02  0.1280296E+00
         21   -1    0    0  501  502  0.00000000000E+00  0.00000000000E+00  0.31014880067E+03  0.31014880067E+03  0.00000000000E+00 0.  1.
         21   -1    0    0  502  503 -0.00000000000E+00 -0.00000000000E+00 -0.22333587217E+03  0.22333587217E+03  0.00000000000E+00 0.  1.
          6    1    1    2  501    0  0.17938432824E+03  0.71885613534E+02  0.88642070605E+02  0.27410343911E+03  0.17300000000E+03 0.  1.
         -6    1    1    2    0  503 -0.17938432824E+03 -0.71885613534E+02 -0.18291421035E+01  0.25938123373E+03  0.17300000000E+03 0.  1.
</event>
<event>
 4    1  0.5956049E+000  0.1000000E+03  0.7546771E-02  0.1280296E+00
         21   -1    0    0  501  502  0.00000000000E+00  0.00000000000E+00  0.11711515246E+03  0.11711515246E+03  0.00000000000E+00 0.  1.
         21   -1    0    0  502  503 -0.00000000000E+00 -0.00000000000E+00 -0.49685259004E+03  0.49685259004E+03  0.00000000000E+00 0.  1.
          6    1    1    2  501    0  0.10228029414E+03  0.32260018707E+00 -0.20088062500E+02  0.20197498087E+03  0.17300000000E+03 0.  1.
         -6    1    1    2    0  503 -0.10228029414E+03 -0.32260018707E+00 -0.35964937509E+03  0.41199276164E+03  0.17300000000E+03 0.  1.
</event>
<event>
 4    1  0.5956049E+000  0.1000000E+03  0.7546771E-02  0.1280296E+00
         21   -1    0    0  501  502  0.00000000000E+00  0.00000000000E+00  0.15232899266E+04  0.15232899266E+04  0.00000000000E+00 0.  1.
         21   -1    0    0  502  503 -0.00000000000E+00 -0.00000000000E+00 -0.68776901098E+03  0.68776901098E+03  0.00000000000E+00 0.  1.
          6    1    1    2  501    0  0.21457543224E+03 -0.11034725412E+03  0.14757601430E+04  0.15053292438E+04  0.17300000000E+03 0.  1.
         -6    1    1    2    0  503 -0.21457543224E+03  0.11034725412E+03 -0.64023922729E+03  0.70572969385E+03  0.17300000000E+03 0.  1.
</event>
<event>
 4    1  0.5956049E+000  0.1000000E+03  0.7546771E-02  0.1280296E+00
         21   -1    0    0  501  502  0.00000000000E+00  0.00000000000E+00  0.29234883208E+03  0.29234883208E+03  0.00000000000E+00 0. -1.
         21   -1    0    0  502  503 -0.00000000000E+00 -0.00000000000E+00 -0.39963211637E+03  0.39963211637E+03  0.00000000000E+00 0.  1.
          6    1    1    2  501    0 -0.18457245887E+03  0.19235129971E+03  0.73743647954E+02  0.32624092430E+03  0.17300000000E+03 0. -1.
         -6    1    1    2    0  503  0.18457245887E+03 -0.19235129971E+03 -0.18102693224E+03  0.36574002415E+03  0.17300000000E+03 0.  1.
</event>
<event>
 4    1  0.5956049E+000  0.1000000E+03  0.7546771E-02  0.1280296E+00
         21   -1    0    0  501  502  0.00000000000E+00  0.00000000000E+00  0.13465155506E+03  0.13465155506E+03  0.00000000000E+00 0. -1.
         21   -1    0    0  502  503 -0.00000000000E+00 -0.00000000000E+00 -0.50177565790E+03  0.50177565790E+03  0.00000000000E+00 0.  1.
          6    1    1    2  501    0  0.10133189954E+03  0.50509429532E+02  0.92919580571E+01  0.20696544837E+03  0.17300000000E+03 0. -1.
         -6    1    1    2    0  503 -0.10133189954E+03 -0.50509429532E+02 -0.37641606090E+03  0.42946176458E+03  0.17300000000E+03 0.  1.
</event>
<event>
 4    1  0.5956049E+000  0.1000000E+03  0.7546771E-02  0.1280296E+00
         21   -1    0    0  501  502  0.00000000000E+00  0.00000000000E+00  0.30091099118E+03  0.30091099118E+03  0.00000000000E+00 0. -1.
         21   -1    0    0  502  503 -0.00000000000E+00 -0.00000000000E+00 -0.14119964613E+03  0.14119964613E+03  0.00000000000E+00 0.  1.
          6    1    1    2  501    0  0.36985715013E+00  0.69724412598E+02  0.17394733225E+03  0.25504569180E+03  0.17300000000E+03 0. -1.
         -6    1    1    2    0  503 -0.36985715013E+00 -0.69724412598E+02 -0.14235987202E+02  0.18706494551E+03  0.17300000000E+03 0.  1.
</event>
<event>
 4    1  0.5956049E+000  0.1000000E+03  0.7546771E-02  0.1280296E+00
         21   -1    0    0  501  502  0.00000000000E+00  0.00000000000E+00  0.13878997863E+03  0.13878997863E+03  0.00000000000E+00 0. -1.
         21   -1    0    0  502  503 -0.00000000000E+00 -0.00000000000E+00 -0.37056188374E+03  0.37056188374E+03  0.00000000000E+00 0.  1.
          6    1    1    2  501    0  0.11533740647E+03  0.85850968918E+02 -0.83568423186E+02  0.23997038890E+03  0.17300000000E+03 0. -1.
         -6    1    1    2    0  503 -0.11533740647E+03 -0.85850968918E+02 -0.14820348193E+03  0.26938147347E+03  0.17300000000E+03 0.  1.
</event>
<event>
 4    1  0.5956049E+000  0.1000000E+03  0.7546771E-02  0.1280296E+00
         21   -1    0    0  501  502  0.00000000000E+00  0.00000000000E+00  0.11360181849E+04  0.11360181849E+04  0.00000000000E+00 0. -1.
         21   -1    0    0  502  503 -0.00000000000E+00 -0.00000000000E+00 -0.27181722245E+03  0.27181722245E+03  0.00000000000E+00 0. -1.
          6    1    1    2  501    0 -0.33429063737E+02  0.74190275491E+02  0.10930459341E+04  0.11096396322E+04  0.17300000000E+03 0.  1.
         -6    1    1    2    0  503  0.33429063737E+02 -0.74190275491E+02 -0.22884497164E+03  0.29819577516E+03  0.17300000000E+03 0.  1.
</event>
<event>
 4    1  0.5956049E+000  0.1000000E+03  0.7546771E-02  0.1280296E+00
         21   -1    0    0  501  502  0.00000000000E+00  0.00000000000E+00  0.29879030849E+03  0.29879030849E+03  0.00000000000E+00 0.  1.
         21   -1    0    0  502  503 -0.00000000000E+00 -0.00000000000E+00 -0.14074035562E+03  0.14074035562E+03  0.00000000000E+00 0.  1.
          6    1    1    2  501    0  0.58335021014E+02  0.22973200652E+02 -0.17973416618E+02  0.18488587380E+03  0.17300000000E+03 0.  1.
         -6    1    1    2    0  503 -0.58335021014E+02 -0.22973200652E+02  0.17602336949E+03  0.25464479031E+03  0.17300000000E+03 0.  1.
</event>
<event>
 4    1  0.5956049E+000  0.1000000E+03  0.7546771E-02  0.1280296E+00
         21   -1    0    0  501  502  0.00000000000E+00  0.00000000000E+00  0.10876843879E+04  0.10876843879E+04  0.00000000000E+00 0.  1.
         21   -1    0    0  502  503 -0.00000000000E+00 -0.00000000000E+00 -0.52132132942E+02  0.52132132942E+02  0.00000000000E+00 0.  1.
          6    1    1    2  501    0 -0.11661919043E+03  0.60261364290E+02  0.75157346831E+03  0.78231908187E+03  0.17300000000E+03 0.  1.
         -6    1    1    2    0  503  0.11661919043E+03 -0.60261364290E+02  0.28397878666E+03  0.35749743898E+03  0.17300000000E+03 0.  1.
</event>
<event>
 4    1  0.5956049E+000  0.1000000E+03  0.7546771E-02  0.1280296E+00
         21   -1    0    0  501  502  0.00000000000E+00  0.00000000000E+00  0.73434425491E+03  0.73434425491E+03  0.00000000000E+00 0. -1.
         21   -1    0    0  502  503 -0.00000000000E+00 -0.00000000000E+00 -0.18228718116E+03  0.18228718116E+03  0.00000000000E+00 0. -1.
          6    1    1    2  501    0 -0.44051293031E+02 -0.87357801349E+02  0.66082607133E+03  0.69006666231E+03  0.17300000000E+03 0. -1.
         -6    1    1    2    0  503  0.44051293031E+02  0.87357801349E+02 -0.10876899758E+03  0.22656477376E+03  0.17300000000E+03 0. -1.
</event>
<event>
 4    1  0.5956049E+000  0.1000000E+03  0.7546771E-02  0.1280296E+00
         21   -1    0    0  501  502  0.00000000000E+00  0.00000000000E+00  0.13686974151E+03  0.13686974151E+03  0.00000000000E+00 0. -1.
         21   -1    0    0  502  503 -0.00000000000E+00 -0.00000000000E+00 -0.99959720676E+03  0.99959720676E+03  0.00000000000E+00 0. -1.
          6    1    1    2  501    0 -0.14581256743E+03  0.96538106271E+02 -0.70019943888E+01  0.24608725832E+03  0.17300000000E+03 0. -1.
         -6    1    1    2    0  503  0.14581256743E+03 -0.96538106271E+02 -0.85572547086E+03  0.89037968994E+03  0.17300000000E+03 0. -1.
</event>
<event>
 4    1  0.5956049E+000  0.1000000E+03  0.7546771E-02  0.1280296E+00
         21   -1    0    0  501  502  0.00000000000E+00  0.00000000000E+00  0.42609839421E+03  0.42609839421E+03  0.00000000000E+00 0. -1.
         21   -1    0    0  502  503 -0.00000000000E+00 -0.00000000000E+00 -0.56162738175E+03  0.56162738175E+03  0.00000000000E+00 0. -1.
          6    1    1    2  501    0 -0.27207232943E+03  0.25299131911E+03  0.20190328596E+03  0.45686091633E+03  0.17300000000E+03 0. -1.
         -6    1    1    2    0  503  0.27207232943E+03 -0.25299131911E+03 -0.33743227351E+03  0.53086485963E+03  0.17300000000E+03 0. -1.
</event>
<event>
 4    1  0.5956049E+000  0.1000000E+03  0.7546771E-02  0.1280296E+00
         21   -1    0    0  501  502  0.00000000000E+00  0.00000000000E+00  0.40444949212E+03  0.40444949212E+03  0.00000000000E+00 0.  1.
         21   -1    0    0  502  503 -0.00000000000E+00 -0.00000000000E+00 -0.13840603936E+03  0.13840603936E+03  0.00000000000E+00 0.  1.
          6    1    1    2  501    0 -0.80556060012E+00 -0.95998656962E+01  0.31784949391E+03  0.36200843516E+03  0.17300000000E+03 0.  1.
         -6    1    1    2    0  503  0.80556060012E+00  0.95998656962E+01 -0.51806041148E+02  0.18084709632E+03  0.17300000000E+03 0.  1.
</event>
<event>
 4    1  0.5956049E+000  0.1000000E+03  0.7546771E-02  0.1280296E+00
         21   -1    0    0  503  502  0.00000000000E+00  0.00000000000E+00  0.12381243815E+03  0.12381243815E+03  0.00000000000E+00 0.  1.
         21   -1    0    0  501  503 -0.00000000000E+00 -0.00000000000E+00 -0.10816265084E+04  0.10816265084E+04  0.00000000000E+00 0.  1.
          6    1    1    2  501    0 -0.12989329489E+03 -0.27086879552E+03 -0.67201871545E+03  0.75616157424E+03  0.17300000000E+03 0.  1.
         -6    1    1    2    0  502  0.12989329489E+03  0.27086879552E+03 -0.28579535481E+03  0.44927737232E+03  0.17300000000E+03 0.  1.
</event>
<event>
 4    1  0.5956049E+000  0.1000000E+03  0.7546771E-02  0.1280296E+00
         21   -1    0    0  503  502  0.00000000000E+00  0.00000000000E+00  0.44926327313E+03  0.44926327313E+03  0.00000000000E+00 0.  1.
         21   -1    0    0  501  503 -0.00000000000E+00 -0.00000000000E+00 -0.32428039876E+03  0.32428039876E+03  0.00000000000E+00 0.  1.
          6    1    1    2  501    0  0.28919794169E+03  0.16830416624E+03  0.55082600080E-01  0.37668387925E+03  0.17300000000E+03 0.  1.
         -6    1    1    2    0  502 -0.28919794169E+03 -0.16830416624E+03  0.12492779177E+03  0.39685979263E+03  0.17300000000E+03 0.  1.
</event>
<event>
 4    1  0.5956049E+000  0.1000000E+03  0.7546771E-02  0.1280296E+00
         21   -1    0    0  501  502  0.00000000000E+00  0.00000000000E+00  0.40166837772E+02  0.40166837772E+02  0.00000000000E+00 0.  1.
         21   -1    0    0  502  503 -0.00000000000E+00 -0.00000000000E+00 -0.82690487681E+03  0.82690487681E+03  0.00000000000E+00 0. -1.
          6    1    1    2  501    0 -0.21908764715E+02 -0.46980020893E+02 -0.45154285640E+03  0.48631992299E+03  0.17300000000E+03 0.  1.
         -6    1    1    2    0  503  0.21908764715E+02  0.46980020893E+02 -0.33519518265E+03  0.38075179160E+03  0.17300000000E+03 0. -1.
</event>
<event>
 4    1  0.5956049E+000  0.1000000E+03  0.7546771E-02  0.1280296E+00
         21   -1    0    0  501  502  0.00000000000E+00  0.00000000000E+00  0.41212433809E+02  0.41212433809E+02  0.00000000000E+00 0.  1.
         21   -1    0    0  502  503 -0.00000000000E+00 -0.00000000000E+00 -0.11044609998E+04  0.11044609998E+04  0.00000000000E+00 0. -1.
          6    1    1    2  501    0  0.11236581923E+02 -0.43026474866E+02 -0.21837770068E+03  0.28212649373E+03  0.17300000000E+03 0.  1.
         -6    1    1    2    0  503 -0.11236581923E+02  0.43026474866E+02 -0.84487086530E+03  0.86354693986E+03  0.17300000000E+03 0. -1.
</event>
<event>
 4    1  0.5956049E+000  0.1000000E+03  0.7546771E-02  0.1280296E+00
         21   -1    0    0  501  502  0.00000000000E+00  0.00000000000E+00  0.19494766257E+03  0.19494766257E+03  0.00000000000E+00 0.  1.
         21   -1    0    0  502  503 -0.00000000000E+00 -0.00000000000E+00 -0.27140927975E+03  0.27140927975E+03  0.00000000000E+00 0. -1.
          6    1    1    2  501    0  0.15741027495E+02  0.71156137459E+01  0.11444463130E+03  0.20814654823E+03  0.17300000000E+03 0.  1.
         -6    1    1    2    0  503 -0.15741027495E+02 -0.71156137459E+01 -0.19090624848E+03  0.25821039409E+03  0.17300000000E+03 0. -1.
</event>
<event>
 4    1  0.5956049E+000  0.1000000E+03  0.7546771E-02  0.1280296E+00
         21   -1    0    0  501  502  0.00000000000E+00  0.00000000000E+00  0.24660872362E+03  0.24660872362E+03  0.00000000000E+00 0.  1.
         21   -1    0    0  502  503 -0.00000000000E+00 -0.00000000000E+00 -0.14320969502E+03  0.14320969502E+03  0.00000000000E+00 0.  1.
          6    1    1    2  501    0  0.54114513234E+02  0.20981452749E+02  0.98303934046E+02  0.20727099496E+03  0.17300000000E+03 0.  1.
         -6    1    1    2    0  503 -0.54114513234E+02 -0.20981452749E+02  0.50950945565E+01  0.18254742368E+03  0.17300000000E+03 0.  1.
</event>
<event>
 4    1  0.5956049E+000  0.1000000E+03  0.7546771E-02  0.1280296E+00
         21   -1    0    0  501  502  0.00000000000E+00  0.00000000000E+00  0.55168282330E+03  0.55168282330E+03  0.00000000000E+00 0.  1.
         21   -1    0    0  502  503 -0.00000000000E+00 -0.00000000000E+00 -0.54836478222E+03  0.54836478222E+03  0.00000000000E+00 0.  1.
          6    1    1    2  501    0 -0.31308421941E+03 -0.46686905868E+02  0.41686331249E+03  0.55127617120E+03  0.17300000000E+03 0.  1.
         -6    1    1    2    0  503  0.31308421941E+03  0.46686905868E+02 -0.41354527141E+03  0.54877143432E+03  0.17300000000E+03 0.  1.
</event>
<event>
 4    1  0.5956049E+000  0.1000000E+03  0.7546771E-02  0.1280296E+00
         21   -1    0    0  503  502  0.00000000000E+00  0.00000000000E+00  0.58913938009E+03  0.58913938009E+03  0.00000000000E+00 0.  1.
         21   -1    0    0  501  503 -0.00000000000E+00 -0.00000000000E+00 -0.16759492553E+03  0.16759492553E+03  0.00000000000E+00 0.  1.
          6    1    1    2  501    0  0.10437494229E+03  0.93322107615E+01 -0.78787137912E+02  0.21706596195E+03  0.17300000000E+03 0.  1.
         -6    1    1    2    0  502 -0.10437494229E+03 -0.93322107615E+01  0.50033159247E+03  0.53966834367E+03  0.17300000000E+03 0.  1.
</event>
<event>
 4    1  0.5956049E+000  0.1000000E+03  0.7546771E-02  0.1280296E+00
         21   -1    0    0  503  502  0.00000000000E+00  0.00000000000E+00  0.14521270012E+04  0.14521270012E+04  0.00000000000E+00 0.  1.
         21   -1    0    0  501  503 -0.00000000000E+00 -0.00000000000E+00 -0.53805304478E+02  0.53805304478E+02  0.00000000000E+00 0.  1.
          6    1    1    2  501    0 -0.11535623973E+03  0.14294881924E+03  0.10231051974E+04  0.10537621515E+04  0.17300000000E+03 0.  1.
         -6    1    1    2    0  502  0.11535623973E+03 -0.14294881924E+03  0.37521649926E+03  0.45217015413E+03  0.17300000000E+03 0.  1.
</event>
<event>
 4    1  0.5956049E+000  0.1000000E+03  0.7546771E-02  0.1280296E+00
         21   -1    0    0  503  502  0.00000000000E+00  0.00000000000E+00  0.81659242461E+03  0.81659242461E+03  0.00000000000E+00 0.  1.
         21   -1    0    0  501  503 -0.00000000000E+00 -0.00000000000E+00 -0.29759853172E+03  0.29759853172E+03  0.00000000000E+00 0.  1.
          6    1    1    2  501    0 -0.12465426941E+02 -0.31639678452E+01 -0.26196443584E+03  0.31419701336E+03  0.17300000000E+03 0.  1.
         -6    1    1    2    0  502  0.12465426941E+02  0.31639678452E+01  0.78095832873E+03  0.79999394296E+03  0.17300000000E+03 0.  1.
</event>
<event>
 4    1  0.5956049E+000  0.1000000E+03  0.7546771E-02  0.1280296E+00
         21   -1    0    0  503  502  0.00000000000E+00  0.00000000000E+00  0.19358729127E+03  0.19358729127E+03  0.00000000000E+00 0.  1.
         21   -1    0    0  501  503 -0.00000000000E+00 -0.00000000000E+00 -0.26658193836E+03  0.26658193836E+03  0.00000000000E+00 0. -1.
          6    1    1    2  501    0 -0.12793156951E+03 -0.58675371256E+02 -0.80278836969E+02  0.23702948621E+03  0.17300000000E+03 0. -1.
         -6    1    1    2    0  502  0.12793156951E+03  0.58675371256E+02  0.72841898798E+01  0.22313974341E+03  0.17300000000E+03 0.  1.
</event>
<event>
 4    1  0.5956049E+000  0.1000000E+03  0.7546771E-02  0.1280296E+00
         21   -1    0    0  501  502  0.00000000000E+00  0.00000000000E+00  0.23722645696E+02  0.23722645696E+02  0.00000000000E+00 0.  1.
         21   -1    0    0  502  503 -0.00000000000E+00 -0.00000000000E+00 -0.25383758871E+04  0.25383758871E+04  0.00000000000E+00 0. -1.
          6    1    1    2  501    0  0.58977424698E+02  0.25024830276E+02 -0.41259367511E+03  0.45195920114E+03  0.17300000000E+03 0.  1.
         -6    1    1    2    0  503 -0.58977424698E+02 -0.25024830276E+02 -0.21020595663E+04  0.21101393317E+04  0.17300000000E+03 0. -1.
</event>
<event>
 4    1  0.5956049E+000  0.1000000E+03  0.7546771E-02  0.1280296E+00
         21   -1    0    0  501  502  0.00000000000E+00  0.00000000000E+00  0.13123546540E+03  0.13123546540E+03  0.00000000000E+00 0.  1.
         21   -1    0    0  502  503 -0.00000000000E+00 -0.00000000000E+00 -0.31382007879E+03  0.31382007879E+03  0.00000000000E+00 0. -1.
          6    1    1    2  501    0  0.43416710963E+02 -0.64283550373E+02 -0.11932894220E+02  0.18997047035E+03  0.17300000000E+03 0.  1.
         -6    1    1    2    0  503 -0.43416710963E+02  0.64283550373E+02 -0.17065171917E+03  0.25508507384E+03  0.17300000000E+03 0. -1.
</event>
<event>
 4    1  0.5956049E+000  0.1000000E+03  0.7546771E-02  0.1280296E+00
         21   -1    0    0  503  502  0.00000000000E+00  0.00000000000E+00  0.57195322686E+03  0.57195322686E+03  0.00000000000E+00 0.  1.
         21   -1    0    0  501  503 -0.00000000000E+00 -0.00000000000E+00 -0.10614112489E+03  0.10614112489E+03  0.00000000000E+00 0.  1.
          6    1    1    2  501    0 -0.53920561317E+01  0.56591024517E+02  0.45164669860E+01  0.18215657221E+03  0.17300000000E+03 0.  1.
         -6    1    1    2    0  502  0.53920561317E+01 -0.56591024517E+02  0.46129563498E+03  0.49593777955E+03  0.17300000000E+03 0.  1.
</event>
<event>
 4    1  0.5956049E+000  0.1000000E+03  0.7546771E-02  0.1280296E+00
         21   -1    0    0  503  502  0.00000000000E+00  0.00000000000E+00  0.33450211079E+03  0.33450211079E+03  0.00000000000E+00 0.  1.
         21   -1    0    0  501  503 -0.00000000000E+00 -0.00000000000E+00 -0.99631492617E+02  0.99631492617E+02  0.00000000000E+00 0.  1.
          6    1    1    2  501    0 -0.39144964409E+02 -0.42114296051E+02  0.10603030984E+03  0.21089658313E+03  0.17300000000E+03 0.  1.
         -6    1    1    2    0  502  0.39144964409E+02  0.42114296051E+02  0.12884030833E+03  0.22323702027E+03  0.17300000000E+03 0.  1.
</event>
<event>
 4    1  0.5956049E+000  0.1000000E+03  0.7546771E-02  0.1280296E+00
         21   -1    0    0  503  502  0.00000000000E+00  0.00000000000E+00  0.40418975967E+03  0.40418975967E+03  0.00000000000E+00 0.  1.
         21   -1    0    0  501  503 -0.00000000000E+00 -0.00000000000E+00 -0.49605999834E+03  0.49605999834E+03  0.00000000000E+00 0.  1.
          6    1    1    2  501    0 -0.23451150112E+03 -0.17715864349E+03 -0.33761741734E+03  0.47989097680E+03  0.17300000000E+03 0.  1.
         -6    1    1    2    0  502  0.23451150112E+03  0.17715864349E+03  0.24574717866E+03  0.42035878121E+03  0.17300000000E+03 0.  1.
</event>
<event>
 4    1  0.5956049E+000  0.1000000E+03  0.7546771E-02  0.1280296E+00
         21   -1    0    0  503  502  0.00000000000E+00  0.00000000000E+00  0.16884761661E+03  0.16884761661E+03  0.00000000000E+00 0. -1.
         21   -1    0    0  501  503 -0.00000000000E+00 -0.00000000000E+00 -0.46583266322E+03  0.46583266322E+03  0.00000000000E+00 0. -1.
          6    1    1    2  501    0 -0.26778036189E+02 -0.66777384281E+02 -0.38462402197E+03  0.42783281846E+03  0.17300000000E+03 0. -1.
         -6    1    1    2    0  502  0.26778036189E+02  0.66777384281E+02  0.87638975359E+02  0.20684746137E+03  0.17300000000E+03 0. -1.
</event>
<event>
 4    1  0.5956049E+000  0.1000000E+03  0.7546771E-02  0.1280296E+00
         21   -1    0    0  501  502  0.00000000000E+00  0.00000000000E+00  0.15092781361E+03  0.15092781361E+03  0.00000000000E+00 0. -1.
         21   -1    0    0  502  503 -0.00000000000E+00 -0.00000000000E+00 -0.32372685279E+04  0.32372685279E+04  0.00000000000E+00 0.  1.
          6    1    1    2  501    0  0.55461985063E+03  0.38736450166E+03 -0.16202104223E+04  0.17642747089E+04  0.17300000000E+03 0.  1.
         -6    1    1    2    0  503 -0.55461985063E+03 -0.38736450166E+03 -0.14661302921E+04  0.16239216327E+04  0.17300000000E+03 0. -1.
</event>
<event>
 4    1  0.5956049E+000  0.1000000E+03  0.7546771E-02  0.1280296E+00
         21   -1    0    0  501  502  0.00000000000E+00  0.00000000000E+00  0.46273318821E+03  0.46273318821E+03  0.00000000000E+00 0.  1.
         21   -1    0    0  502  503 -0.00000000000E+00 -0.00000000000E+00 -0.13432587655E+03  0.13432587655E+03  0.00000000000E+00 0. -1.
          6    1    1    2  501    0 -0.11091347160E+03 -0.52044341924E+02  0.32132269419E+03  0.38495153658E+03  0.17300000000E+03 0. -1.
         -6    1    1    2    0  503  0.11091347160E+03  0.52044341924E+02  0.70846174598E+01  0.21210752818E+03  0.17300000000E+03 0.  1.
</event>
<event>
 4    1  0.5956049E+000  0.1000000E+03  0.7546771E-02  0.1280296E+00
         21   -1    0    0  501  502  0.00000000000E+00  0.00000000000E+00  0.11890448840E+04  0.11890448840E+04  0.00000000000E+00 0.  1.
         21   -1    0    0  502  503 -0.00000000000E+00 -0.00000000000E+00 -0.10659408288E+03  0.10659408288E+03  0.00000000000E+00 0. -1.
          6    1    1    2  501    0  0.23770867839E+03  0.75732672571E+02  0.87957937506E+03  0.93049972085E+03  0.17300000000E+03 0. -1.
         -6    1    1    2    0  503 -0.23770867839E+03 -0.75732672571E+02  0.20287142606E+03  0.36513924602E+03  0.17300000000E+03 0.  1.
</event>
<event>
 4    1  0.5956049E+000  0.1000000E+03  0.7546771E-02  0.1280296E+00
         21   -1    0    0  501  502  0.00000000000E+00  0.00000000000E+00  0.11034018911E+03  0.11034018911E+03  0.00000000000E+00 0.  1.
         21   -1    0    0  502  503 -0.00000000000E+00 -0.00000000000E+00 -0.32613853356E+03  0.32613853356E+03  0.00000000000E+00 0. -1.
          6    1    1    2  501    0 -0.36543080448E+02 -0.67727912252E+02 -0.12125227641E+03  0.22484123590E+03  0.17300000000E+03 0. -1.
         -6    1    1    2    0  503  0.36543080448E+02  0.67727912252E+02 -0.94546068042E+02  0.21163748678E+03  0.17300000000E+03 0.  1.
</event>
<event>
 4    1  0.5956049E+000  0.1000000E+03  0.7546771E-02  0.1280296E+00
         21   -1    0    0  503  502  0.00000000000E+00  0.00000000000E+00  0.17830316978E+04  0.17830316978E+04  0.00000000000E+00 0.  1.
         21   -1    0    0  501  503 -0.00000000000E+00 -0.00000000000E+00 -0.34629270155E+02  0.34629270155E+02  0.00000000000E+00 0.  1.
          6    1    1    2  501    0  0.50544726837E+02 -0.10775542770E+03  0.38829205839E+03  0.44143597975E+03  0.17300000000E+03 0.  1.
         -6    1    1    2    0  502 -0.50544726837E+02  0.10775542770E+03  0.13601103693E+04  0.13762249882E+04  0.17300000000E+03 0.  1.
</event>
<event>
 4    1  0.5956049E+000  0.1000000E+03  0.7546771E-02  0.1280296E+00
         21   -1    0    0  503  502  0.00000000000E+00  0.00000000000E+00  0.72021843344E+03  0.72021843344E+03  0.00000000000E+00 0.  1.
         21   -1    0    0  501  503 -0.00000000000E+00 -0.00000000000E+00 -0.11500269292E+03  0.11500269292E+03  0.00000000000E+00 0.  1.
          6    1    1    2  501    0 -0.20915520879E+03  0.84767601420E+02  0.23825844596E+03  0.37098185223E+03  0.17300000000E+03 0.  1.
         -6    1    1    2    0  502  0.20915520879E+03 -0.84767601420E+02  0.36695729456E+03  0.46423927413E+03  0.17300000000E+03 0.  1.
</event>
<event>
 4    1  0.5956049E+000  0.1000000E+03  0.7546771E-02  0.1280296E+00
         21   -1    0    0  503  502  0.00000000000E+00  0.00000000000E+00  0.15675815574E+03  0.15675815574E+03  0.00000000000E+00 0.  1.
         21   -1    0    0  501  503 -0.00000000000E+00 -0.00000000000E+00 -0.29478411664E+03  0.29478411664E+03  0.00000000000E+00 0.  1.
          6    1    1    2  501    0  0.12308151184E+03 -0.24379656694E+02 -0.93359976647E+02  0.23321344613E+03  0.17300000000E+03 0.  1.
         -6    1    1    2    0  502 -0.12308151184E+03  0.24379656694E+02 -0.44665984252E+02  0.21832882624E+03  0.17300000000E+03 0.  1.
</event>
<event>
 4    1  0.5956049E+000  0.1000000E+03  0.7546771E-02  0.1280296E+00
         21   -1    0    0  503  502  0.00000000000E+00  0.00000000000E+00  0.23092528783E+03  0.23092528783E+03  0.00000000000E+00 0.  1.
         21   -1    0    0  501  503 -0.00000000000E+00 -0.00000000000E+00 -0.34813087846E+03  0.34813087846E+03  0.00000000000E+00 0.  1.
          6    1    1    2  501    0  0.86268359868E+02  0.17993157215E+03 -0.16396120607E+03  0.31085346655E+03  0.17300000000E+03 0.  1.
         -6    1    1    2    0  502 -0.86268359868E+02 -0.17993157215E+03  0.46755615448E+02  0.26820269974E+03  0.17300000000E+03 0.  1.
</event>
<event>
 4    1  0.5956049E+000  0.1000000E+03  0.7546771E-02  0.1280296E+00
         21   -1    0    0  503  502  0.00000000000E+00  0.00000000000E+00  0.10961442433E+03  0.10961442433E+03  0.00000000000E+00 0.  1.
         21   -1    0    0  501  503 -0.00000000000E+00 -0.00000000000E+00 -0.37455004670E+03  0.37455004670E+03  0.00000000000E+00 0. -1.
          6    1    1    2  501    0 -0.43280274123E+02  0.68399103189E+02 -0.21328279969E+03  0.28630433474E+03  0.17300000000E+03 0. -1.
         -6    1    1    2    0  502  0.43280274123E+02 -0.68399103189E+02 -0.51652822677E+02  0.19786013630E+03  0.17300000000E+03 0.  1.
</event>
<event>
 4    1  0.5956049E+000  0.1000000E+03  0.7546771E-02  0.1280296E+00
         21   -1    0    0  503  502  0.00000000000E+00  0.00000000000E+00  0.63791102786E+03  0.63791102786E+03  0.00000000000E+00 0.  1.
         21   -1    0    0  501  503 -0.00000000000E+00 -0.00000000000E+00 -0.70095435581E+02  0.70095435581E+02  0.00000000000E+00 0. -1.
          6    1    1    2  501    0 -0.14284506970E+02  0.52834594561E+02  0.10212983506E+03  0.20821874251E+03  0.17300000000E+03 0. -1.
         -6    1    1    2    0  502  0.14284506970E+02 -0.52834594561E+02  0.46568575721E+03  0.49978772093E+03  0.17300000000E+03 0.  1.
</event>
<event>
 4    1  0.5956049E+000  0.1000000E+03  0.7546771E-02  0.1280296E+00
         21   -1    0    0  501  502  0.00000000000E+00  0.00000000000E+00  0.89795235499E+02  0.89795235499E+02  0.00000000000E+00 0. -1.
         21   -1    0    0  502  503 -0.00000000000E+00 -0.00000000000E+00 -0.88587514064E+03  0.88587514064E+03  0.00000000000E+00 0.  1.
          6    1    1    2  501    0  0.73631879625E+02  0.94932614538E+02 -0.73598763701E+02  0.22311349806E+03  0.17300000000E+03 0. -1.
         -6    1    1    2    0  503 -0.73631879625E+02 -0.94932614538E+02 -0.72248114145E+03  0.75255687808E+03  0.17300000000E+03 0. -1.
</event>
<event>
 4    1  0.5956049E+000  0.1000000E+03  0.7546771E-02  0.1280296E+00
         21   -1    0    0  501  502  0.00000000000E+00  0.00000000000E+00  0.63531605997E+03  0.63531605997E+03  0.00000000000E+00 0. -1.
         21   -1    0    0  502  503 -0.00000000000E+00 -0.00000000000E+00 -0.17699578447E+03  0.17699578447E+03  0.00000000000E+00 0.  1.
          6    1    1    2  501    0  0.28343087852E+03 -0.28032046140E+02  0.27448571874E+03  0.43172939245E+03  0.17300000000E+03 0. -1.
         -6    1    1    2    0  503 -0.28343087852E+03  0.28032046140E+02  0.18383455676E+03  0.38058245200E+03  0.17300000000E+03 0. -1.
</event>
<event>
 4    1  0.5956049E+000  0.1000000E+03  0.7546771E-02  0.1280296E+00
         21   -1    0    0  501  502  0.00000000000E+00  0.00000000000E+00  0.13364464035E+03  0.13364464035E+03  0.00000000000E+00 0. -1.
         21   -1    0    0  502  503 -0.00000000000E+00 -0.00000000000E+00 -0.34913944726E+03  0.34913944726E+03  0.00000000000E+00 0. -1.
          6    1    1    2  501    0 -0.91439582242E+02  0.32187287081E+02 -0.12043438275E+02  0.19867376036E+03  0.17300000000E+03 0. -1.
         -6    1    1    2    0  503  0.91439582242E+02 -0.32187287081E+02 -0.20345136864E+03  0.28411032725E+03  0.17300000000E+03 0. -1.
</event>
<event>
 4    1  0.5956049E+000  0.1000000E+03  0.7546771E-02  0.1280296E+00
         21   -1    0    0  501  502  0.00000000000E+00  0.00000000000E+00  0.37351982168E+03  0.37351982168E+03  0.00000000000E+00 0. -1.
         21   -1    0    0  502  503 -0.00000000000E+00 -0.00000000000E+00 -0.10467559152E+03  0.10467559152E+03  0.00000000000E+00 0. -1.
          6    1    1    2  501    0  0.24684370194E+02  0.44822612285E+02  0.23229230991E+03  0.29412089682E+03  0.17300000000E+03 0. -1.
         -6    1    1    2    0  503 -0.24684370194E+02 -0.44822612285E+02  0.36551920253E+02  0.18407451637E+03  0.17300000000E+03 0. -1.
</event>
<event>
 4    1  0.5956049E+000  0.1000000E+03  0.7546771E-02  0.1280296E+00
         21   -1    0    0  503  502  0.00000000000E+00  0.00000000000E+00  0.22356222487E+03  0.22356222487E+03  0.00000000000E+00 0.  1.
         21   -1    0    0  501  503 -0.00000000000E+00 -0.00000000000E+00 -0.37596854331E+03  0.37596854331E+03  0.00000000000E+00 0. -1.
          6    1    1    2  501    0  0.62371131585E+02  0.44940551227E+02 -0.30323725389E+03  0.35747957053E+03  0.17300000000E+03 0. -1.
         -6    1    1    2    0  502 -0.62371131585E+02 -0.44940551227E+02  0.15083093545E+03  0.24205119766E+03  0.17300000000E+03 0.  1.
</event>
<event>
 4    1  0.5956049E+000  0.1000000E+03  0.7546771E-02  0.1280296E+00
         21   -1    0    0  503  502  0.00000000000E+00  0.00000000000E+00  0.39932967135E+03  0.39932967135E+03  0.00000000000E+00 0.  1.
         21   -1    0    0  501  503 -0.00000000000E+00 -0.00000000000E+00 -0.23092355357E+03  0.23092355357E+03  0.00000000000E+00 0. -1.
          6    1    1    2  501    0  0.19625203948E+03 -0.43908144517E+02 -0.69166692251E+02  0.27414561728E+03  0.17300000000E+03 0. -1.
         -6    1    1    2    0  502 -0.19625203948E+03  0.43908144517E+02  0.23757281003E+03  0.35610760764E+03  0.17300000000E+03 0.  1.
</event>
<event>
 4    1  0.5956049E+000  0.1000000E+03  0.7546771E-02  0.1280296E+00
         21   -1    0    0  501  502  0.00000000000E+00  0.00000000000E+00  0.41254365203E+03  0.41254365203E+03  0.00000000000E+00 0. -1.
         21   -1    0    0  502  503 -0.00000000000E+00 -0.00000000000E+00 -0.49006790369E+03  0.49006790369E+03  0.00000000000E+00 0. -1.
          6    1    1    2  501    0  0.10140799814E+02  0.17641500565E+03  0.33815740851E+03  0.41893259955E+03  0.17300000000E+03 0. -1.
         -6    1    1    2    0  503 -0.10140799814E+02 -0.17641500565E+03 -0.41568166017E+03  0.48367895617E+03  0.17300000000E+03 0. -1.
</event>
<event>
 4    1  0.5956049E+000  0.1000000E+03  0.7546771E-02  0.1280296E+00
         21   -1    0    0  501  502  0.00000000000E+00  0.00000000000E+00  0.18124263500E+02  0.18124263500E+02  0.00000000000E+00 0. -1.
         21   -1    0    0  502  503 -0.00000000000E+00 -0.00000000000E+00 -0.17505979869E+04  0.17505979869E+04  0.00000000000E+00 0. -1.
          6    1    1    2  501    0  0.14215135845E+00  0.33260990791E+02 -0.73553905016E+03  0.75634185923E+03  0.17300000000E+03 0. -1.
         -6    1    1    2    0  503 -0.14215135845E+00 -0.33260990791E+02 -0.99693467326E+03  0.10123803912E+04  0.17300000000E+03 0. -1.
</event>
<event>
 4    1  0.5956049E+000  0.1000000E+03  0.7546771E-02  0.1280296E+00
         21   -1    0    0  501  502  0.00000000000E+00  0.00000000000E+00  0.23912645295E+03  0.23912645295E+03  0.00000000000E+00 0. -1.
         21   -1    0    0  502  503 -0.00000000000E+00 -0.00000000000E+00 -0.18245321367E+03  0.18245321367E+03  0.00000000000E+00 0. -1.
          6    1    1    2  501    0 -0.20939051776E+02  0.72354512280E+02  0.11874954332E+03  0.22294410370E+03  0.17300000000E+03 0. -1.
         -6    1    1    2    0  503  0.20939051776E+02 -0.72354512280E+02 -0.62076304038E+02  0.19863556293E+03  0.17300000000E+03 0. -1.
</event>
<event>
 4    1  0.5956049E+000  0.1000000E+03  0.7546771E-02  0.1280296E+00
         21   -1    0    0  503  502  0.00000000000E+00  0.00000000000E+00  0.60200434677E+02  0.60200434677E+02  0.00000000000E+00 0.  1.
         21   -1    0    0  501  503 -0.00000000000E+00 -0.00000000000E+00 -0.85481102952E+03  0.85481102952E+03  0.00000000000E+00 0. -1.
          6    1    1    2  501    0 -0.28321923533E+02  0.76514521708E+00 -0.68766964319E+03  0.70966277552E+03  0.17300000000E+03 0. -1.
         -6    1    1    2    0  502  0.28321923533E+02 -0.76514521708E+00 -0.10694095166E+03  0.20534868868E+03  0.17300000000E+03 0.  1.
</event>
<event>
 4    1  0.5956049E+000  0.1000000E+03  0.7546771E-02  0.1280296E+00
         21   -1    0    0  503  502  0.00000000000E+00  0.00000000000E+00  0.24836148011E+03  0.24836148011E+03  0.00000000000E+00 0.  1.
         21   -1    0    0  501  503 -0.00000000000E+00 -0.00000000000E+00 -0.55956388903E+03  0.55956388903E+03  0.00000000000E+00 0. -1.
          6    1    1    2  501    0  0.12429932370E+02 -0.17732087396E+03 -0.45716497840E+03  0.52012115227E+03  0.17300000000E+03 0. -1.
         -6    1    1    2    0  502 -0.12429932370E+02  0.17732087396E+03  0.14596256948E+03  0.28780421687E+03  0.17300000000E+03 0.  1.
</event>
<event>
 4    1  0.5956049E+000  0.1000000E+03  0.7546771E-02  0.1280296E+00
         21   -1    0    0  503  502  0.00000000000E+00  0.00000000000E+00  0.56494740004E+03  0.56494740004E+03  0.00000000000E+00 0.  1.
         21   -1    0    0  501  503 -0.00000000000E+00 -0.00000000000E+00 -0.18967062239E+03  0.18967062239E+03  0.00000000000E+00 0. -1.
          6    1    1    2  501    0 -0.16857418486E+02  0.11661852168E+01 -0.13207992360E+03  0.21831087642E+03  0.17300000000E+03 0. -1.
         -6    1    1    2    0  502  0.16857418486E+02 -0.11661852168E+01  0.50735670125E+03  0.53630714600E+03  0.17300000000E+03 0.  1.
</event>
<event>
 4    1  0.5956049E+000  0.1000000E+03  0.7546771E-02  0.1280296E+00
         21   -1    0    0  501  502  0.00000000000E+00  0.00000000000E+00  0.18439174320E+04  0.18439174320E+04  0.00000000000E+00 0.  1.
         21   -1    0    0  502  503 -0.00000000000E+00 -0.00000000000E+00 -0.24919603172E+02  0.24919603172E+02  0.00000000000E+00 0. -1.
          6    1    1    2  501    0  0.18168522919E+02 -0.32548790762E+02  0.14367769655E+04  0.14476348185E+04  0.17300000000E+03 0.  1.
         -6    1    1    2    0  503 -0.18168522919E+02  0.32548790762E+02  0.38222086332E+03  0.42120221671E+03  0.17300000000E+03 0.  1.
</event>
<event>
 4    1  0.5956049E+000  0.1000000E+03  0.7546771E-02  0.1280296E+00
         21   -1    0    0  503  502  0.00000000000E+00  0.00000000000E+00  0.13520661953E+04  0.13520661953E+04  0.00000000000E+00 0. -1.
         21   -1    0    0  501  503 -0.00000000000E+00 -0.00000000000E+00 -0.33280615733E+02  0.33280615733E+02  0.00000000000E+00 0.  1.
          6    1    1    2  501    0 -0.33776320920E+02 -0.10508940104E+03  0.48403321361E+03  0.52573926422E+03  0.17300000000E+03 0.  1.
         -6    1    1    2    0  502  0.33776320920E+02  0.10508940104E+03  0.83475236594E+03  0.85960754680E+03  0.17300000000E+03 0.  1.
</event>
<event>
 4    1  0.5956049E+000  0.1000000E+03  0.7546771E-02  0.1280296E+00
         21   -1    0    0  503  502  0.00000000000E+00  0.00000000000E+00  0.88705935389E+03  0.88705935389E+03  0.00000000000E+00 0. -1.
         21   -1    0    0  501  503 -0.00000000000E+00 -0.00000000000E+00 -0.37047464724E+02  0.37047464724E+02  0.00000000000E+00 0.  1.
          6    1    1    2  501    0 -0.15286850754E+02 -0.62452782621E+01  0.29351110619E+03  0.34110183342E+03  0.17300000000E+03 0.  1.
         -6    1    1    2    0  502  0.15286850754E+02  0.62452782621E+01  0.55650078298E+03  0.58300498519E+03  0.17300000000E+03 0.  1.
</event>
<event>
 4    1  0.5956049E+000  0.1000000E+03  0.7546771E-02  0.1280296E+00
         21   -1    0    0  503  502  0.00000000000E+00  0.00000000000E+00  0.56126490110E+02  0.56126490110E+02  0.00000000000E+00 0. -1.
         21   -1    0    0  501  503 -0.00000000000E+00 -0.00000000000E+00 -0.92629202431E+03  0.92629202431E+03  0.00000000000E+00 0.  1.
          6    1    1    2  501    0  0.26985937021E+01 -0.51181785298E+01 -0.75481522636E+03  0.77440848659E+03  0.17300000000E+03 0.  1.
         -6    1    1    2    0  502 -0.26985937021E+01  0.51181785298E+01 -0.11535030784E+03  0.20801002783E+03  0.17300000000E+03 0.  1.
</event>
<event>
 4    1  0.5956049E+000  0.1000000E+03  0.7546771E-02  0.1280296E+00
         21   -1    0    0  501  502  0.00000000000E+00  0.00000000000E+00  0.44135108244E+03  0.44135108244E+03  0.00000000000E+00 0. -1.
         21   -1    0    0  502  503 -0.00000000000E+00 -0.00000000000E+00 -0.10077378182E+03  0.10077378182E+03  0.00000000000E+00 0. -1.
          6    1    1    2  501    0 -0.98403337817E+02  0.67861167854E+02  0.19098403319E+03  0.28406382369E+03  0.17300000000E+03 0. -1.
         -6    1    1    2    0  503  0.98403337817E+02 -0.67861167854E+02  0.14959326743E+03  0.25806104056E+03  0.17300000000E+03 0. -1.
</event>
<event>
 4    1  0.5956049E+000  0.1000000E+03  0.7546771E-02  0.1280296E+00
         21   -1    0    0  503  502  0.00000000000E+00  0.00000000000E+00  0.55124160546E+02  0.55124160546E+02  0.00000000000E+00 0.  1.
         21   -1    0    0  501  503 -0.00000000000E+00 -0.00000000000E+00 -0.95284990962E+03  0.95284990962E+03  0.00000000000E+00 0.  1.
          6    1    1    2  501    0 -0.12890852306E+03  0.76719176481E+02 -0.42767739634E+03  0.48511874289E+03  0.17300000000E+03 0.  1.
         -6    1    1    2    0  502  0.12890852306E+03 -0.76719176481E+02 -0.47004835273E+03  0.52285532727E+03  0.17300000000E+03 0.  1.
</event>
<event>
 4    1  0.5956049E+000  0.1000000E+03  0.7546771E-02  0.1280296E+00
         21   -1    0    0  503  502  0.00000000000E+00  0.00000000000E+00  0.46533360525E+03  0.46533360525E+03  0.00000000000E+00 0. -1.
         21   -1    0    0  501  503 -0.00000000000E+00 -0.00000000000E+00 -0.20023078006E+03  0.20023078006E+03  0.00000000000E+00 0.  1.
          6    1    1    2  501    0 -0.58325072879E+02 -0.40169452621E+02 -0.13052673222E+03  0.22799479572E+03  0.17300000000E+03 0.  1.
         -6    1    1    2    0  502  0.58325072879E+02  0.40169452621E+02  0.39562955740E+03  0.43756958960E+03  0.17300000000E+03 0. -1.
</event>
<event>
 4    1  0.5956049E+000  0.1000000E+03  0.7546771E-02  0.1280296E+00
         21   -1    0    0  501  502  0.00000000000E+00  0.00000000000E+00  0.78790132623E+03  0.78790132623E+03  0.00000000000E+00 0.  1.
         21   -1    0    0  502  503 -0.00000000000E+00 -0.00000000000E+00 -0.90275933372E+02  0.90275933372E+02  0.00000000000E+00 0.  1.
          6    1    1    2  501    0  0.58402724695E+01 -0.14140672317E+03  0.58835717877E+03  0.62938314241E+03  0.17300000000E+03 0.  1.
         -6    1    1    2    0  503 -0.58402724695E+01  0.14140672317E+03  0.10926821409E+03  0.24879411720E+03  0.17300000000E+03 0.  1.
</event>
<event>
 4    1  0.5956049E+000  0.1000000E+03  0.7546771E-02  0.1280296E+00
         21   -1    0    0  501  502  0.00000000000E+00  0.00000000000E+00  0.41590000494E+02  0.41590000494E+02  0.00000000000E+00 0.  1.
         21   -1    0    0  502  503 -0.00000000000E+00 -0.00000000000E+00 -0.91361367879E+03  0.91361367879E+03  0.00000000000E+00 0.  1.
          6    1    1    2  501    0  0.44876138328E+02 -0.77611769004E+02 -0.44959604328E+03  0.49000311898E+03  0.17300000000E+03 0.  1.
         -6    1    1    2    0  503 -0.44876138328E+02  0.77611769004E+02 -0.42242763501E+03  0.46520056030E+03  0.17300000000E+03 0.  1.
</event>
<event>
 4    1  0.5956049E+000  0.1000000E+03  0.7546771E-02  0.1280296E+00
         21   -1    0    0  503  502  0.00000000000E+00  0.00000000000E+00  0.48967221290E+03  0.48967221290E+03  0.00000000000E+00 0. -1.
         21   -1    0    0  501  503 -0.00000000000E+00 -0.00000000000E+00 -0.67240422043E+02  0.67240422043E+02  0.00000000000E+00 0. -1.
          6    1    1    2  501    0 -0.17524619276E+02  0.24906158914E+02  0.14140796462E+03  0.22550530258E+03  0.17300000000E+03 0. -1.
         -6    1    1    2    0  502  0.17524619276E+02 -0.24906158914E+02  0.28102382624E+03  0.33140733237E+03  0.17300000000E+03 0. -1.
</event>
<event>
 4    1  0.5956049E+000  0.1000000E+03  0.7546771E-02  0.1280296E+00
         21   -1    0    0  501  502  0.00000000000E+00  0.00000000000E+00  0.57221428727E+02  0.57221428727E+02  0.00000000000E+00 0. -1.
         21   -1    0    0  502  503 -0.00000000000E+00 -0.00000000000E+00 -0.58849679177E+03  0.58849679177E+03  0.00000000000E+00 0. -1.
          6    1    1    2  501    0 -0.17703946234E+02 -0.56411065372E+02 -0.23781991321E+03  0.29997158054E+03  0.17300000000E+03 0. -1.
         -6    1    1    2    0  503  0.17703946234E+02  0.56411065372E+02 -0.29345544983E+03  0.34574663996E+03  0.17300000000E+03 0. -1.
</event>
<event>
 4    1  0.5956049E+000  0.1000000E+03  0.7546771E-02  0.1280296E+00
         21   -1    0    0  503  502  0.00000000000E+00  0.00000000000E+00  0.40534130722E+03  0.40534130722E+03  0.00000000000E+00 0. -1.
         21   -1    0    0  501  503 -0.00000000000E+00 -0.00000000000E+00 -0.19730248740E+03  0.19730248740E+03  0.00000000000E+00 0. -1.
          6    1    1    2  501    0 -0.15858855541E+03  0.55997574639E+02 -0.53154815974E+02  0.24706374225E+03  0.17300000000E+03 0. -1.
         -6    1    1    2    0  502  0.15858855541E+03 -0.55997574639E+02  0.26119363579E+03  0.35558005238E+03  0.17300000000E+03 0. -1.
</event>
<event>
 4    1  0.5956049E+000  0.1000000E+03  0.7546771E-02  0.1280296E+00
         21   -1    0    0  501  502  0.00000000000E+00  0.00000000000E+00  0.37843060849E+03  0.37843060849E+03  0.00000000000E+00 0. -1.
         21   -1    0    0  502  503 -0.00000000000E+00 -0.00000000000E+00 -0.18028484158E+03  0.18028484158E+03  0.00000000000E+00 0.  1.
          6    1    1    2  501    0 -0.33958187674E+02  0.15899110559E+02  0.30449368047E+03  0.35220922996E+03  0.17300000000E+03 0. -1.
         -6    1    1    2    0  503  0.33958187674E+02 -0.15899110559E+02 -0.10634791356E+03  0.20650622011E+03  0.17300000000E+03 0.  1.
</event>
<event>
 4    1  0.5956049E+000  0.1000000E+03  0.7546771E-02  0.1280296E+00
         21   -1    0    0  501  502  0.00000000000E+00  0.00000000000E+00  0.43063796420E+02  0.43063796420E+02  0.00000000000E+00 0.  1.
         21   -1    0    0  502  503 -0.00000000000E+00 -0.00000000000E+00 -0.13482067697E+04  0.13482067697E+04  0.00000000000E+00 0.  1.
          6    1    1    2  501    0  0.44787134822E+02 -0.11591592434E+03 -0.32738278998E+03  0.39057762370E+03  0.17300000000E+03 0.  1.
         -6    1    1    2    0  503 -0.44787134822E+02  0.11591592434E+03 -0.97776018325E+03  0.10006929424E+04  0.17300000000E+03 0.  1.
</event>
<event>
 4    1  0.5956049E+000  0.1000000E+03  0.7546771E-02  0.1280296E+00
         21   -1    0    0  501  502  0.00000000000E+00  0.00000000000E+00  0.25259913193E+03  0.25259913193E+03  0.00000000000E+00 0.  1.
         21   -1    0    0  502  503 -0.00000000000E+00 -0.00000000000E+00 -0.19292526878E+04  0.19292526878E+04  0.00000000000E+00 0.  1.
          6    1    1    2  501    0 -0.18639330920E+03  0.83317091268E+01  0.17755382966E+03  0.31026802207E+03  0.17300000000E+03 0.  1.
         -6    1    1    2    0  503  0.18639330920E+03 -0.83317091268E+01 -0.18542073855E+04  0.18715837976E+04  0.17300000000E+03 0.  1.
</event>
<event>
 4    1  0.5956049E+000  0.1000000E+03  0.7546771E-02  0.1280296E+00
         21   -1    0    0  501  502  0.00000000000E+00  0.00000000000E+00  0.13574333883E+04  0.13574333883E+04  0.00000000000E+00 0.  1.
         21   -1    0    0  502  503 -0.00000000000E+00 -0.00000000000E+00 -0.51130168957E+02  0.51130168957E+02  0.00000000000E+00 0.  1.
          6    1    1    2  501    0 -0.11083632753E+03 -0.23595313715E+02  0.10894442900E+04  0.11089000367E+04  0.17300000000E+03 0.  1.
         -6    1    1    2    0  503  0.11083632753E+03  0.23595313715E+02  0.21685892934E+03  0.29966352058E+03  0.17300000000E+03 0.  1.
</event>
<event>
 4    1  0.5956049E+000  0.1000000E+03  0.7546771E-02  0.1280296E+00
         21   -1    0    0  503  502  0.00000000000E+00  0.00000000000E+00  0.37126852853E+03  0.37126852853E+03  0.00000000000E+00 0. -1.
         21   -1    0    0  501  503 -0.00000000000E+00 -0.00000000000E+00 -0.65835334899E+03  0.65835334899E+03  0.00000000000E+00 0.  1.
          6    1    1    2  501    0  0.30765167503E+03 -0.51115157737E+02 -0.50007728282E+03  0.61422194791E+03  0.17300000000E+03 0.  1.
         -6    1    1    2    0  502 -0.30765167503E+03  0.51115157737E+02  0.21299246236E+03  0.41539992961E+03  0.17300000000E+03 0. -1.
</event>
<event>
 4    1  0.5956049E+000  0.1000000E+03  0.7546771E-02  0.1280296E+00
         21   -1    0    0  503  502  0.00000000000E+00  0.00000000000E+00  0.22123332497E+03  0.22123332497E+03  0.00000000000E+00 0. -1.
         21   -1    0    0  501  503 -0.00000000000E+00 -0.00000000000E+00 -0.30380969246E+03  0.30380969246E+03  0.00000000000E+00 0.  1.
          6    1    1    2  501    0 -0.99859699106E+02 -0.15649733211E+02 -0.20788185705E+03  0.28872260069E+03  0.17300000000E+03 0.  1.
         -6    1    1    2    0  502  0.99859699106E+02  0.15649733211E+02  0.12530548957E+03  0.23632041675E+03  0.17300000000E+03 0. -1.
</event>
<event>
 4    1  0.5956049E+000  0.1000000E+03  0.7546771E-02  0.1280296E+00
         21   -1    0    0  503  502  0.00000000000E+00  0.00000000000E+00  0.40528445264E+03  0.40528445264E+03  0.00000000000E+00 0. -1.
         21   -1    0    0  501  503 -0.00000000000E+00 -0.00000000000E+00 -0.23181723364E+03  0.23181723364E+03  0.00000000000E+00 0.  1.
          6    1    1    2  501    0  0.19405810361E+03  0.37314522594E+02 -0.77496425755E+02  0.27383501817E+03  0.17300000000E+03 0.  1.
         -6    1    1    2    0  502 -0.19405810361E+03 -0.37314522594E+02  0.25096364475E+03  0.36326666811E+03  0.17300000000E+03 0. -1.
</event>
<event>
 4    1  0.5956049E+000  0.1000000E+03  0.7546771E-02  0.1280296E+00
         21   -1    0    0  503  502  0.00000000000E+00  0.00000000000E+00  0.14713875414E+03  0.14713875414E+03  0.00000000000E+00 0. -1.
         21   -1    0    0  501  503 -0.00000000000E+00 -0.00000000000E+00 -0.50723040082E+03  0.50723040082E+03  0.00000000000E+00 0.  1.
          6    1    1    2  501    0 -0.65790644494E+02  0.17015528259E+02 -0.41983230823E+03  0.45913625879E+03  0.17300000000E+03 0.  1.
         -6    1    1    2    0  502  0.65790644494E+02 -0.17015528259E+02  0.59740661551E+02  0.19523289617E+03  0.17300000000E+03 0. -1.
</event>
<event>
 4    1  0.5956049E+000  0.1000000E+03  0.7546771E-02  0.1280296E+00
         21   -1    0    0  501  502  0.00000000000E+00  0.00000000000E+00  0.44738244130E+03  0.44738244130E+03  0.00000000000E+00 0. -1.
         21   -1    0    0  502  503 -0.00000000000E+00 -0.00000000000E+00 -0.11262231541E+03  0.11262231541E+03  0.00000000000E+00 0. -1.
          6    1    1    2  501    0 -0.75582782749E+02 -0.83189193625E+02  0.27771117828E+03  0.34595620753E+03  0.17300000000E+03 0. -1.
         -6    1    1    2    0  503  0.75582782749E+02  0.83189193625E+02  0.57048947609E+02  0.21404854918E+03  0.17300000000E+03 0. -1.
</event>
<event>
 4    1  0.5956049E+000  0.1000000E+03  0.7546771E-02  0.1280296E+00
         21   -1    0    0  501  502  0.00000000000E+00  0.00000000000E+00  0.26361573596E+04  0.26361573596E+04  0.00000000000E+00 0. -1.
         21   -1    0    0  502  503 -0.00000000000E+00 -0.00000000000E+00 -0.14147527448E+02  0.14147527448E+02  0.00000000000E+00 0. -1.
          6    1    1    2  501    0 -0.36516271637E+02 -0.73811025952E+02  0.14769140923E+04  0.14892903484E+04  0.17300000000E+03 0. -1.
         -6    1    1    2    0  503  0.36516271637E+02  0.73811025952E+02  0.11450957398E+04  0.11610145387E+04  0.17300000000E+03 0. -1.
</event>
<event>
 4    1  0.5956049E+000  0.1000000E+03  0.7546771E-02  0.1280296E+00
         21   -1    0    0  501  502  0.00000000000E+00  0.00000000000E+00  0.50832532070E+03  0.50832532070E+03  0.00000000000E+00 0. -1.
         21   -1    0    0  502  503 -0.00000000000E+00 -0.00000000000E+00 -0.78302717066E+02  0.78302717066E+02  0.00000000000E+00 0. -1.
          6    1    1    2  501    0 -0.69696366491E+02 -0.33658090313E+02  0.30663380260E+03  0.36047709975E+03  0.17300000000E+03 0. -1.
         -6    1    1    2    0  503  0.69696366491E+02  0.33658090313E+02  0.12338880103E+03  0.22615093802E+03  0.17300000000E+03 0. -1.
</event>
<event>
 4    1  0.5956049E+000  0.1000000E+03  0.7546771E-02  0.1280296E+00
         21   -1    0    0  501  502  0.00000000000E+00  0.00000000000E+00  0.41589341393E+02  0.41589341393E+02  0.00000000000E+00 0.  1.
         21   -1    0    0  502  503 -0.00000000000E+00 -0.00000000000E+00 -0.78446526443E+03  0.78446526443E+03  0.00000000000E+00 0. -1.
          6    1    1    2  501    0 -0.51889006492E+02  0.12161784523E+01 -0.36786198717E+03  0.40981140746E+03  0.17300000000E+03 0. -1.
         -6    1    1    2    0  503  0.51889006492E+02 -0.12161784523E+01 -0.37501393587E+03  0.41624319836E+03  0.17300000000E+03 0. -1.
</event>
<event>
 4    1  0.5956049E+000  0.1000000E+03  0.7546771E-02  0.1280296E+00
         21   -1    0    0  501  502  0.00000000000E+00  0.00000000000E+00  0.56479352263E+03  0.56479352263E+03  0.00000000000E+00 0.  1.
         21   -1    0    0  502  503 -0.00000000000E+00 -0.00000000000E+00 -0.16119883716E+03  0.16119883716E+03  0.00000000000E+00 0. -1.
          6    1    1    2  501    0 -0.62355794941E+02 -0.80561398683E+02  0.47277734981E+03  0.51363976347E+03  0.17300000000E+03 0. -1.
         -6    1    1    2    0  503  0.62355794941E+02  0.80561398683E+02 -0.69182664344E+02  0.21235259633E+03  0.17300000000E+03 0. -1.
</event>
<event>
 4    1  0.5956049E+000  0.1000000E+03  0.7546771E-02  0.1280296E+00
         21   -1    0    0  501  502  0.00000000000E+00  0.00000000000E+00  0.81292390328E+03  0.81292390328E+03  0.00000000000E+00 0.  1.
         21   -1    0    0  502  503 -0.00000000000E+00 -0.00000000000E+00 -0.86474396860E+02  0.86474396860E+02  0.00000000000E+00 0. -1.
          6    1    1    2  501    0 -0.39824415598E+02 -0.19660802890E+03  0.38236922498E+03  0.46516225698E+03  0.17300000000E+03 0. -1.
         -6    1    1    2    0  503  0.39824415598E+02  0.19660802890E+03  0.34408028144E+03  0.43423604317E+03  0.17300000000E+03 0. -1.
</event>
<event>
 4    1  0.5956049E+000  0.1000000E+03  0.7546771E-02  0.1280296E+00
         21   -1    0    0  501  502  0.00000000000E+00  0.00000000000E+00  0.45700435765E+03  0.45700435765E+03  0.00000000000E+00 0.  1.
         21   -1    0    0  502  503 -0.00000000000E+00 -0.00000000000E+00 -0.88635990562E+02  0.88635990562E+02  0.00000000000E+00 0. -1.
          6    1    1    2  501    0  0.43802194617E+02 -0.87904489613E+02  0.14279695316E+03  0.24487915669E+03  0.17300000000E+03 0. -1.
         -6    1    1    2    0  503 -0.43802194617E+02  0.87904489613E+02  0.22557141393E+03  0.30076119153E+03  0.17300000000E+03 0. -1.
</event>
<event>
 4    1  0.5956049E+000  0.1000000E+03  0.7546771E-02  0.1280296E+00
         21   -1    0    0  501  502  0.00000000000E+00  0.00000000000E+00  0.53205091750E+02  0.53205091750E+02  0.00000000000E+00 0.  1.
         21   -1    0    0  502  503 -0.00000000000E+00 -0.00000000000E+00 -0.78659832839E+03  0.78659832839E+03  0.00000000000E+00 0. -1.
          6    1    1    2  501    0 -0.63072643387E+02 -0.81543892468E+02 -0.44054496562E+03  0.48439284829E+03  0.17300000000E+03 0. -1.
         -6    1    1    2    0  503  0.63072643387E+02  0.81543892468E+02 -0.29284827102E+03  0.35541057185E+03  0.17300000000E+03 0. -1.
</event>
<event>
 4    1  0.5956049E+000  0.1000000E+03  0.7546771E-02  0.1280296E+00
         21   -1    0    0  501  502  0.00000000000E+00  0.00000000000E+00  0.12879440490E+04  0.12879440490E+04  0.00000000000E+00 0. -1.
         21   -1    0    0  502  503 -0.00000000000E+00 -0.00000000000E+00 -0.50268746533E+02  0.50268746533E+02  0.00000000000E+00 0.  1.
          6    1    1    2  501    0 -0.26858906236E+01 -0.14640626634E+03  0.92292692626E+03  0.95034999871E+03  0.17300000000E+03 0. -1.
         -6    1    1    2    0  503  0.26858906236E+01  0.14640626634E+03  0.31474837618E+03  0.38786279680E+03  0.17300000000E+03 0. -1.
</event>
<event>
 4    1  0.5956049E+000  0.1000000E+03  0.7546771E-02  0.1280296E+00
         21   -1    0    0  503  502  0.00000000000E+00  0.00000000000E+00  0.26982514231E+03  0.26982514231E+03  0.00000000000E+00 0. -1.
         21   -1    0    0  501  503 -0.00000000000E+00 -0.00000000000E+00 -0.27028362142E+03  0.27028362142E+03  0.00000000000E+00 0.  1.
          6    1    1    2  501    0 -0.19244683781E+03 -0.30190408775E+02 -0.71314217495E+02  0.27011472337E+03  0.17300000000E+03 0.  1.
         -6    1    1    2    0  502  0.19244683781E+03  0.30190408775E+02  0.70855738377E+02  0.26999404036E+03  0.17300000000E+03 0. -1.
</event>
<event>
 4    1  0.5956049E+000  0.1000000E+03  0.7546771E-02  0.1280296E+00
         21   -1    0    0  503  502  0.00000000000E+00  0.00000000000E+00  0.54439660926E+03  0.54439660926E+03  0.00000000000E+00 0.  1.
         21   -1    0    0  501  503 -0.00000000000E+00 -0.00000000000E+00 -0.10958797509E+03  0.10958797509E+03  0.00000000000E+00 0.  1.
          6    1    1    2  501    0 -0.11924543258E+03  0.46190786119E+02  0.62564751210E+02  0.22404555342E+03  0.17300000000E+03 0.  1.
         -6    1    1    2    0  502  0.11924543258E+03 -0.46190786119E+02  0.37224388296E+03  0.42993903093E+03  0.17300000000E+03 0.  1.
</event>
<event>
 4    1  0.5956049E+000  0.1000000E+03  0.7546771E-02  0.1280296E+00
         21   -1    0    0  503  502  0.00000000000E+00  0.00000000000E+00  0.11183932585E+03  0.11183932585E+03  0.00000000000E+00 0.  1.
         21   -1    0    0  501  503 -0.00000000000E+00 -0.00000000000E+00 -0.11581980950E+04  0.11581980950E+04  0.00000000000E+00 0.  1.
          6    1    1    2  501    0  0.17394925570E+03 -0.25369405632E+03 -0.64774270397E+03  0.73764397125E+03  0.17300000000E+03 0.  1.
         -6    1    1    2    0  502 -0.17394925570E+03  0.25369405632E+03 -0.39861606523E+03  0.53239344965E+03  0.17300000000E+03 0.  1.
</event>
<event>
 4    1  0.5956049E+000  0.1000000E+03  0.7546771E-02  0.1280296E+00
         21   -1    0    0  503  502  0.00000000000E+00  0.00000000000E+00  0.17125440845E+03  0.17125440845E+03  0.00000000000E+00 0.  1.
         21   -1    0    0  501  503 -0.00000000000E+00 -0.00000000000E+00 -0.36608394644E+03  0.36608394644E+03  0.00000000000E+00 0.  1.
          6    1    1    2  501    0  0.95097807917E+02 -0.11585246403E+02 -0.26220824666E+03  0.32842042510E+03  0.17300000000E+03 0.  1.
         -6    1    1    2    0  502 -0.95097807917E+02  0.11585246403E+02  0.67378708677E+02  0.20891792979E+03  0.17300000000E+03 0.  1.
</event>
<event>
 4    1  0.5956049E+000  0.1000000E+03  0.7546771E-02  0.1280296E+00
         21   -1    0    0  503  502  0.00000000000E+00  0.00000000000E+00  0.91650395394E+02  0.91650395394E+02  0.00000000000E+00 0.  1.
         21   -1    0    0  501  503 -0.00000000000E+00 -0.00000000000E+00 -0.43011884978E+03  0.43011884978E+03  0.00000000000E+00 0.  1.
          6    1    1    2  501    0  0.53234760624E+02  0.77952456748E+02 -0.20090722091E+03  0.28143069602E+03  0.17300000000E+03 0.  1.
         -6    1    1    2    0  502 -0.53234760624E+02 -0.77952456748E+02 -0.13756123348E+03  0.24033854915E+03  0.17300000000E+03 0.  1.
</event>
<event>
 4    1  0.5956049E+000  0.1000000E+03  0.7546771E-02  0.1280296E+00
         21   -1    0    0  501  502  0.00000000000E+00  0.00000000000E+00  0.10385525274E+04  0.10385525274E+04  0.00000000000E+00 0. -1.
         21   -1    0    0  502  503 -0.00000000000E+00 -0.00000000000E+00 -0.79275148114E+02  0.79275148114E+02  0.00000000000E+00 0. -1.
          6    1    1    2  501    0 -0.20418273365E+02 -0.99419397669E+02  0.87931624708E+03  0.90190198187E+03  0.17300000000E+03 0. -1.
         -6    1    1    2    0  503  0.20418273365E+02  0.99419397669E+02  0.79961132234E+02  0.21592569367E+03  0.17300000000E+03 0. -1.
</event>
<event>
 4    1  0.5956049E+000  0.1000000E+03  0.7546771E-02  0.1280296E+00
         21   -1    0    0  501  502  0.00000000000E+00  0.00000000000E+00  0.14038079990E+03  0.14038079990E+03  0.00000000000E+00 0. -1.
         21   -1    0    0  502  503 -0.00000000000E+00 -0.00000000000E+00 -0.42590250431E+03  0.42590250431E+03  0.00000000000E+00 0. -1.
          6    1    1    2  501    0 -0.32182003290E+02  0.39864755701E+02  0.48336971377E+02  0.18678956846E+03  0.17300000000E+03 0. -1.
         -6    1    1    2    0  503  0.32182003290E+02 -0.39864755701E+02 -0.33385867578E+03  0.37949373575E+03  0.17300000000E+03 0. -1.
</event>
<event>
 4    1  0.5956049E+000  0.1000000E+03  0.7546771E-02  0.1280296E+00
         21   -1    0    0  501  502  0.00000000000E+00  0.00000000000E+00  0.83178557714E+03  0.83178557714E+03  0.00000000000E+00 0. -1.
         21   -1    0    0  502  503 -0.00000000000E+00 -0.00000000000E+00 -0.16828881211E+03  0.16828881211E+03  0.00000000000E+00 0.  1.
          6    1    1    2  501    0 -0.13311030475E+03 -0.63747066243E+01  0.73777222137E+03  0.76941265959E+03  0.17300000000E+03 0. -1.
         -6    1    1    2    0  503  0.13311030475E+03  0.63747066243E+01 -0.74275456341E+02  0.23066172966E+03  0.17300000000E+03 0.  1.
</event>
