<event>
 4    1  0.5758867E+000  0.1000000E+03  0.7546771E-02  0.1280296E+00
         21   -1    0    0  501  502  0.00000000000E+00  0.00000000000E+00  0.50151744054E+03  0.50151744054E+03  0.00000000000E+00 0. -1.
         21   -1    0    0  502  503 -0.00000000000E+00 -0.00000000000E+00 -0.10771007855E+03  0.10771007855E+03  0.00000000000E+00 0.  1.
          6    1    1    2  501    0  0.55821920353E+02 -0.67392753397E+02  0.36490721716E+03  0.41321198814E+03  0.17300000000E+03 0. -1.
         -6    1    1    2    0  503 -0.55821920353E+02  0.67392753397E+02  0.28900144828E+02  0.19601553095E+03  0.17300000000E+03 0.  1.
</event>
<event>
 4    1  0.5758867E+000  0.1000000E+03  0.7546771E-02  0.1280296E+00
         21   -1    0    0  501  502  0.00000000000E+00  0.00000000000E+00  0.28656000839E+02  0.28656000839E+02  0.00000000000E+00 0. -1.
         21   -1    0    0  502  503 -0.00000000000E+00 -0.00000000000E+00 -0.13826600976E+04  0.13826600976E+04  0.00000000000E+00 0.  1.
          6    1    1    2  501    0  0.52263882495E+02 -0.77840577942E+02 -0.57054031719E+03  0.60351961238E+03  0.17300000000E+03 0. -1.
         -6    1    1    2    0  503 -0.52263882495E+02  0.77840577942E+02 -0.78346377953E+03  0.80779648602E+03  0.17300000000E+03 0.  1.
</event>
<event>
 4    1  0.5758867E+000  0.1000000E+03  0.7546771E-02  0.1280296E+00
         21   -1    0    0  503  502  0.00000000000E+00  0.00000000000E+00  0.27697425335E+03  0.27697425335E+03  0.00000000000E+00 0. -1.
         21   -1    0    0  501  503 -0.00000000000E+00 -0.00000000000E+00 -0.23453010773E+03  0.23453010773E+03  0.00000000000E+00 0. -1.
          6    1    1    2  501    0  0.18077013261E+01 -0.68719792631E+02 -0.15346115540E+03  0.24125713233E+03  0.17300000000E+03 0. -1.
         -6    1    1    2    0  502 -0.18077013261E+01  0.68719792631E+02  0.19590530102E+03  0.27024722876E+03  0.17300000000E+03 0. -1.
</event>
<event>
 4    1  0.5758867E+000  0.1000000E+03  0.7546771E-02  0.1280296E+00
         21   -1    0    0  501  502  0.00000000000E+00  0.00000000000E+00  0.11297767036E+03  0.11297767036E+03  0.00000000000E+00 0. -1.
         21   -1    0    0  502  503 -0.00000000000E+00 -0.00000000000E+00 -0.10915194105E+04  0.10915194105E+04  0.00000000000E+00 0. -1.
          6    1    1    2  501    0  0.89030969802E+02  0.90876977460E+02 -0.12750669482E+02  0.21512024123E+03  0.17300000000E+03 0. -1.
         -6    1    1    2    0  503 -0.89030969802E+02 -0.90876977460E+02 -0.96579107066E+03  0.98937683963E+03  0.17300000000E+03 0. -1.
</event>
<event>
 4    1  0.5758867E+000  0.1000000E+03  0.7546771E-02  0.1280296E+00
         21   -1    0    0  501  502  0.00000000000E+00  0.00000000000E+00  0.13322627705E+03  0.13322627705E+03  0.00000000000E+00 0. -1.
         21   -1    0    0  502  503 -0.00000000000E+00 -0.00000000000E+00 -0.53224287845E+03  0.53224287845E+03  0.00000000000E+00 0. -1.
          6    1    1    2  501    0 -0.49329141115E+02  0.42181736541E+02  0.40086613307E+02  0.18907300079E+03  0.17300000000E+03 0. -1.
         -6    1    1    2    0  503  0.49329141115E+02 -0.42181736541E+02 -0.43910321470E+03  0.47639615471E+03  0.17300000000E+03 0. -1.
</event>
<event>
 4    1  0.5758867E+000  0.1000000E+03  0.7546771E-02  0.1280296E+00
         21   -1    0    0  501  502  0.00000000000E+00  0.00000000000E+00  0.70559497173E+03  0.70559497173E+03  0.00000000000E+00 0. -1.
         21   -1    0    0  502  503 -0.00000000000E+00 -0.00000000000E+00 -0.64671957625E+02  0.64671957625E+02  0.00000000000E+00 0. -1.
          6    1    1    2  501    0  0.85227670775E+02  0.29900511880E+02  0.47707060319E+03  0.51544462060E+03  0.17300000000E+03 0. -1.
         -6    1    1    2    0  503 -0.85227670775E+02 -0.29900511880E+02  0.16385241091E+03  0.25482230875E+03  0.17300000000E+03 0. -1.
</event>
<event>
 4    1  0.5758867E+000  0.1000000E+03  0.7546771E-02  0.1280296E+00
         21   -1    0    0  501  502  0.00000000000E+00  0.00000000000E+00  0.23064527613E+04  0.23064527613E+04  0.00000000000E+00 0. -1.
         21   -1    0    0  502  503 -0.00000000000E+00 -0.00000000000E+00 -0.28001487279E+02  0.28001487279E+02  0.00000000000E+00 0. -1.
          6    1    1    2  501    0 -0.12572637190E+02 -0.15067215859E+03  0.64040966201E+03  0.68037761999E+03  0.17300000000E+03 0. -1.
         -6    1    1    2    0  503  0.12572637190E+02  0.15067215859E+03  0.16380416120E+04  0.16540766286E+04  0.17300000000E+03 0. -1.
</event>
<event>
 4    1  0.5758867E+000  0.1000000E+03  0.7546771E-02  0.1280296E+00
         21   -1    0    0  503  502  0.00000000000E+00  0.00000000000E+00  0.78132981219E+03  0.78132981219E+03  0.00000000000E+00 0. -1.
         21   -1    0    0  501  503 -0.00000000000E+00 -0.00000000000E+00 -0.53253243109E+02  0.53253243109E+02  0.00000000000E+00 0. -1.
          6    1    1    2  501    0 -0.37966878282E+02  0.66472550553E+02  0.20798126182E+03  0.28114994058E+03  0.17300000000E+03 0. -1.
         -6    1    1    2    0  502  0.37966878282E+02 -0.66472550553E+02  0.52009530726E+03  0.55343311471E+03  0.17300000000E+03 0. -1.
</event>
<event>
 4    1  0.5758867E+000  0.1000000E+03  0.7546771E-02  0.1280296E+00
         21   -1    0    0  503  502  0.00000000000E+00  0.00000000000E+00  0.35135972536E+03  0.35135972536E+03  0.00000000000E+00 0. -1.
         21   -1    0    0  501  503 -0.00000000000E+00 -0.00000000000E+00 -0.17774850707E+03  0.17774850707E+03  0.00000000000E+00 0. -1.
          6    1    1    2  501    0  0.10341328617E+03  0.10965504579E+03 -0.18024097778E+02  0.23015734818E+03  0.17300000000E+03 0. -1.
         -6    1    1    2    0  502 -0.10341328617E+03 -0.10965504579E+03  0.19163531607E+03  0.29895088424E+03  0.17300000000E+03 0. -1.
</event>
<event>
 4    1  0.5758867E+000  0.1000000E+03  0.7546771E-02  0.1280296E+00
         21   -1    0    0  501  502  0.00000000000E+00  0.00000000000E+00  0.12379009405E+03  0.12379009405E+03  0.00000000000E+00 0. -1.
         21   -1    0    0  502  503 -0.00000000000E+00 -0.00000000000E+00 -0.51849296392E+03  0.51849296392E+03  0.00000000000E+00 0. -1.
          6    1    1    2  501    0 -0.31029442424E+02 -0.82847322220E+02  0.87213838094E+01  0.19450338720E+03  0.17300000000E+03 0. -1.
         -6    1    1    2    0  503  0.31029442424E+02  0.82847322220E+02 -0.40342425369E+03  0.44777967077E+03  0.17300000000E+03 0. -1.
</event>
<event>
 4    1  0.5758867E+000  0.1000000E+03  0.7546771E-02  0.1280296E+00
         21   -1    0    0  501  502  0.00000000000E+00  0.00000000000E+00  0.57627489452E+03  0.57627489452E+03  0.00000000000E+00 0. -1.
         21   -1    0    0  502  503 -0.00000000000E+00 -0.00000000000E+00 -0.10375969607E+03  0.10375969607E+03  0.00000000000E+00 0. -1.
          6    1    1    2  501    0  0.15600076748E+02  0.56845692930E+02  0.46214607823E+03  0.49697363393E+03  0.17300000000E+03 0. -1.
         -6    1    1    2    0  503 -0.15600076748E+02 -0.56845692930E+02  0.10369120223E+02  0.18306095666E+03  0.17300000000E+03 0. -1.
</event>
<event>
 4    1  0.5758867E+000  0.1000000E+03  0.7546771E-02  0.1280296E+00
         21   -1    0    0  503  502  0.00000000000E+00  0.00000000000E+00  0.59010262506E+02  0.59010262506E+02  0.00000000000E+00 0.  1.
         21   -1    0    0  501  503 -0.00000000000E+00 -0.00000000000E+00 -0.11722772054E+04  0.11722772054E+04  0.00000000000E+00 0.  1.
          6    1    1    2  501    0  0.22398461643E+02 -0.19662868531E+03 -0.53532712526E+03  0.59637962911E+03  0.17300000000E+03 0.  1.
         -6    1    1    2    0  502 -0.22398461643E+02  0.19662868531E+03 -0.57793981768E+03  0.63490783884E+03  0.17300000000E+03 0.  1.
</event>
<event>
 4    1  0.5758867E+000  0.1000000E+03  0.7546771E-02  0.1280296E+00
         21   -1    0    0  503  502  0.00000000000E+00  0.00000000000E+00  0.15576479213E+03  0.15576479213E+03  0.00000000000E+00 0.  1.
         21   -1    0    0  501  503 -0.00000000000E+00 -0.00000000000E+00 -0.41124972639E+03  0.41124972639E+03  0.00000000000E+00 0.  1.
          6    1    1    2  501    0  0.12761719236E+03  0.10670445332E+03 -0.21775442057E+03  0.32406477103E+03  0.17300000000E+03 0.  1.
         -6    1    1    2    0  502 -0.12761719236E+03 -0.10670445332E+03 -0.37730513683E+02  0.24294974749E+03  0.17300000000E+03 0.  1.
</event>
<event>
 4    1  0.5758867E+000  0.1000000E+03  0.7546771E-02  0.1280296E+00
         21   -1    0    0  503  502  0.00000000000E+00  0.00000000000E+00  0.14646047637E+03  0.14646047637E+03  0.00000000000E+00 0.  1.
         21   -1    0    0  501  503 -0.00000000000E+00 -0.00000000000E+00 -0.26972249401E+03  0.26972249401E+03  0.00000000000E+00 0.  1.
          6    1    1    2  501    0  0.67140605753E+01  0.39421730288E+01 -0.16375283598E+03  0.23833717845E+03  0.17300000000E+03 0.  1.
         -6    1    1    2    0  502 -0.67140605753E+01 -0.39421730288E+01  0.40490818344E+02  0.17784579193E+03  0.17300000000E+03 0.  1.
</event>
<event>
 4    1  0.5758867E+000  0.1000000E+03  0.7546771E-02  0.1280296E+00
         21   -1    0    0  503  502  0.00000000000E+00  0.00000000000E+00  0.66263489708E+02  0.66263489708E+02  0.00000000000E+00 0.  1.
         21   -1    0    0  501  503 -0.00000000000E+00 -0.00000000000E+00 -0.63891683965E+03  0.63891683965E+03  0.00000000000E+00 0.  1.
          6    1    1    2  501    0  0.74699224154E+02  0.16394967161E+02 -0.42510852813E+03  0.46529026395E+03  0.17300000000E+03 0.  1.
         -6    1    1    2    0  502 -0.74699224154E+02 -0.16394967161E+02 -0.14754482181E+03  0.23989006540E+03  0.17300000000E+03 0.  1.
</event>
<event>
 4    1  0.5758867E+000  0.1000000E+03  0.7546771E-02  0.1280296E+00
         21   -1    0    0  501  502  0.00000000000E+00  0.00000000000E+00  0.30531317822E+03  0.30531317822E+03  0.00000000000E+00 0.  1.
         21   -1    0    0  502  503 -0.00000000000E+00 -0.00000000000E+00 -0.12073021764E+03  0.12073021764E+03  0.00000000000E+00 0.  1.
          6    1    1    2  501    0 -0.84427926745E+01  0.70355997616E+02  0.14078587139E+03  0.23403185410E+03  0.17300000000E+03 0.  1.
         -6    1    1    2    0  503  0.84427926745E+01 -0.70355997616E+02  0.43797089196E+02  0.19201154176E+03  0.17300000000E+03 0.  1.
</event>
<event>
 4    1  0.5758867E+000  0.1000000E+03  0.7546771E-02  0.1280296E+00
         21   -1    0    0  501  502  0.00000000000E+00  0.00000000000E+00  0.37553523298E+03  0.37553523298E+03  0.00000000000E+00 0.  1.
         21   -1    0    0  502  503 -0.00000000000E+00 -0.00000000000E+00 -0.20842767279E+03  0.20842767279E+03  0.00000000000E+00 0.  1.
          6    1    1    2  501    0  0.44966804112E+02  0.74613753329E+02  0.29423983986E+03  0.35227164095E+03  0.17300000000E+03 0.  1.
         -6    1    1    2    0  503 -0.44966804112E+02 -0.74613753329E+02 -0.12713227968E+03  0.23169126482E+03  0.17300000000E+03 0.  1.
</event>
<event>
 4    1  0.5758867E+000  0.1000000E+03  0.7546771E-02  0.1280296E+00
         21   -1    0    0  501  502  0.00000000000E+00  0.00000000000E+00  0.20051351118E+03  0.20051351118E+03  0.00000000000E+00 0. -1.
         21   -1    0    0  502  503 -0.00000000000E+00 -0.00000000000E+00 -0.59324831944E+03  0.59324831944E+03  0.00000000000E+00 0. -1.
          6    1    1    2  501    0  0.81471745087E+02  0.57050709911E+02  0.12733699984E+03  0.23671953928E+03  0.17300000000E+03 0. -1.
         -6    1    1    2    0  503 -0.81471745087E+02 -0.57050709911E+02 -0.52007180811E+03  0.55704229134E+03  0.17300000000E+03 0. -1.
</event>
<event>
 4    1  0.5758867E+000  0.1000000E+03  0.7546771E-02  0.1280296E+00
         21   -1    0    0  503  502  0.00000000000E+00  0.00000000000E+00  0.53504389651E+02  0.53504389651E+02  0.00000000000E+00 0. -1.
         21   -1    0    0  501  503 -0.00000000000E+00 -0.00000000000E+00 -0.18103874575E+04  0.18103874575E+04  0.00000000000E+00 0. -1.
          6    1    1    2  501    0  0.24177118667E+03 -0.26283980984E+02 -0.11427393092E+04  0.11810699738E+04  0.17300000000E+03 0. -1.
         -6    1    1    2    0  502 -0.24177118667E+03  0.26283980984E+02 -0.61414375866E+03  0.68282187330E+03  0.17300000000E+03 0. -1.
</event>
<event>
 4    1  0.5758867E+000  0.1000000E+03  0.7546771E-02  0.1280296E+00
         21   -1    0    0  503  502  0.00000000000E+00  0.00000000000E+00  0.49942918467E+03  0.49942918467E+03  0.00000000000E+00 0. -1.
         21   -1    0    0  501  503 -0.00000000000E+00 -0.00000000000E+00 -0.17801778114E+03  0.17801778114E+03  0.00000000000E+00 0. -1.
          6    1    1    2  501    0 -0.42191707819E+02  0.12925436103E+03 -0.67884860009E+02  0.23026980756E+03  0.17300000000E+03 0. -1.
         -6    1    1    2    0  502  0.42191707819E+02 -0.12925436103E+03  0.38929626354E+03  0.44717715825E+03  0.17300000000E+03 0. -1.
</event>
<event>
 4    1  0.5758867E+000  0.1000000E+03  0.7546771E-02  0.1280296E+00
         21   -1    0    0  503  502  0.00000000000E+00  0.00000000000E+00  0.70750208108E+02  0.70750208108E+02  0.00000000000E+00 0. -1.
         21   -1    0    0  501  503 -0.00000000000E+00 -0.00000000000E+00 -0.79099640058E+03  0.79099640058E+03  0.00000000000E+00 0. -1.
          6    1    1    2  501    0 -0.15264233467E+01  0.12801540467E+03 -0.18125844902E+03  0.28137856909E+03  0.17300000000E+03 0. -1.
         -6    1    1    2    0  502  0.15264233467E+01 -0.12801540467E+03 -0.53898774345E+03  0.58036803960E+03  0.17300000000E+03 0. -1.
</event>
<event>
 4    1  0.5758867E+000  0.1000000E+03  0.7546771E-02  0.1280296E+00
         21   -1    0    0  501  502  0.00000000000E+00  0.00000000000E+00  0.28171980740E+03  0.28171980740E+03  0.00000000000E+00 0.  1.
         21   -1    0    0  502  503 -0.00000000000E+00 -0.00000000000E+00 -0.21440643302E+03  0.21440643302E+03  0.00000000000E+00 0.  1.
          6    1    1    2  501    0 -0.20410048925E+02 -0.61646804832E+02  0.19720805581E+03  0.27025342906E+03  0.17300000000E+03 0.  1.
         -6    1    1    2    0  503  0.20410048925E+02  0.61646804832E+02 -0.12989468143E+03  0.22587281135E+03  0.17300000000E+03 0.  1.
</event>
<event>
 4    1  0.5758867E+000  0.1000000E+03  0.7546771E-02  0.1280296E+00
         21   -1    0    0  501  502  0.00000000000E+00  0.00000000000E+00  0.19527894694E+03  0.19527894694E+03  0.00000000000E+00 0.  1.
         21   -1    0    0  502  503 -0.00000000000E+00 -0.00000000000E+00 -0.40445191617E+03  0.40445191617E+03  0.00000000000E+00 0.  1.
          6    1    1    2  501    0  0.46238357669E+02 -0.18980204608E+02  0.12563316713E+03  0.21956986717E+03  0.17300000000E+03 0.  1.
         -6    1    1    2    0  503 -0.46238357669E+02  0.18980204608E+02 -0.33480613636E+03  0.38016099594E+03  0.17300000000E+03 0.  1.
</event>
<event>
 4    1  0.5758867E+000  0.1000000E+03  0.7546771E-02  0.1280296E+00
         21   -1    0    0  501  502  0.00000000000E+00  0.00000000000E+00  0.27513206727E+03  0.27513206727E+03  0.00000000000E+00 0. -1.
         21   -1    0    0  502  503 -0.00000000000E+00 -0.00000000000E+00 -0.15367970400E+03  0.15367970400E+03  0.00000000000E+00 0. -1.
          6    1    1    2  501    0 -0.66607004008E+02  0.47228320518E+02  0.13935272591E+03  0.23667528274E+03  0.17300000000E+03 0. -1.
         -6    1    1    2    0  503  0.66607004008E+02 -0.47228320518E+02 -0.17900362636E+02  0.19213648853E+03  0.17300000000E+03 0. -1.
</event>
<event>
 4    1  0.5758867E+000  0.1000000E+03  0.7546771E-02  0.1280296E+00
         21   -1    0    0  501  502  0.00000000000E+00  0.00000000000E+00  0.25034972827E+02  0.25034972827E+02  0.00000000000E+00 0. -1.
         21   -1    0    0  502  503 -0.00000000000E+00 -0.00000000000E+00 -0.19615468600E+04  0.19615468600E+04  0.00000000000E+00 0. -1.
          6    1    1    2  501    0  0.42690109380E+02 -0.12661625167E+02 -0.38048097044E+03  0.42033026427E+03  0.17300000000E+03 0. -1.
         -6    1    1    2    0  503 -0.42690109380E+02  0.12661625167E+02 -0.15560309167E+04  0.15662515686E+04  0.17300000000E+03 0. -1.
</event>
<event>
 4    1  0.5758867E+000  0.1000000E+03  0.7546771E-02  0.1280296E+00
         21   -1    0    0  501  502  0.00000000000E+00  0.00000000000E+00  0.18443949195E+03  0.18443949195E+03  0.00000000000E+00 0. -1.
         21   -1    0    0  502  503 -0.00000000000E+00 -0.00000000000E+00 -0.85798546239E+03  0.85798546239E+03  0.00000000000E+00 0. -1.
          6    1    1    2  501    0 -0.80235515122E+02  0.17630787224E+03  0.58028995615E+02  0.26611758310E+03  0.17300000000E+03 0. -1.
         -6    1    1    2    0  503  0.80235515122E+02 -0.17630787224E+03 -0.73157496605E+03  0.77630737125E+03  0.17300000000E+03 0. -1.
</event>
<event>
 4    1  0.5758867E+000  0.1000000E+03  0.7546771E-02  0.1280296E+00
         21   -1    0    0  501  502  0.00000000000E+00  0.00000000000E+00  0.56078887232E+02  0.56078887232E+02  0.00000000000E+00 0.  1.
         21   -1    0    0  502  503 -0.00000000000E+00 -0.00000000000E+00 -0.12934254100E+04  0.12934254100E+04  0.00000000000E+00 0. -1.
          6    1    1    2  501    0 -0.16020268238E+03 -0.12709677860E+03 -0.68892977054E+03  0.73916961471E+03  0.17300000000E+03 0. -1.
         -6    1    1    2    0  503  0.16020268238E+03  0.12709677860E+03 -0.54841675226E+03  0.61033468256E+03  0.17300000000E+03 0.  1.
</event>
<event>
 4    1  0.5758867E+000  0.1000000E+03  0.7546771E-02  0.1280296E+00
         21   -1    0    0  501  502  0.00000000000E+00  0.00000000000E+00  0.30652372121E+02  0.30652372121E+02  0.00000000000E+00 0.  1.
         21   -1    0    0  502  503 -0.00000000000E+00 -0.00000000000E+00 -0.28064151039E+04  0.28064151039E+04  0.00000000000E+00 0. -1.
          6    1    1    2  501    0 -0.21692634639E+03 -0.92667318130E+02 -0.12852826273E+04  0.13181520033E+04  0.17300000000E+03 0. -1.
         -6    1    1    2    0  503  0.21692634639E+03  0.92667318130E+02 -0.14904801044E+04  0.15189154727E+04  0.17300000000E+03 0.  1.
</event>
<event>
 4    1  0.5758867E+000  0.1000000E+03  0.7546771E-02  0.1280296E+00
         21   -1    0    0  503  502  0.00000000000E+00  0.00000000000E+00  0.42230571062E+03  0.42230571062E+03  0.00000000000E+00 0. -1.
         21   -1    0    0  501  503 -0.00000000000E+00 -0.00000000000E+00 -0.13286789009E+03  0.13286789009E+03  0.00000000000E+00 0.  1.
          6    1    1    2  501    0 -0.61535743959E+02  0.22438840344E+02 -0.28667578187E+02  0.18719235930E+03  0.17300000000E+03 0.  1.
         -6    1    1    2    0  502  0.61535743959E+02 -0.22438840344E+02  0.31810539872E+03  0.36798124141E+03  0.17300000000E+03 0. -1.
</event>
<event>
 4    1  0.5758867E+000  0.1000000E+03  0.7546771E-02  0.1280296E+00
         21   -1    0    0  503  502  0.00000000000E+00  0.00000000000E+00  0.10091914827E+03  0.10091914827E+03  0.00000000000E+00 0. -1.
         21   -1    0    0  501  503 -0.00000000000E+00 -0.00000000000E+00 -0.33874386203E+03  0.33874386203E+03  0.00000000000E+00 0. -1.
          6    1    1    2  501    0 -0.16059138574E+02 -0.24702939976E+02 -0.18812385936E+03  0.25726973712E+03  0.17300000000E+03 0. -1.
         -6    1    1    2    0  502  0.16059138574E+02  0.24702939976E+02 -0.49700854403E+02  0.18239327319E+03  0.17300000000E+03 0. -1.
</event>
<event>
 4    1  0.5758867E+000  0.1000000E+03  0.7546771E-02  0.1280296E+00
         21   -1    0    0  503  502  0.00000000000E+00  0.00000000000E+00  0.38995946836E+03  0.38995946836E+03  0.00000000000E+00 0.  1.
         21   -1    0    0  501  503 -0.00000000000E+00 -0.00000000000E+00 -0.34882404833E+03  0.34882404833E+03  0.00000000000E+00 0.  1.
          6    1    1    2  501    0 -0.54297734243E+02 -0.36485900425E+02 -0.29901861864E+03  0.35159721155E+03  0.17300000000E+03 0.  1.
         -6    1    1    2    0  502  0.54297734243E+02  0.36485900425E+02  0.34015403867E+03  0.38718630515E+03  0.17300000000E+03 0.  1.
</event>
<event>
 4    1  0.5758867E+000  0.1000000E+03  0.7546771E-02  0.1280296E+00
         21   -1    0    0  501  502  0.00000000000E+00  0.00000000000E+00  0.72124460100E+02  0.72124460100E+02  0.00000000000E+00 0.  1.
         21   -1    0    0  502  503 -0.00000000000E+00 -0.00000000000E+00 -0.12017904803E+04  0.12017904803E+04  0.00000000000E+00 0. -1.
          6    1    1    2  501    0  0.36307487145E+02 -0.36259000839E+02 -0.61541294257E+02  0.19065487055E+03  0.17300000000E+03 0. -1.
         -6    1    1    2    0  503 -0.36307487145E+02  0.36259000839E+02 -0.10681247259E+04  0.10832600699E+04  0.17300000000E+03 0.  1.
</event>
<event>
 4    1  0.5758867E+000  0.1000000E+03  0.7546771E-02  0.1280296E+00
         21   -1    0    0  501  502  0.00000000000E+00  0.00000000000E+00  0.51582459265E+02  0.51582459265E+02  0.00000000000E+00 0.  1.
         21   -1    0    0  502  503 -0.00000000000E+00 -0.00000000000E+00 -0.59329356474E+03  0.59329356474E+03  0.00000000000E+00 0. -1.
          6    1    1    2  501    0  0.20900053883E+02 -0.10958670990E+02 -0.25086470180E+03  0.30564522462E+03  0.17300000000E+03 0. -1.
         -6    1    1    2    0  503 -0.20900053883E+02  0.10958670990E+02 -0.29084640367E+03  0.33923079939E+03  0.17300000000E+03 0.  1.
</event>
<event>
 4    1  0.5758867E+000  0.1000000E+03  0.7546771E-02  0.1280296E+00
         21   -1    0    0  501  502  0.00000000000E+00  0.00000000000E+00  0.41168393905E+03  0.41168393905E+03  0.00000000000E+00 0.  1.
         21   -1    0    0  502  503 -0.00000000000E+00 -0.00000000000E+00 -0.18978237331E+03  0.18978237331E+03  0.00000000000E+00 0. -1.
          6    1    1    2  501    0 -0.17981941698E+03  0.12589674166E+03  0.10660134010E+03  0.29912849746E+03  0.17300000000E+03 0.  1.
         -6    1    1    2    0  503  0.17981941698E+03 -0.12589674166E+03  0.11530022564E+03  0.30233781490E+03  0.17300000000E+03 0. -1.
</event>
<event>
 4    1  0.5758867E+000  0.1000000E+03  0.7546771E-02  0.1280296E+00
         21   -1    0    0  501  502  0.00000000000E+00  0.00000000000E+00  0.36520100487E+03  0.36520100487E+03  0.00000000000E+00 0.  1.
         21   -1    0    0  502  503 -0.00000000000E+00 -0.00000000000E+00 -0.41519941422E+03  0.41519941422E+03  0.00000000000E+00 0. -1.
          6    1    1    2  501    0 -0.69362048234E+02 -0.21861763383E+02  0.31689700644E+03  0.36829572781E+03  0.17300000000E+03 0.  1.
         -6    1    1    2    0  503  0.69362048234E+02  0.21861763383E+02 -0.36689541580E+03  0.41210469127E+03  0.17300000000E+03 0. -1.
</event>
<event>
 4    1  0.5758867E+000  0.1000000E+03  0.7546771E-02  0.1280296E+00
         21   -1    0    0  501  502  0.00000000000E+00  0.00000000000E+00  0.32527522761E+03  0.32527522761E+03  0.00000000000E+00 0.  1.
         21   -1    0    0  502  503 -0.00000000000E+00 -0.00000000000E+00 -0.46394045440E+03  0.46394045440E+03  0.00000000000E+00 0. -1.
          6    1    1    2  501    0  0.90932683935E+02 -0.21423449010E+02  0.27100143692E+03  0.33481113480E+03  0.17300000000E+03 0.  1.
         -6    1    1    2    0  503 -0.90932683935E+02  0.21423449010E+02 -0.40966666371E+03  0.45440454721E+03  0.17300000000E+03 0. -1.
</event>
<event>
 4    1  0.5758867E+000  0.1000000E+03  0.7546771E-02  0.1280296E+00
         21   -1    0    0  503  502  0.00000000000E+00  0.00000000000E+00  0.69238996341E+03  0.69238996341E+03  0.00000000000E+00 0.  1.
         21   -1    0    0  501  503 -0.00000000000E+00 -0.00000000000E+00 -0.55120761014E+02  0.55120761014E+02  0.00000000000E+00 0.  1.
          6    1    1    2  501    0  0.39439981267E+02  0.15383778123E+02  0.47221241160E+03  0.50468379647E+03  0.17300000000E+03 0.  1.
         -6    1    1    2    0  502 -0.39439981267E+02 -0.15383778123E+02  0.16505679080E+03  0.24282692796E+03  0.17300000000E+03 0.  1.
</event>
<event>
 4    1  0.5758867E+000  0.1000000E+03  0.7546771E-02  0.1280296E+00
         21   -1    0    0  503  502  0.00000000000E+00  0.00000000000E+00  0.22852337863E+03  0.22852337863E+03  0.00000000000E+00 0.  1.
         21   -1    0    0  501  503 -0.00000000000E+00 -0.00000000000E+00 -0.21709985099E+03  0.21709985099E+03  0.00000000000E+00 0.  1.
          6    1    1    2  501    0 -0.61450564490E+02 -0.50412788846E+02 -0.10993666631E+03  0.21984697350E+03  0.17300000000E+03 0.  1.
         -6    1    1    2    0  502  0.61450564490E+02  0.50412788846E+02  0.12136019396E+03  0.22577625613E+03  0.17300000000E+03 0.  1.
</event>
<event>
 4    1  0.5758867E+000  0.1000000E+03  0.7546771E-02  0.1280296E+00
         21   -1    0    0  501  502  0.00000000000E+00  0.00000000000E+00  0.20405981200E+04  0.20405981200E+04  0.00000000000E+00 0. -1.
         21   -1    0    0  502  503 -0.00000000000E+00 -0.00000000000E+00 -0.25978953994E+02  0.25978953994E+02  0.00000000000E+00 0. -1.
          6    1    1    2  501    0 -0.10806879810E+03 -0.13273887027E+02  0.14828569183E+04  0.14968796549E+04  0.17300000000E+03 0. -1.
         -6    1    1    2    0  503  0.10806879810E+03  0.13273887027E+02  0.53176224770E+03  0.56969741905E+03  0.17300000000E+03 0. -1.
</event>
<event>
 4    1  0.5758867E+000  0.1000000E+03  0.7546771E-02  0.1280296E+00
         21   -1    0    0  503  502  0.00000000000E+00  0.00000000000E+00  0.27129379392E+03  0.27129379392E+03  0.00000000000E+00 0.  1.
         21   -1    0    0  501  503 -0.00000000000E+00 -0.00000000000E+00 -0.18031721706E+03  0.18031721706E+03  0.00000000000E+00 0. -1.
          6    1    1    2  501    0 -0.82076232307E+02  0.28430127409E+02 -0.63732917825E+02  0.20380300505E+03  0.17300000000E+03 0. -1.
         -6    1    1    2    0  502  0.82076232307E+02 -0.28430127409E+02  0.15470949469E+03  0.24780800593E+03  0.17300000000E+03 0.  1.
</event>
<event>
 4    1  0.5758867E+000  0.1000000E+03  0.7546771E-02  0.1280296E+00
         21   -1    0    0  503  502  0.00000000000E+00  0.00000000000E+00  0.39305362645E+02  0.39305362645E+02  0.00000000000E+00 0.  1.
         21   -1    0    0  501  503 -0.00000000000E+00 -0.00000000000E+00 -0.20889014514E+04  0.20889014514E+04  0.00000000000E+00 0. -1.
          6    1    1    2  501    0 -0.10502286600E+03 -0.50521292724E+02 -0.17543527609E+04  0.17667101667E+04  0.17300000000E+03 0. -1.
         -6    1    1    2    0  502  0.10502286600E+03  0.50521292724E+02 -0.29524332781E+03  0.36149664731E+03  0.17300000000E+03 0.  1.
</event>
<event>
 4    1  0.5758867E+000  0.1000000E+03  0.7546771E-02  0.1280296E+00
         21   -1    0    0  503  502  0.00000000000E+00  0.00000000000E+00  0.11847294574E+03  0.11847294574E+03  0.00000000000E+00 0. -1.
         21   -1    0    0  501  503 -0.00000000000E+00 -0.00000000000E+00 -0.91872256357E+03  0.91872256357E+03  0.00000000000E+00 0. -1.
          6    1    1    2  501    0 -0.25801164612E+03 -0.18745773927E+02 -0.57227170202E+03  0.65141792614E+03  0.17300000000E+03 0.  1.
         -6    1    1    2    0  502  0.25801164612E+03  0.18745773927E+02 -0.22797791582E+03  0.38577758317E+03  0.17300000000E+03 0.  1.
</event>
<event>
 4    1  0.5758867E+000  0.1000000E+03  0.7546771E-02  0.1280296E+00
         21   -1    0    0  503  502  0.00000000000E+00  0.00000000000E+00  0.17714114777E+02  0.17714114777E+02  0.00000000000E+00 0. -1.
         21   -1    0    0  501  503 -0.00000000000E+00 -0.00000000000E+00 -0.28199787320E+04  0.28199787320E+04  0.00000000000E+00 0. -1.
          6    1    1    2  501    0  0.83261816588E+02  0.91096937344E+02 -0.18406410857E+04  0.18528679901E+04  0.17300000000E+03 0.  1.
         -6    1    1    2    0  502 -0.83261816588E+02 -0.91096937344E+02 -0.96162353148E+03  0.98482485671E+03  0.17300000000E+03 0.  1.
</event>
<event>
 4    1  0.5758867E+000  0.1000000E+03  0.7546771E-02  0.1280296E+00
         21   -1    0    0  501  502  0.00000000000E+00  0.00000000000E+00  0.17809173789E+03  0.17809173789E+03  0.00000000000E+00 0. -1.
         21   -1    0    0  502  503 -0.00000000000E+00 -0.00000000000E+00 -0.25254637608E+03  0.25254637608E+03  0.00000000000E+00 0. -1.
          6    1    1    2  501    0  0.39542198847E+02 -0.51774784945E+01  0.80550807741E+02  0.19495595503E+03  0.17300000000E+03 0. -1.
         -6    1    1    2    0  503 -0.39542198847E+02  0.51774784945E+01 -0.15500544593E+03  0.23568215894E+03  0.17300000000E+03 0. -1.
</event>
<event>
 4    1  0.5758867E+000  0.1000000E+03  0.7546771E-02  0.1280296E+00
         21   -1    0    0  501  502  0.00000000000E+00  0.00000000000E+00  0.16703707493E+03  0.16703707493E+03  0.00000000000E+00 0.  1.
         21   -1    0    0  502  503 -0.00000000000E+00 -0.00000000000E+00 -0.52779289489E+03  0.52779289489E+03  0.00000000000E+00 0.  1.
          6    1    1    2  501    0  0.11461419796E+03  0.17771270236E+03 -0.44359254388E+02  0.27679407943E+03  0.17300000000E+03 0.  1.
         -6    1    1    2    0  503 -0.11461419796E+03 -0.17771270236E+03 -0.31639656557E+03  0.41803589040E+03  0.17300000000E+03 0.  1.
</event>
<event>
 4    1  0.5758867E+000  0.1000000E+03  0.7546771E-02  0.1280296E+00
         21   -1    0    0  501  502  0.00000000000E+00  0.00000000000E+00  0.11928095317E+03  0.11928095317E+03  0.00000000000E+00 0. -1.
         21   -1    0    0  502  503 -0.00000000000E+00 -0.00000000000E+00 -0.99242877028E+03  0.99242877028E+03  0.00000000000E+00 0. -1.
          6    1    1    2  501    0 -0.16545113812E+03 -0.10042483605E+03 -0.71763614077E+02  0.26932924666E+03  0.17300000000E+03 0.  1.
         -6    1    1    2    0  503  0.16545113812E+03  0.10042483605E+03 -0.80138420304E+03  0.84238047679E+03  0.17300000000E+03 0.  1.
</event>
<event>
 4    1  0.5758867E+000  0.1000000E+03  0.7546771E-02  0.1280296E+00
         21   -1    0    0  503  502  0.00000000000E+00  0.00000000000E+00  0.12247022715E+04  0.12247022715E+04  0.00000000000E+00 0. -1.
         21   -1    0    0  501  503 -0.00000000000E+00 -0.00000000000E+00 -0.25319794858E+03  0.25319794858E+03  0.00000000000E+00 0.  1.
          6    1    1    2  501    0 -0.16333695215E+03 -0.73752837293E+01 -0.18228182975E+03  0.29981497662E+03  0.17300000000E+03 0.  1.
         -6    1    1    2    0  502  0.16333695215E+03  0.73752837293E+01  0.11537861527E+04  0.11780852435E+04  0.17300000000E+03 0. -1.
</event>
<event>
 4    1  0.5758867E+000  0.1000000E+03  0.7546771E-02  0.1280296E+00
         21   -1    0    0  501  502  0.00000000000E+00  0.00000000000E+00  0.12206413688E+03  0.12206413688E+03  0.00000000000E+00 0. -1.
         21   -1    0    0  502  503 -0.00000000000E+00 -0.00000000000E+00 -0.12249030424E+04  0.12249030424E+04  0.00000000000E+00 0. -1.
          6    1    1    2  501    0 -0.61688444827E+02 -0.10508840221E+03  0.12264538097E+02  0.21196333503E+03  0.17300000000E+03 0. -1.
         -6    1    1    2    0  503  0.61688444827E+02  0.10508840221E+03 -0.11151034436E+04  0.11350038442E+04  0.17300000000E+03 0. -1.
</event>
<event>
 4    1  0.5758867E+000  0.1000000E+03  0.7546771E-02  0.1280296E+00
         21   -1    0    0  501  502  0.00000000000E+00  0.00000000000E+00  0.20001006298E+03  0.20001006298E+03  0.00000000000E+00 0. -1.
         21   -1    0    0  502  503 -0.00000000000E+00 -0.00000000000E+00 -0.16747534916E+03  0.16747534916E+03  0.00000000000E+00 0.  1.
          6    1    1    2  501    0  0.62119104620E+01  0.48885944936E+02 -0.17619698074E+02  0.18074257164E+03  0.17300000000E+03 0. -1.
         -6    1    1    2    0  503 -0.62119104620E+01 -0.48885944936E+02  0.50154411888E+02  0.18674284049E+03  0.17300000000E+03 0.  1.
</event>
<event>
 4    1  0.5758867E+000  0.1000000E+03  0.7546771E-02  0.1280296E+00
         21   -1    0    0  501  502  0.00000000000E+00  0.00000000000E+00  0.34673508888E+03  0.34673508888E+03  0.00000000000E+00 0. -1.
         21   -1    0    0  502  503 -0.00000000000E+00 -0.00000000000E+00 -0.10481734637E+03  0.10481734637E+03  0.00000000000E+00 0.  1.
          6    1    1    2  501    0 -0.99171234137E+00 -0.57518423472E+02  0.18695651632E+03  0.26113424044E+03  0.17300000000E+03 0. -1.
         -6    1    1    2    0  503  0.99171234137E+00  0.57518423472E+02  0.54961226193E+02  0.19041819482E+03  0.17300000000E+03 0.  1.
</event>
<event>
 4    1  0.5758867E+000  0.1000000E+03  0.7546771E-02  0.1280296E+00
         21   -1    0    0  501  502  0.00000000000E+00  0.00000000000E+00  0.74357609870E+03  0.74357609870E+03  0.00000000000E+00 0. -1.
         21   -1    0    0  502  503 -0.00000000000E+00 -0.00000000000E+00 -0.13841672086E+03  0.13841672086E+03  0.00000000000E+00 0.  1.
          6    1    1    2  501    0 -0.77800449371E+02  0.88650410386E+02  0.63670372402E+03  0.67024804167E+03  0.17300000000E+03 0. -1.
         -6    1    1    2    0  503  0.77800449371E+02 -0.88650410386E+02 -0.31544346184E+02  0.21174477788E+03  0.17300000000E+03 0.  1.
</event>
<event>
 4    1  0.5758867E+000  0.1000000E+03  0.7546771E-02  0.1280296E+00
         21   -1    0    0  501  502  0.00000000000E+00  0.00000000000E+00  0.14062617051E+03  0.14062617051E+03  0.00000000000E+00 0.  1.
         21   -1    0    0  502  503 -0.00000000000E+00 -0.00000000000E+00 -0.27611844421E+03  0.27611844421E+03  0.00000000000E+00 0.  1.
          6    1    1    2  501    0 -0.72194644976E+02  0.51257565987E+02 -0.33300662322E+02  0.19717337281E+03  0.17300000000E+03 0.  1.
         -6    1    1    2    0  503  0.72194644976E+02 -0.51257565987E+02 -0.10219161138E+03  0.21957124190E+03  0.17300000000E+03 0.  1.
</event>
<event>
 4    1  0.5758867E+000  0.1000000E+03  0.7546771E-02  0.1280296E+00
         21   -1    0    0  501  502  0.00000000000E+00  0.00000000000E+00  0.39357320688E+02  0.39357320688E+02  0.00000000000E+00 0.  1.
         21   -1    0    0  502  503 -0.00000000000E+00 -0.00000000000E+00 -0.21611609049E+04  0.21611609049E+04  0.00000000000E+00 0.  1.
          6    1    1    2  501    0  0.19056867282E+03 -0.88738651904E+02 -0.14554484745E+04  0.14806924830E+04  0.17300000000E+03 0.  1.
         -6    1    1    2    0  503 -0.19056867282E+03  0.88738651904E+02 -0.66635510976E+03  0.71982574259E+03  0.17300000000E+03 0.  1.
</event>
<event>
 4    1  0.5758867E+000  0.1000000E+03  0.7546771E-02  0.1280296E+00
         21   -1    0    0  501  502  0.00000000000E+00  0.00000000000E+00  0.89205641835E+02  0.89205641835E+02  0.00000000000E+00 0.  1.
         21   -1    0    0  502  503 -0.00000000000E+00 -0.00000000000E+00 -0.52395125122E+03  0.52395125122E+03  0.00000000000E+00 0.  1.
          6    1    1    2  501    0  0.67787530535E+02 -0.10954588317E+03 -0.19658174323E+03  0.29183699489E+03  0.17300000000E+03 0.  1.
         -6    1    1    2    0  503 -0.67787530535E+02  0.10954588317E+03 -0.23816386616E+03  0.32131989817E+03  0.17300000000E+03 0.  1.
</event>
<event>
 4    1  0.5758867E+000  0.1000000E+03  0.7546771E-02  0.1280296E+00
         21   -1    0    0  501  502  0.00000000000E+00  0.00000000000E+00  0.17347156519E+03  0.17347156519E+03  0.00000000000E+00 0.  1.
         21   -1    0    0  502  503 -0.00000000000E+00 -0.00000000000E+00 -0.33787327741E+03  0.33787327741E+03  0.00000000000E+00 0. -1.
          6    1    1    2  501    0  0.50252717885E+02  0.45031161253E+02  0.81844847761E+02  0.20293033347E+03  0.17300000000E+03 0.  1.
         -6    1    1    2    0  503 -0.50252717885E+02 -0.45031161253E+02 -0.24624655999E+03  0.30841450913E+03  0.17300000000E+03 0.  1.
</event>
<event>
 4    1  0.5758867E+000  0.1000000E+03  0.7546771E-02  0.1280296E+00
         21   -1    0    0  501  502  0.00000000000E+00  0.00000000000E+00  0.59079354453E+03  0.59079354453E+03  0.00000000000E+00 0.  1.
         21   -1    0    0  502  503 -0.00000000000E+00 -0.00000000000E+00 -0.19241534205E+03  0.19241534205E+03  0.00000000000E+00 0.  1.
          6    1    1    2  501    0  0.80072295157E+02  0.82764150341E+02  0.50755420227E+03  0.54845395913E+03  0.17300000000E+03 0.  1.
         -6    1    1    2    0  503 -0.80072295157E+02 -0.82764150341E+02 -0.10917599979E+03  0.23475492746E+03  0.17300000000E+03 0.  1.
</event>
<event>
 4    1  0.5758867E+000  0.1000000E+03  0.7546771E-02  0.1280296E+00
         21   -1    0    0  501  502  0.00000000000E+00  0.00000000000E+00  0.65571216901E+03  0.65571216901E+03  0.00000000000E+00 0.  1.
         21   -1    0    0  502  503 -0.00000000000E+00 -0.00000000000E+00 -0.82998285661E+02  0.82998285661E+02  0.00000000000E+00 0.  1.
          6    1    1    2  501    0  0.14447087167E+03  0.39789019451E+02  0.21486447123E+03  0.31392792138E+03  0.17300000000E+03 0.  1.
         -6    1    1    2    0  503 -0.14447087167E+03 -0.39789019451E+02  0.35784941212E+03  0.42478253329E+03  0.17300000000E+03 0.  1.
</event>
<event>
 4    1  0.5758867E+000  0.1000000E+03  0.7546771E-02  0.1280296E+00
         21   -1    0    0  501  502  0.00000000000E+00  0.00000000000E+00  0.13495053971E+04  0.13495053971E+04  0.00000000000E+00 0. -1.
         21   -1    0    0  502  503 -0.00000000000E+00 -0.00000000000E+00 -0.30916068421E+02  0.30916068421E+02  0.00000000000E+00 0.  1.
          6    1    1    2  501    0  0.20230168713E+02  0.27977291253E+02  0.10072020521E+04  0.10225345776E+04  0.17300000000E+03 0. -1.
         -6    1    1    2    0  503 -0.20230168713E+02 -0.27977291253E+02  0.31138727650E+03  0.35788688789E+03  0.17300000000E+03 0.  1.
</event>
<event>
 4    1  0.5758867E+000  0.1000000E+03  0.7546771E-02  0.1280296E+00
         21   -1    0    0  501  502  0.00000000000E+00  0.00000000000E+00  0.10131284373E+03  0.10131284373E+03  0.00000000000E+00 0. -1.
         21   -1    0    0  502  503 -0.00000000000E+00 -0.00000000000E+00 -0.77406842565E+03  0.77406842565E+03  0.00000000000E+00 0.  1.
          6    1    1    2  501    0 -0.19842887733E+03  0.36302077153E+02 -0.19832212549E+03  0.33159090099E+03  0.17300000000E+03 0. -1.
         -6    1    1    2    0  503  0.19842887733E+03 -0.36302077153E+02 -0.47443345644E+03  0.54379036839E+03  0.17300000000E+03 0.  1.
</event>
<event>
 4    1  0.5758867E+000  0.1000000E+03  0.7546771E-02  0.1280296E+00
         21   -1    0    0  501  502  0.00000000000E+00  0.00000000000E+00  0.91374912035E+03  0.91374912035E+03  0.00000000000E+00 0. -1.
         21   -1    0    0  502  503 -0.00000000000E+00 -0.00000000000E+00 -0.18191224921E+03  0.18191224921E+03  0.00000000000E+00 0.  1.
          6    1    1    2  501    0  0.13253574733E+03  0.13410722755E+02  0.82856384101E+03  0.85685040143E+03  0.17300000000E+03 0. -1.
         -6    1    1    2    0  503 -0.13253574733E+03 -0.13410722755E+02 -0.96726969862E+02  0.23881096814E+03  0.17300000000E+03 0.  1.
</event>
<event>
 4    1  0.5758867E+000  0.1000000E+03  0.7546771E-02  0.1280296E+00
         21   -1    0    0  501  502  0.00000000000E+00  0.00000000000E+00  0.64719568986E+02  0.64719568986E+02  0.00000000000E+00 0. -1.
         21   -1    0    0  502  503 -0.00000000000E+00 -0.00000000000E+00 -0.65969373078E+03  0.65969373078E+03  0.00000000000E+00 0.  1.
          6    1    1    2  501    0 -0.65389128681E+02  0.28338574145E+02 -0.14379417901E+03  0.23597580141E+03  0.17300000000E+03 0. -1.
         -6    1    1    2    0  503  0.65389128681E+02 -0.28338574145E+02 -0.45117998279E+03  0.48843749836E+03  0.17300000000E+03 0.  1.
</event>
<event>
 4    1  0.5758867E+000  0.1000000E+03  0.7546771E-02  0.1280296E+00
         21   -1    0    0  503  502  0.00000000000E+00  0.00000000000E+00  0.10559035728E+04  0.10559035728E+04  0.00000000000E+00 0. -1.
         21   -1    0    0  501  503 -0.00000000000E+00 -0.00000000000E+00 -0.45379981561E+02  0.45379981561E+02  0.00000000000E+00 0. -1.
          6    1    1    2  501    0 -0.19074212108E+01  0.48104635412E+02  0.82015407207E+03  0.83958287032E+03  0.17300000000E+03 0. -1.
         -6    1    1    2    0  502  0.19074212108E+01 -0.48104635412E+02  0.19036951921E+03  0.26170068408E+03  0.17300000000E+03 0. -1.
</event>
<event>
 4    1  0.5758867E+000  0.1000000E+03  0.7546771E-02  0.1280296E+00
         21   -1    0    0  503  502  0.00000000000E+00  0.00000000000E+00  0.29252953529E+02  0.29252953529E+02  0.00000000000E+00 0. -1.
         21   -1    0    0  501  503 -0.00000000000E+00 -0.00000000000E+00 -0.14900084992E+04  0.14900084992E+04  0.00000000000E+00 0.  1.
          6    1    1    2  501    0  0.17349037441E+02  0.72787347031E+02 -0.10570169278E+04  0.10736911905E+04  0.17300000000E+03 0.  1.
         -6    1    1    2    0  502 -0.17349037441E+02 -0.72787347031E+02 -0.40373861790E+03  0.44557026221E+03  0.17300000000E+03 0. -1.
</event>
<event>
 4    1  0.5758867E+000  0.1000000E+03  0.7546771E-02  0.1280296E+00
         21   -1    0    0  503  502  0.00000000000E+00  0.00000000000E+00  0.41525108655E+02  0.41525108655E+02  0.00000000000E+00 0. -1.
         21   -1    0    0  501  503 -0.00000000000E+00 -0.00000000000E+00 -0.10114423339E+04  0.10114423339E+04  0.00000000000E+00 0.  1.
          6    1    1    2  501    0 -0.37408218413E+02  0.89568903758E+02 -0.61718669611E+03  0.64828263989E+03  0.17300000000E+03 0.  1.
         -6    1    1    2    0  502  0.37408218413E+02 -0.89568903758E+02 -0.35273052913E+03  0.40468480266E+03  0.17300000000E+03 0. -1.
</event>
<event>
 4    1  0.5758867E+000  0.1000000E+03  0.7546771E-02  0.1280296E+00
         21   -1    0    0  503  502  0.00000000000E+00  0.00000000000E+00  0.35686242196E+03  0.35686242196E+03  0.00000000000E+00 0. -1.
         21   -1    0    0  501  503 -0.00000000000E+00 -0.00000000000E+00 -0.10015975912E+03  0.10015975912E+03  0.00000000000E+00 0.  1.
          6    1    1    2  501    0  0.20100529523E+02  0.67067385382E+01  0.39818384651E+02  0.17878343152E+03  0.17300000000E+03 0.  1.
         -6    1    1    2    0  502 -0.20100529523E+02 -0.67067385382E+01  0.21688427819E+03  0.27823874956E+03  0.17300000000E+03 0. -1.
</event>
<event>
 4    1  0.5758867E+000  0.1000000E+03  0.7546771E-02  0.1280296E+00
         21   -1    0    0  503  502  0.00000000000E+00  0.00000000000E+00  0.41878409985E+03  0.41878409985E+03  0.00000000000E+00 0. -1.
         21   -1    0    0  501  503 -0.00000000000E+00 -0.00000000000E+00 -0.80959121540E+02  0.80959121540E+02  0.00000000000E+00 0.  1.
          6    1    1    2  501    0 -0.60879651738E+02  0.15709016891E+02  0.17531898999E+03  0.25420238681E+03  0.17300000000E+03 0.  1.
         -6    1    1    2    0  502  0.60879651738E+02 -0.15709016891E+02  0.16250598832E+03  0.24554083458E+03  0.17300000000E+03 0. -1.
</event>
<event>
 4    1  0.5758867E+000  0.1000000E+03  0.7546771E-02  0.1280296E+00
         21   -1    0    0  501  502  0.00000000000E+00  0.00000000000E+00  0.21503155931E+03  0.21503155931E+03  0.00000000000E+00 0.  1.
         21   -1    0    0  502  503 -0.00000000000E+00 -0.00000000000E+00 -0.14861095405E+03  0.14861095405E+03  0.00000000000E+00 0.  1.
          6    1    1    2  501    0  0.18663967501E+02  0.35097153425E+02  0.11708785701E+02  0.17789392773E+03  0.17300000000E+03 0.  1.
         -6    1    1    2    0  503 -0.18663967501E+02 -0.35097153425E+02  0.54711819565E+02  0.18574858562E+03  0.17300000000E+03 0.  1.
</event>
<event>
 4    1  0.5758867E+000  0.1000000E+03  0.7546771E-02  0.1280296E+00
         21   -1    0    0  501  502  0.00000000000E+00  0.00000000000E+00  0.52666459464E+02  0.52666459464E+02  0.00000000000E+00 0.  1.
         21   -1    0    0  502  503 -0.00000000000E+00 -0.00000000000E+00 -0.14646619077E+04  0.14646619077E+04  0.00000000000E+00 0.  1.
          6    1    1    2  501    0 -0.41444183292E+02  0.21278352489E+03 -0.74606061711E+03  0.79594591098E+03  0.17300000000E+03 0.  1.
         -6    1    1    2    0  503  0.41444183292E+02 -0.21278352489E+03 -0.66593483116E+03  0.72138245622E+03  0.17300000000E+03 0.  1.
</event>
<event>
 4    1  0.5758867E+000  0.1000000E+03  0.7546771E-02  0.1280296E+00
         21   -1    0    0  503  502  0.00000000000E+00  0.00000000000E+00  0.14732311164E+03  0.14732311164E+03  0.00000000000E+00 0. -1.
         21   -1    0    0  501  503 -0.00000000000E+00 -0.00000000000E+00 -0.36560222222E+03  0.36560222222E+03  0.00000000000E+00 0. -1.
          6    1    1    2  501    0  0.14130967477E+03  0.40325424056E+02 -0.16257324808E+03  0.27920176396E+03  0.17300000000E+03 0. -1.
         -6    1    1    2    0  502 -0.14130967477E+03 -0.40325424056E+02 -0.55705862505E+02  0.23372356990E+03  0.17300000000E+03 0. -1.
</event>
<event>
 4    1  0.5758867E+000  0.1000000E+03  0.7546771E-02  0.1280296E+00
         21   -1    0    0  503  502  0.00000000000E+00  0.00000000000E+00  0.34891760432E+03  0.34891760432E+03  0.00000000000E+00 0. -1.
         21   -1    0    0  501  503 -0.00000000000E+00 -0.00000000000E+00 -0.27477792274E+03  0.27477792274E+03  0.00000000000E+00 0. -1.
          6    1    1    2  501    0 -0.48700520301E+02 -0.52918816324E+02 -0.21121383082E+03  0.28233388767E+03  0.17300000000E+03 0. -1.
         -6    1    1    2    0  502  0.48700520301E+02  0.52918816324E+02  0.28535351240E+03  0.34136163938E+03  0.17300000000E+03 0. -1.
</event>
<event>
 4    1  0.5758867E+000  0.1000000E+03  0.7546771E-02  0.1280296E+00
         21   -1    0    0  503  502  0.00000000000E+00  0.00000000000E+00  0.40725482788E+03  0.40725482788E+03  0.00000000000E+00 0. -1.
         21   -1    0    0  501  503 -0.00000000000E+00 -0.00000000000E+00 -0.34473124066E+03  0.34473124066E+03  0.00000000000E+00 0. -1.
          6    1    1    2  501    0 -0.42877046974E+02  0.21110406517E+03 -0.22272055495E+03  0.35487577135E+03  0.17300000000E+03 0. -1.
         -6    1    1    2    0  502  0.42877046974E+02 -0.21110406517E+03  0.28524414217E+03  0.39711029719E+03  0.17300000000E+03 0. -1.
</event>
<event>
 4    1  0.5758867E+000  0.1000000E+03  0.7546771E-02  0.1280296E+00
         21   -1    0    0  503  502  0.00000000000E+00  0.00000000000E+00  0.60675783258E+02  0.60675783258E+02  0.00000000000E+00 0.  1.
         21   -1    0    0  501  503 -0.00000000000E+00 -0.00000000000E+00 -0.77859298856E+03  0.77859298856E+03  0.00000000000E+00 0. -1.
          6    1    1    2  501    0 -0.77131950015E+01  0.70129199094E+02 -0.57338596124E+03  0.60305725971E+03  0.17300000000E+03 0. -1.
         -6    1    1    2    0  502  0.77131950015E+01 -0.70129199094E+02 -0.14453124407E+03  0.23621151211E+03  0.17300000000E+03 0.  1.
</event>
<event>
 4    1  0.5758867E+000  0.1000000E+03  0.7546771E-02  0.1280296E+00
         21   -1    0    0  503  502  0.00000000000E+00  0.00000000000E+00  0.75720781662E+02  0.75720781662E+02  0.00000000000E+00 0.  1.
         21   -1    0    0  501  503 -0.00000000000E+00 -0.00000000000E+00 -0.58953385390E+03  0.58953385390E+03  0.00000000000E+00 0. -1.
          6    1    1    2  501    0 -0.90793338169E+01 -0.66517903044E+02 -0.41593653646E+03  0.45545501215E+03  0.17300000000E+03 0. -1.
         -6    1    1    2    0  502  0.90793338169E+01  0.66517903044E+02 -0.97876535775E+02  0.20979962341E+03  0.17300000000E+03 0.  1.
</event>
<event>
 4    1  0.5758867E+000  0.1000000E+03  0.7546771E-02  0.1280296E+00
         21   -1    0    0  501  502  0.00000000000E+00  0.00000000000E+00  0.48202803072E+02  0.48202803072E+02  0.00000000000E+00 0. -1.
         21   -1    0    0  502  503 -0.00000000000E+00 -0.00000000000E+00 -0.15142282655E+04  0.15142282655E+04  0.00000000000E+00 0.  1.
          6    1    1    2  501    0 -0.19544090317E+03  0.63981467796E+02 -0.65275976116E+03  0.70591435787E+03  0.17300000000E+03 0. -1.
         -6    1    1    2    0  503  0.19544090317E+03 -0.63981467796E+02 -0.81326570124E+03  0.85651671067E+03  0.17300000000E+03 0.  1.
</event>
<event>
 4    1  0.5758867E+000  0.1000000E+03  0.7546771E-02  0.1280296E+00
         21   -1    0    0  501  502  0.00000000000E+00  0.00000000000E+00  0.18458982135E+03  0.18458982135E+03  0.00000000000E+00 0. -1.
         21   -1    0    0  502  503 -0.00000000000E+00 -0.00000000000E+00 -0.35265713730E+03  0.35265713730E+03  0.00000000000E+00 0.  1.
          6    1    1    2  501    0  0.72749897086E+02 -0.12209223366E+03  0.44778861565E+02  0.22832697495E+03  0.17300000000E+03 0. -1.
         -6    1    1    2    0  503 -0.72749897086E+02  0.12209223366E+03 -0.21284617751E+03  0.30891998370E+03  0.17300000000E+03 0.  1.
</event>
<event>
 4    1  0.5758867E+000  0.1000000E+03  0.7546771E-02  0.1280296E+00
         21   -1    0    0  501  502  0.00000000000E+00  0.00000000000E+00  0.23785679078E+04  0.23785679078E+04  0.00000000000E+00 0. -1.
         21   -1    0    0  502  503 -0.00000000000E+00 -0.00000000000E+00 -0.35173677543E+02  0.35173677543E+02  0.00000000000E+00 0. -1.
          6    1    1    2  501    0  0.39698494501E+02  0.13848780917E+03  0.19294258432E+04  0.19425158759E+04  0.17300000000E+03 0. -1.
         -6    1    1    2    0  503 -0.39698494501E+02 -0.13848780917E+03  0.41396838710E+03  0.47122570948E+03  0.17300000000E+03 0. -1.
</event>
<event>
 4    1  0.5758867E+000  0.1000000E+03  0.7546771E-02  0.1280296E+00
         21   -1    0    0  501  502  0.00000000000E+00  0.00000000000E+00  0.95236744704E+03  0.95236744704E+03  0.00000000000E+00 0.  1.
         21   -1    0    0  502  503 -0.00000000000E+00 -0.00000000000E+00 -0.11328705192E+03  0.11328705192E+03  0.00000000000E+00 0.  1.
          6    1    1    2  501    0 -0.13047387507E+03 -0.17124857808E+03  0.70795842504E+03  0.75992344295E+03  0.17300000000E+03 0.  1.
         -6    1    1    2    0  503  0.13047387507E+03  0.17124857808E+03  0.13112197008E+03  0.30573105601E+03  0.17300000000E+03 0.  1.
</event>
<event>
 4    1  0.5758867E+000  0.1000000E+03  0.7546771E-02  0.1280296E+00
         21   -1    0    0  503  502  0.00000000000E+00  0.00000000000E+00  0.31110242272E+03  0.31110242272E+03  0.00000000000E+00 0.  1.
         21   -1    0    0  501  503 -0.00000000000E+00 -0.00000000000E+00 -0.94569476484E+03  0.94569476484E+03  0.00000000000E+00 0. -1.
          6    1    1    2  501    0 -0.12114119803E+03  0.42349661085E+02 -0.89401967001E+03  0.91960255220E+03  0.17300000000E+03 0. -1.
         -6    1    1    2    0  502  0.12114119803E+03 -0.42349661085E+02  0.25942732789E+03  0.33719463535E+03  0.17300000000E+03 0.  1.
</event>
<event>
 4    1  0.5758867E+000  0.1000000E+03  0.7546771E-02  0.1280296E+00
         21   -1    0    0  503  502  0.00000000000E+00  0.00000000000E+00  0.20293645369E+03  0.20293645369E+03  0.00000000000E+00 0.  1.
         21   -1    0    0  501  503 -0.00000000000E+00 -0.00000000000E+00 -0.17688896530E+03  0.17688896530E+03  0.00000000000E+00 0. -1.
          6    1    1    2  501    0 -0.67042442445E+02 -0.34531318581E+02  0.29829891122E+02  0.19106523351E+03  0.17300000000E+03 0. -1.
         -6    1    1    2    0  502  0.67042442445E+02  0.34531318581E+02 -0.37824027322E+01  0.18876018548E+03  0.17300000000E+03 0.  1.
</event>
<event>
 4    1  0.5758867E+000  0.1000000E+03  0.7546771E-02  0.1280296E+00
         21   -1    0    0  501  502  0.00000000000E+00  0.00000000000E+00  0.21694751144E+03  0.21694751144E+03  0.00000000000E+00 0.  1.
         21   -1    0    0  502  503 -0.00000000000E+00 -0.00000000000E+00 -0.61032567908E+03  0.61032567908E+03  0.00000000000E+00 0.  1.
          6    1    1    2  501    0  0.69727669729E+02  0.11510447198E+03  0.13349135955E+03  0.25663189683E+03  0.17300000000E+03 0.  1.
         -6    1    1    2    0  503 -0.69727669729E+02 -0.11510447198E+03 -0.52686952719E+03  0.57064129370E+03  0.17300000000E+03 0.  1.
</event>
<event>
 4    1  0.5758867E+000  0.1000000E+03  0.7546771E-02  0.1280296E+00
         21   -1    0    0  501  502  0.00000000000E+00  0.00000000000E+00  0.74856799214E+03  0.74856799214E+03  0.00000000000E+00 0.  1.
         21   -1    0    0  502  503 -0.00000000000E+00 -0.00000000000E+00 -0.13763774531E+03  0.13763774531E+03  0.00000000000E+00 0.  1.
          6    1    1    2  501    0 -0.23668941910E+03 -0.10089871600E+03  0.42013193568E+03  0.52215158276E+03  0.17300000000E+03 0.  1.
         -6    1    1    2    0  503  0.23668941910E+03  0.10089871600E+03  0.19079831115E+03  0.36405415468E+03  0.17300000000E+03 0.  1.
</event>
<event>
 4    1  0.5758867E+000  0.1000000E+03  0.7546771E-02  0.1280296E+00
         21   -1    0    0  501  502  0.00000000000E+00  0.00000000000E+00  0.48829512828E+02  0.48829512828E+02  0.00000000000E+00 0.  1.
         21   -1    0    0  502  503 -0.00000000000E+00 -0.00000000000E+00 -0.10682278580E+04  0.10682278580E+04  0.00000000000E+00 0.  1.
          6    1    1    2  501    0 -0.87004375812E+02 -0.10486707741E+03 -0.36164521372E+03  0.42341838168E+03  0.17300000000E+03 0.  1.
         -6    1    1    2    0  503  0.87004375812E+02  0.10486707741E+03 -0.65775313141E+03  0.69363898911E+03  0.17300000000E+03 0.  1.
</event>
<event>
 4    1  0.5758867E+000  0.1000000E+03  0.7546771E-02  0.1280296E+00
         21   -1    0    0  501  502  0.00000000000E+00  0.00000000000E+00  0.17108507684E+03  0.17108507684E+03  0.00000000000E+00 0.  1.
         21   -1    0    0  502  503 -0.00000000000E+00 -0.00000000000E+00 -0.19834164004E+03  0.19834164004E+03  0.00000000000E+00 0.  1.
          6    1    1    2  501    0  0.29495030816E+02  0.19170290486E+02  0.39116214047E+02  0.18082183242E+03  0.17300000000E+03 0.  1.
         -6    1    1    2    0  503 -0.29495030816E+02 -0.19170290486E+02 -0.66372777248E+02  0.18860488445E+03  0.17300000000E+03 0.  1.
</event>
<event>
 4    1  0.5758867E+000  0.1000000E+03  0.7546771E-02  0.1280296E+00
         21   -1    0    0  503  502  0.00000000000E+00  0.00000000000E+00  0.55401612485E+03  0.55401612485E+03  0.00000000000E+00 0. -1.
         21   -1    0    0  501  503 -0.00000000000E+00 -0.00000000000E+00 -0.65238619933E+02  0.65238619933E+02  0.00000000000E+00 0. -1.
          6    1    1    2  501    0 -0.51407601959E+02  0.15455786172E+02  0.15036903192E+03  0.23541764723E+03  0.17300000000E+03 0.  1.
         -6    1    1    2    0  502  0.51407601959E+02 -0.15455786172E+02  0.33840847300E+03  0.38383709756E+03  0.17300000000E+03 0.  1.
</event>
<event>
 4    1  0.5758867E+000  0.1000000E+03  0.7546771E-02  0.1280296E+00
         21   -1    0    0  501  502  0.00000000000E+00  0.00000000000E+00  0.86290197941E+02  0.86290197941E+02  0.00000000000E+00 0. -1.
         21   -1    0    0  502  503 -0.00000000000E+00 -0.00000000000E+00 -0.43399872180E+03  0.43399872180E+03  0.00000000000E+00 0. -1.
          6    1    1    2  501    0  0.50178511071E+02  0.16389439893E+02 -0.81359040810E+02  0.19833000337E+03  0.17300000000E+03 0. -1.
         -6    1    1    2    0  503 -0.50178511071E+02 -0.16389439893E+02 -0.26634948305E+03  0.32195891637E+03  0.17300000000E+03 0. -1.
</event>
<event>
 4    1  0.5758867E+000  0.1000000E+03  0.7546771E-02  0.1280296E+00
         21   -1    0    0  501  502  0.00000000000E+00  0.00000000000E+00  0.26215954949E+03  0.26215954949E+03  0.00000000000E+00 0. -1.
         21   -1    0    0  502  503 -0.00000000000E+00 -0.00000000000E+00 -0.25035291162E+03  0.25035291162E+03  0.00000000000E+00 0. -1.
          6    1    1    2  501    0 -0.10091488738E+03 -0.69152394384E+02  0.14994688698E+03  0.25957453084E+03  0.17300000000E+03 0. -1.
         -6    1    1    2    0  503  0.10091488738E+03  0.69152394384E+02 -0.13814024911E+03  0.25293793027E+03  0.17300000000E+03 0. -1.
</event>
<event>
 4    1  0.5758867E+000  0.1000000E+03  0.7546771E-02  0.1280296E+00
         21   -1    0    0  501  502  0.00000000000E+00  0.00000000000E+00  0.73511261270E+03  0.73511261270E+03  0.00000000000E+00 0. -1.
         21   -1    0    0  502  503 -0.00000000000E+00 -0.00000000000E+00 -0.60010848334E+02  0.60010848334E+02  0.00000000000E+00 0. -1.
          6    1    1    2  501    0 -0.88536343972E+02  0.71994379443E+02  0.40212559676E+03  0.45238906977E+03  0.17300000000E+03 0. -1.
         -6    1    1    2    0  503  0.88536343972E+02 -0.71994379443E+02  0.27297616760E+03  0.34273439126E+03  0.17300000000E+03 0. -1.
</event>
<event>
 4    1  0.5758867E+000  0.1000000E+03  0.7546771E-02  0.1280296E+00
         21   -1    0    0  501  502  0.00000000000E+00  0.00000000000E+00  0.12988784882E+04  0.12988784882E+04  0.00000000000E+00 0. -1.
         21   -1    0    0  502  503 -0.00000000000E+00 -0.00000000000E+00 -0.65552635389E+03  0.65552635389E+03  0.00000000000E+00 0.  1.
          6    1    1    2  501    0 -0.14282498106E+03 -0.50730747367E+02  0.12680343120E+04  0.12887251842E+04  0.17300000000E+03 0. -1.
         -6    1    1    2    0  503  0.14282498106E+03  0.50730747367E+02 -0.62468217765E+03  0.66567965795E+03  0.17300000000E+03 0.  1.
</event>
<event>
 4    1  0.5758867E+000  0.1000000E+03  0.7546771E-02  0.1280296E+00
         21   -1    0    0  501  502  0.00000000000E+00  0.00000000000E+00  0.64051401879E+03  0.64051401879E+03  0.00000000000E+00 0. -1.
         21   -1    0    0  502  503 -0.00000000000E+00 -0.00000000000E+00 -0.12631186962E+03  0.12631186962E+03  0.00000000000E+00 0.  1.
          6    1    1    2  501    0 -0.14034262628E+03 -0.14173057481E+03  0.39970535580E+03  0.47903755598E+03  0.17300000000E+03 0. -1.
         -6    1    1    2    0  503  0.14034262628E+03  0.14173057481E+03  0.11449679337E+03  0.28778833243E+03  0.17300000000E+03 0.  1.
</event>
<event>
 4    1  0.5758867E+000  0.1000000E+03  0.7546771E-02  0.1280296E+00
         21   -1    0    0  501  502  0.00000000000E+00  0.00000000000E+00  0.11043550644E+03  0.11043550644E+03  0.00000000000E+00 0. -1.
         21   -1    0    0  502  503 -0.00000000000E+00 -0.00000000000E+00 -0.41433095590E+03  0.41433095590E+03  0.00000000000E+00 0.  1.
          6    1    1    2  501    0  0.59952442139E+02 -0.75322899109E+02 -0.52599429071E+02  0.20485002901E+03  0.17300000000E+03 0. -1.
         -6    1    1    2    0  503 -0.59952442139E+02  0.75322899109E+02 -0.25129602039E+03  0.31991643332E+03  0.17300000000E+03 0.  1.
</event>
<event>
 4    1  0.5758867E+000  0.1000000E+03  0.7546771E-02  0.1280296E+00
         21   -1    0    0  503  502  0.00000000000E+00  0.00000000000E+00  0.31089568334E+03  0.31089568334E+03  0.00000000000E+00 0.  1.
         21   -1    0    0  501  503 -0.00000000000E+00 -0.00000000000E+00 -0.25929999506E+03  0.25929999506E+03  0.00000000000E+00 0.  1.
          6    1    1    2  501    0 -0.95746659994E+02 -0.20337667837E+03  0.38369520215E+02  0.28623542109E+03  0.17300000000E+03 0.  1.
         -6    1    1    2    0  502  0.95746659994E+02  0.20337667837E+03  0.13226168063E+02  0.28396025730E+03  0.17300000000E+03 0.  1.
</event>
<event>
 4    1  0.5758867E+000  0.1000000E+03  0.7546771E-02  0.1280296E+00
         21   -1    0    0  503  502  0.00000000000E+00  0.00000000000E+00  0.33105435737E+03  0.33105435737E+03  0.00000000000E+00 0.  1.
         21   -1    0    0  501  503 -0.00000000000E+00 -0.00000000000E+00 -0.61089810913E+03  0.61089810913E+03  0.00000000000E+00 0.  1.
          6    1    1    2  501    0  0.19859503653E+03 -0.34612584118E+02 -0.51994854356E+03  0.58387799022E+03  0.17300000000E+03 0.  1.
         -6    1    1    2    0  502 -0.19859503653E+03  0.34612584118E+02  0.24010479181E+03  0.35807447628E+03  0.17300000000E+03 0.  1.
</event>
<event>
 4    1  0.5758867E+000  0.1000000E+03  0.7546771E-02  0.1280296E+00
         21   -1    0    0  503  502  0.00000000000E+00  0.00000000000E+00  0.13174008516E+03  0.13174008516E+03  0.00000000000E+00 0.  1.
         21   -1    0    0  501  503 -0.00000000000E+00 -0.00000000000E+00 -0.57042748320E+03  0.57042748320E+03  0.00000000000E+00 0.  1.
          6    1    1    2  501    0  0.18845140784E+03  0.49173518948E+02 -0.32867180869E+03  0.41938779896E+03  0.17300000000E+03 0.  1.
         -6    1    1    2    0  502 -0.18845140784E+03 -0.49173518948E+02 -0.11001558934E+03  0.28277976940E+03  0.17300000000E+03 0.  1.
</event>
<event>
 4    1  0.5758867E+000  0.1000000E+03  0.7546771E-02  0.1280296E+00
         21   -1    0    0  501  502  0.00000000000E+00  0.00000000000E+00  0.24616331601E+03  0.24616331601E+03  0.00000000000E+00 0. -1.
         21   -1    0    0  502  503 -0.00000000000E+00 -0.00000000000E+00 -0.23524984472E+03  0.23524984472E+03  0.00000000000E+00 0. -1.
          6    1    1    2  501    0  0.69503872036E+02  0.12503068035E+03  0.92182094676E+02  0.24267261451E+03  0.17300000000E+03 0. -1.
         -6    1    1    2    0  503 -0.69503872036E+02 -0.12503068035E+03 -0.81268623387E+02  0.23874054621E+03  0.17300000000E+03 0. -1.
</event>
<event>
 4    1  0.5758867E+000  0.1000000E+03  0.7546771E-02  0.1280296E+00
         21   -1    0    0  501  502  0.00000000000E+00  0.00000000000E+00  0.12196401226E+03  0.12196401226E+03  0.00000000000E+00 0. -1.
         21   -1    0    0  502  503 -0.00000000000E+00 -0.00000000000E+00 -0.35290218077E+03  0.35290218077E+03  0.00000000000E+00 0. -1.
          6    1    1    2  501    0  0.99523062363E+02 -0.46149825163E+02 -0.15303994320E+03  0.25570465486E+03  0.17300000000E+03 0. -1.
         -6    1    1    2    0  503 -0.99523062363E+02  0.46149825163E+02 -0.77898225315E+02  0.21916153817E+03  0.17300000000E+03 0. -1.
</event>
<event>
 4    1  0.5758867E+000  0.1000000E+03  0.7546771E-02  0.1280296E+00
         21   -1    0    0  501  502  0.00000000000E+00  0.00000000000E+00  0.71171985543E+02  0.71171985543E+02  0.00000000000E+00 0. -1.
         21   -1    0    0  502  503 -0.00000000000E+00 -0.00000000000E+00 -0.73960091791E+03  0.73960091791E+03  0.00000000000E+00 0. -1.
          6    1    1    2  501    0  0.72817297438E+02 -0.13157807670E+03 -0.35141054364E+03  0.41956348656E+03  0.17300000000E+03 0. -1.
         -6    1    1    2    0  503 -0.72817297438E+02  0.13157807670E+03 -0.31701838872E+03  0.39120941689E+03  0.17300000000E+03 0. -1.
</event>
<event>
 4    1  0.5758867E+000  0.1000000E+03  0.7546771E-02  0.1280296E+00
         21   -1    0    0  501  502  0.00000000000E+00  0.00000000000E+00  0.88303085425E+02  0.88303085425E+02  0.00000000000E+00 0. -1.
         21   -1    0    0  502  503 -0.00000000000E+00 -0.00000000000E+00 -0.58720307691E+03  0.58720307691E+03  0.00000000000E+00 0. -1.
          6    1    1    2  501    0 -0.29147866023E+02  0.29600888218E+02 -0.38654656530E+02  0.18206864955E+03  0.17300000000E+03 0. -1.
         -6    1    1    2    0  503  0.29147866023E+02 -0.29600888218E+02 -0.46024533496E+03  0.49343751279E+03  0.17300000000E+03 0. -1.
</event>
<event>
 4    1  0.5758867E+000  0.1000000E+03  0.7546771E-02  0.1280296E+00
         21   -1    0    0  501  502  0.00000000000E+00  0.00000000000E+00  0.12957929606E+03  0.12957929606E+03  0.00000000000E+00 0. -1.
         21   -1    0    0  502  503 -0.00000000000E+00 -0.00000000000E+00 -0.41010274137E+03  0.41010274137E+03  0.00000000000E+00 0.  1.
          6    1    1    2  501    0  0.25524043034E+01 -0.70864563308E+02  0.17584009446E+02  0.18779376584E+03  0.17300000000E+03 0.  1.
         -6    1    1    2    0  503 -0.25524043034E+01  0.70864563308E+02 -0.29810745476E+03  0.35188827159E+03  0.17300000000E+03 0. -1.
</event>
<event>
 4    1  0.5758867E+000  0.1000000E+03  0.7546771E-02  0.1280296E+00
         21   -1    0    0  501  502  0.00000000000E+00  0.00000000000E+00  0.23432722435E+04  0.23432722435E+04  0.00000000000E+00 0. -1.
         21   -1    0    0  502  503 -0.00000000000E+00 -0.00000000000E+00 -0.30626099999E+02  0.30626099999E+02  0.00000000000E+00 0.  1.
          6    1    1    2  501    0 -0.18606111707E+03 -0.45562326007E+02  0.83861729761E+03  0.87744095909E+03  0.17300000000E+03 0.  1.
         -6    1    1    2    0  503  0.18606111707E+03  0.45562326007E+02  0.14740288459E+04  0.14964573844E+04  0.17300000000E+03 0. -1.
</event>
<event>
 4    1  0.5758867E+000  0.1000000E+03  0.7546771E-02  0.1280296E+00
         21   -1    0    0  501  502  0.00000000000E+00  0.00000000000E+00  0.34522367515E+03  0.34522367515E+03  0.00000000000E+00 0. -1.
         21   -1    0    0  502  503 -0.00000000000E+00 -0.00000000000E+00 -0.12015586596E+03  0.12015586596E+03  0.00000000000E+00 0.  1.
          6    1    1    2  501    0  0.59136722793E+02 -0.56165575377E+02  0.19250798745E+03  0.27136700070E+03  0.17300000000E+03 0.  1.
         -6    1    1    2    0  503 -0.59136722793E+02  0.56165575377E+02  0.32559821744E+02  0.19401254040E+03  0.17300000000E+03 0. -1.
</event>
<event>
 4    1  0.5758867E+000  0.1000000E+03  0.7546771E-02  0.1280296E+00
         21   -1    0    0  501  502  0.00000000000E+00  0.00000000000E+00  0.60197319565E+03  0.60197319565E+03  0.00000000000E+00 0. -1.
         21   -1    0    0  502  503 -0.00000000000E+00 -0.00000000000E+00 -0.17626969952E+03  0.17626969952E+03  0.00000000000E+00 0.  1.
          6    1    1    2  501    0 -0.23763623849E+03 -0.68737705935E+02  0.35908055927E+03  0.46910947773E+03  0.17300000000E+03 0.  1.
         -6    1    1    2    0  503  0.23763623849E+03  0.68737705935E+02  0.66622936872E+02  0.30913341744E+03  0.17300000000E+03 0. -1.
</event>
<event>
 4    1  0.5758867E+000  0.1000000E+03  0.7546771E-02  0.1280296E+00
         21   -1    0    0  503  502  0.00000000000E+00  0.00000000000E+00  0.27688473766E+04  0.27688473766E+04  0.00000000000E+00 0. -1.
         21   -1    0    0  501  503 -0.00000000000E+00 -0.00000000000E+00 -0.17188018794E+02  0.17188018794E+02  0.00000000000E+00 0.  1.
          6    1    1    2  501    0  0.27703563169E+02  0.12334995027E+03  0.11141567711E+04  0.11345734918E+04  0.17300000000E+03 0. -1.
         -6    1    1    2    0  502 -0.27703563169E+02 -0.12334995027E+03  0.16375025867E+04  0.16514619036E+04  0.17300000000E+03 0.  1.
</event>
<event>
 4    1  0.5758867E+000  0.1000000E+03  0.7546771E-02  0.1280296E+00
         21   -1    0    0  503  502  0.00000000000E+00  0.00000000000E+00  0.42659929581E+03  0.42659929581E+03  0.00000000000E+00 0.  1.
         21   -1    0    0  501  503 -0.00000000000E+00 -0.00000000000E+00 -0.20966264496E+03  0.20966264496E+03  0.00000000000E+00 0.  1.
          6    1    1    2  501    0  0.23145148277E+03  0.29654657190E+02  0.32772584594E+02  0.29232213373E+03  0.17300000000E+03 0.  1.
         -6    1    1    2    0  502 -0.23145148277E+03 -0.29654657190E+02  0.18416406625E+03  0.34393980704E+03  0.17300000000E+03 0.  1.
</event>
<event>
 4    1  0.5758867E+000  0.1000000E+03  0.7546771E-02  0.1280296E+00
         21   -1    0    0  501  502  0.00000000000E+00  0.00000000000E+00  0.42547883598E+03  0.42547883598E+03  0.00000000000E+00 0.  1.
         21   -1    0    0  502  503 -0.00000000000E+00 -0.00000000000E+00 -0.83304611811E+02  0.83304611811E+02  0.00000000000E+00 0.  1.
          6    1    1    2  501    0 -0.73342161868E+02 -0.96087944235E+01  0.18004482600E+03  0.26041609207E+03  0.17300000000E+03 0.  1.
         -6    1    1    2    0  503  0.73342161868E+02  0.96087944235E+01  0.16212939816E+03  0.24836735572E+03  0.17300000000E+03 0.  1.
</event>
<event>
 4    1  0.5758867E+000  0.1000000E+03  0.7546771E-02  0.1280296E+00
         21   -1    0    0  501  502  0.00000000000E+00  0.00000000000E+00  0.62835798313E+02  0.62835798313E+02  0.00000000000E+00 0.  1.
         21   -1    0    0  502  503 -0.00000000000E+00 -0.00000000000E+00 -0.77549489327E+03  0.77549489327E+03  0.00000000000E+00 0.  1.
          6    1    1    2  501    0  0.41659256724E+02  0.10805121799E+02 -0.10913073109E+03  0.20902334988E+03  0.17300000000E+03 0.  1.
         -6    1    1    2    0  503 -0.41659256724E+02 -0.10805121799E+02 -0.60352836387E+03  0.62930734170E+03  0.17300000000E+03 0.  1.
</event>
<event>
 4    1  0.5758867E+000  0.1000000E+03  0.7546771E-02  0.1280296E+00
         21   -1    0    0  501  502  0.00000000000E+00  0.00000000000E+00  0.31475207062E+03  0.31475207062E+03  0.00000000000E+00 0.  1.
         21   -1    0    0  502  503 -0.00000000000E+00 -0.00000000000E+00 -0.33636417290E+03  0.33636417290E+03  0.00000000000E+00 0.  1.
          6    1    1    2  501    0 -0.78885139117E+02 -0.18664392255E+03  0.17606817301E+03  0.31935532021E+03  0.17300000000E+03 0.  1.
         -6    1    1    2    0  503  0.78885139117E+02  0.18664392255E+03 -0.19768027529E+03  0.33176092331E+03  0.17300000000E+03 0.  1.
</event>
<event>
 4    1  0.5758867E+000  0.1000000E+03  0.7546771E-02  0.1280296E+00
         21   -1    0    0  501  502  0.00000000000E+00  0.00000000000E+00  0.30556052871E+03  0.30556052871E+03  0.00000000000E+00 0.  1.
         21   -1    0    0  502  503 -0.00000000000E+00 -0.00000000000E+00 -0.50290716351E+03  0.50290716351E+03  0.00000000000E+00 0.  1.
          6    1    1    2  501    0 -0.48434164273E+02  0.86347828973E+02  0.24940260328E+03  0.31926865546E+03  0.17300000000E+03 0.  1.
         -6    1    1    2    0  503  0.48434164273E+02 -0.86347828973E+02 -0.44674923808E+03  0.48919903675E+03  0.17300000000E+03 0.  1.
</event>
<event>
 4    1  0.5758867E+000  0.1000000E+03  0.7546771E-02  0.1280296E+00
         21   -1    0    0  501  502  0.00000000000E+00  0.00000000000E+00  0.23758487920E+04  0.23758487920E+04  0.00000000000E+00 0.  1.
         21   -1    0    0  502  503 -0.00000000000E+00 -0.00000000000E+00 -0.46894666548E+02  0.46894666548E+02  0.00000000000E+00 0.  1.
          6    1    1    2  501    0 -0.14363548472E+03  0.19104172573E+03  0.17308768117E+04  0.17558449905E+04  0.17300000000E+03 0.  1.
         -6    1    1    2    0  503  0.14363548472E+03 -0.19104172573E+03  0.59807731376E+03  0.66689846804E+03  0.17300000000E+03 0.  1.
</event>
<event>
 4    1  0.5758867E+000  0.1000000E+03  0.7546771E-02  0.1280296E+00
         21   -1    0    0  503  502  0.00000000000E+00  0.00000000000E+00  0.20929001617E+03  0.20929001617E+03  0.00000000000E+00 0.  1.
         21   -1    0    0  501  503 -0.00000000000E+00 -0.00000000000E+00 -0.22927250468E+03  0.22927250468E+03  0.00000000000E+00 0.  1.
          6    1    1    2  501    0 -0.27839001634E+02 -0.59264214031E+01 -0.14144918507E+03  0.22527095783E+03  0.17300000000E+03 0.  1.
         -6    1    1    2    0  502  0.27839001634E+02  0.59264214031E+01  0.12146669656E+03  0.21329156302E+03  0.17300000000E+03 0.  1.
</event>
<event>
 4    1  0.5758867E+000  0.1000000E+03  0.7546771E-02  0.1280296E+00
         21   -1    0    0  503  502  0.00000000000E+00  0.00000000000E+00  0.44585894728E+03  0.44585894728E+03  0.00000000000E+00 0.  1.
         21   -1    0    0  501  503 -0.00000000000E+00 -0.00000000000E+00 -0.80127106804E+02  0.80127106804E+02  0.00000000000E+00 0.  1.
          6    1    1    2  501    0  0.41085370764E+02 -0.63195229726E+01  0.94115605777E+02  0.20128261552E+03  0.17300000000E+03 0.  1.
         -6    1    1    2    0  502 -0.41085370764E+02  0.63195229726E+01  0.27161623470E+03  0.32470343856E+03  0.17300000000E+03 0.  1.
</event>
<event>
 4    1  0.5758867E+000  0.1000000E+03  0.7546771E-02  0.1280296E+00
         21   -1    0    0  503  502  0.00000000000E+00  0.00000000000E+00  0.89483945790E+03  0.89483945790E+03  0.00000000000E+00 0.  1.
         21   -1    0    0  501  503 -0.00000000000E+00 -0.00000000000E+00 -0.13980118643E+03  0.13980118643E+03  0.00000000000E+00 0.  1.
          6    1    1    2  501    0  0.62427385225E+02 -0.12446218786E+02  0.81902340020E+03  0.83951201115E+03  0.17300000000E+03 0.  1.
         -6    1    1    2    0  502 -0.62427385225E+02  0.12446218786E+02 -0.63985128735E+02  0.19512863318E+03  0.17300000000E+03 0.  1.
</event>
<event>
 4    1  0.5758867E+000  0.1000000E+03  0.7546771E-02  0.1280296E+00
         21   -1    0    0  503  502  0.00000000000E+00  0.00000000000E+00  0.18842456730E+03  0.18842456730E+03  0.00000000000E+00 0.  1.
         21   -1    0    0  501  503 -0.00000000000E+00 -0.00000000000E+00 -0.20568318353E+03  0.20568318353E+03  0.00000000000E+00 0.  1.
          6    1    1    2  501    0  0.15031536740E+02  0.23535474865E+02 -0.98419955844E+02  0.20098595320E+03  0.17300000000E+03 0.  1.
         -6    1    1    2    0  502 -0.15031536740E+02 -0.23535474865E+02  0.81161339616E+02  0.19312179764E+03  0.17300000000E+03 0.  1.
</event>
<event>
 4    1  0.5758867E+000  0.1000000E+03  0.7546771E-02  0.1280296E+00
         21   -1    0    0  501  502  0.00000000000E+00  0.00000000000E+00  0.21849838645E+03  0.21849838645E+03  0.00000000000E+00 0.  1.
         21   -1    0    0  502  503 -0.00000000000E+00 -0.00000000000E+00 -0.29131819732E+03  0.29131819732E+03  0.00000000000E+00 0. -1.
          6    1    1    2  501    0  0.90118885794E+02 -0.14111360751E+03  0.39797561638E+02  0.24402317454E+03  0.17300000000E+03 0.  1.
         -6    1    1    2    0  503 -0.90118885794E+02  0.14111360751E+03 -0.11261737250E+03  0.26579340923E+03  0.17300000000E+03 0. -1.
</event>
<event>
 4    1  0.5758867E+000  0.1000000E+03  0.7546771E-02  0.1280296E+00
         21   -1    0    0  501  502  0.00000000000E+00  0.00000000000E+00  0.13956266591E+03  0.13956266591E+03  0.00000000000E+00 0.  1.
         21   -1    0    0  502  503 -0.00000000000E+00 -0.00000000000E+00 -0.40335219437E+03  0.40335219437E+03  0.00000000000E+00 0.  1.
          6    1    1    2  501    0  0.13900060933E+03  0.34450813618E+01 -0.35959248701E+02  0.22484462535E+03  0.17300000000E+03 0.  1.
         -6    1    1    2    0  503 -0.13900060933E+03 -0.34450813618E+01 -0.22783027975E+03  0.31807023493E+03  0.17300000000E+03 0.  1.
</event>
<event>
 4    1  0.5758867E+000  0.1000000E+03  0.7546771E-02  0.1280296E+00
         21   -1    0    0  501  502  0.00000000000E+00  0.00000000000E+00  0.56578965421E+03  0.56578965421E+03  0.00000000000E+00 0. -1.
         21   -1    0    0  502  503 -0.00000000000E+00 -0.00000000000E+00 -0.14602700175E+03  0.14602700175E+03  0.00000000000E+00 0.  1.
          6    1    1    2  501    0 -0.11847885675E+03  0.64247504956E+01  0.45319197593E+03  0.49939011200E+03  0.17300000000E+03 0. -1.
         -6    1    1    2    0  503  0.11847885675E+03 -0.64247504956E+01 -0.33429323468E+02  0.21242654397E+03  0.17300000000E+03 0.  1.
</event>
<event>
 4    1  0.5758867E+000  0.1000000E+03  0.7546771E-02  0.1280296E+00
         21   -1    0    0  501  502  0.00000000000E+00  0.00000000000E+00  0.62623131198E+03  0.62623131198E+03  0.00000000000E+00 0. -1.
         21   -1    0    0  502  503 -0.00000000000E+00 -0.00000000000E+00 -0.83078034601E+02  0.83078034601E+02  0.00000000000E+00 0.  1.
          6    1    1    2  501    0  0.47455907631E+02  0.37009082601E+02  0.48292131247E+03  0.51649175153E+03  0.17300000000E+03 0. -1.
         -6    1    1    2    0  503 -0.47455907631E+02 -0.37009082601E+02  0.60231964913E+02  0.19281759505E+03  0.17300000000E+03 0.  1.
</event>
<event>
 4    1  0.5758867E+000  0.1000000E+03  0.7546771E-02  0.1280296E+00
         21   -1    0    0  501  502  0.00000000000E+00  0.00000000000E+00  0.82097242279E+02  0.82097242279E+02  0.00000000000E+00 0. -1.
         21   -1    0    0  502  503 -0.00000000000E+00 -0.00000000000E+00 -0.79902404388E+03  0.79902404388E+03  0.00000000000E+00 0.  1.
          6    1    1    2  501    0  0.33653296882E+02  0.13688855508E+03 -0.14226238636E+03  0.26464808232E+03  0.17300000000E+03 0. -1.
         -6    1    1    2    0  503 -0.33653296882E+02 -0.13688855508E+03 -0.57466441524E+03  0.61647320383E+03  0.17300000000E+03 0.  1.
</event>
<event>
 4    1  0.5758867E+000  0.1000000E+03  0.7546771E-02  0.1280296E+00
         21   -1    0    0  501  502  0.00000000000E+00  0.00000000000E+00  0.85912526615E+02  0.85912526615E+02  0.00000000000E+00 0. -1.
         21   -1    0    0  502  503 -0.00000000000E+00 -0.00000000000E+00 -0.85028157280E+03  0.85028157280E+03  0.00000000000E+00 0.  1.
          6    1    1    2  501    0 -0.63455460748E+02  0.18480470904E+03 -0.26043871506E+03  0.36869594558E+03  0.17300000000E+03 0. -1.
         -6    1    1    2    0  503  0.63455460748E+02 -0.18480470904E+03 -0.50393033112E+03  0.56749815384E+03  0.17300000000E+03 0.  1.
</event>
<event>
 4    1  0.5758867E+000  0.1000000E+03  0.7546771E-02  0.1280296E+00
         21   -1    0    0  501  502  0.00000000000E+00  0.00000000000E+00  0.31881327017E+02  0.31881327017E+02  0.00000000000E+00 0. -1.
         21   -1    0    0  502  503 -0.00000000000E+00 -0.00000000000E+00 -0.16697120176E+04  0.16697120176E+04  0.00000000000E+00 0.  1.
          6    1    1    2  501    0  0.31317059363E+02  0.11098183833E+03 -0.45005237562E+03  0.49575585468E+03  0.17300000000E+03 0. -1.
         -6    1    1    2    0  503 -0.31317059363E+02 -0.11098183833E+03 -0.11877783150E+04  0.12058374900E+04  0.17300000000E+03 0.  1.
</event>
<event>
 4    1  0.5758867E+000  0.1000000E+03  0.7546771E-02  0.1280296E+00
         21   -1    0    0  503  502  0.00000000000E+00  0.00000000000E+00  0.45656108972E+03  0.45656108972E+03  0.00000000000E+00 0. -1.
         21   -1    0    0  501  503 -0.00000000000E+00 -0.00000000000E+00 -0.10268802514E+03  0.10268802514E+03  0.00000000000E+00 0.  1.
          6    1    1    2  501    0  0.25443021790E+02  0.95239420241E+02  0.67079185066E+02  0.21011071271E+03  0.17300000000E+03 0.  1.
         -6    1    1    2    0  502 -0.25443021790E+02 -0.95239420241E+02  0.28679387952E+03  0.34913840215E+03  0.17300000000E+03 0. -1.
</event>
<event>
 4    1  0.5758867E+000  0.1000000E+03  0.7546771E-02  0.1280296E+00
         21   -1    0    0  503  502  0.00000000000E+00  0.00000000000E+00  0.41506030996E+03  0.41506030996E+03  0.00000000000E+00 0. -1.
         21   -1    0    0  501  503 -0.00000000000E+00 -0.00000000000E+00 -0.11486772813E+03  0.11486772813E+03  0.00000000000E+00 0.  1.
          6    1    1    2  501    0  0.18951611027E+02 -0.97813605917E+02  0.42778013458E+02  0.20417057452E+03  0.17300000000E+03 0.  1.
         -6    1    1    2    0  502 -0.18951611027E+02  0.97813605917E+02  0.25741456837E+03  0.32575746357E+03  0.17300000000E+03 0. -1.
</event>
<event>
 4    1  0.5758867E+000  0.1000000E+03  0.7546771E-02  0.1280296E+00
         21   -1    0    0  503  502  0.00000000000E+00  0.00000000000E+00  0.22311844790E+03  0.22311844790E+03  0.00000000000E+00 0. -1.
         21   -1    0    0  501  503 -0.00000000000E+00 -0.00000000000E+00 -0.12235451853E+04  0.12235451853E+04  0.00000000000E+00 0.  1.
          6    1    1    2  501    0  0.21241347903E+03  0.10827793383E+03 -0.10976287109E+04  0.11364688223E+04  0.17300000000E+03 0.  1.
         -6    1    1    2    0  502 -0.21241347903E+03 -0.10827793383E+03  0.97201973549E+02  0.31019481087E+03  0.17300000000E+03 0. -1.
</event>
<event>
 4    1  0.5758867E+000  0.1000000E+03  0.7546771E-02  0.1280296E+00
         21   -1    0    0  501  502  0.00000000000E+00  0.00000000000E+00  0.40030948953E+03  0.40030948953E+03  0.00000000000E+00 0. -1.
         21   -1    0    0  502  503 -0.00000000000E+00 -0.00000000000E+00 -0.20711624683E+03  0.20711624683E+03  0.00000000000E+00 0. -1.
          6    1    1    2  501    0  0.20792609594E+03  0.44068227231E+02  0.18978925657E+03  0.33335301399E+03  0.17300000000E+03 0. -1.
         -6    1    1    2    0  503 -0.20792609594E+03 -0.44068227231E+02  0.34039861239E+01  0.27407272237E+03  0.17300000000E+03 0. -1.
</event>
<event>
 4    1  0.5758867E+000  0.1000000E+03  0.7546771E-02  0.1280296E+00
         21   -1    0    0  501  502  0.00000000000E+00  0.00000000000E+00  0.11463577268E+04  0.11463577268E+04  0.00000000000E+00 0.  1.
         21   -1    0    0  502  503 -0.00000000000E+00 -0.00000000000E+00 -0.99441829901E+02  0.99441829901E+02  0.00000000000E+00 0. -1.
          6    1    1    2  501    0  0.26884746026E+03  0.85295381537E+02  0.39952424760E+03  0.51875127318E+03  0.17300000000E+03 0.  1.
         -6    1    1    2    0  503 -0.26884746026E+03 -0.85295381537E+02  0.64739164929E+03  0.72704828352E+03  0.17300000000E+03 0. -1.
</event>
<event>
 4    1  0.5758867E+000  0.1000000E+03  0.7546771E-02  0.1280296E+00
         21   -1    0    0  501  502  0.00000000000E+00  0.00000000000E+00  0.19765034790E+03  0.19765034790E+03  0.00000000000E+00 0.  1.
         21   -1    0    0  502  503 -0.00000000000E+00 -0.00000000000E+00 -0.46409463632E+03  0.46409463632E+03  0.00000000000E+00 0. -1.
          6    1    1    2  501    0  0.46165536717E+02  0.14681287200E+03  0.80058745923E+02  0.24499730399E+03  0.17300000000E+03 0.  1.
         -6    1    1    2    0  503 -0.46165536717E+02 -0.14681287200E+03 -0.34650303434E+03  0.41674768023E+03  0.17300000000E+03 0. -1.
</event>
<event>
 4    1  0.5758867E+000  0.1000000E+03  0.7546771E-02  0.1280296E+00
         21   -1    0    0  501  502  0.00000000000E+00  0.00000000000E+00  0.98328278114E+02  0.98328278114E+02  0.00000000000E+00 0.  1.
         21   -1    0    0  502  503 -0.00000000000E+00 -0.00000000000E+00 -0.44738822045E+03  0.44738822045E+03  0.00000000000E+00 0.  1.
          6    1    1    2  501    0 -0.36698053967E+02 -0.73888008775E+02 -0.63715594902E+02  0.20197738002E+03  0.17300000000E+03 0.  1.
         -6    1    1    2    0  503  0.36698053967E+02  0.73888008775E+02 -0.28534434743E+03  0.34373911854E+03  0.17300000000E+03 0.  1.
</event>
<event>
 4    1  0.5758867E+000  0.1000000E+03  0.7546771E-02  0.1280296E+00
         21   -1    0    0  501  502  0.00000000000E+00  0.00000000000E+00  0.68894570482E+03  0.68894570482E+03  0.00000000000E+00 0.  1.
         21   -1    0    0  502  503 -0.00000000000E+00 -0.00000000000E+00 -0.48301796908E+02  0.48301796908E+02  0.00000000000E+00 0.  1.
          6    1    1    2  501    0  0.38836737976E+02  0.37340043261E+02  0.36298502876E+03  0.40569656413E+03  0.17300000000E+03 0.  1.
         -6    1    1    2    0  503 -0.38836737976E+02 -0.37340043261E+02  0.27765887916E+03  0.33155093760E+03  0.17300000000E+03 0.  1.
</event>
<event>
 4    1  0.5758867E+000  0.1000000E+03  0.7546771E-02  0.1280296E+00
         21   -1    0    0  501  502  0.00000000000E+00  0.00000000000E+00  0.65458613263E+03  0.65458613263E+03  0.00000000000E+00 0.  1.
         21   -1    0    0  502  503 -0.00000000000E+00 -0.00000000000E+00 -0.66610523762E+02  0.66610523762E+02  0.00000000000E+00 0.  1.
          6    1    1    2  501    0 -0.47151742556E+02 -0.37048955461E+01  0.47866440987E+03  0.51116106107E+03  0.17300000000E+03 0.  1.
         -6    1    1    2    0  503  0.47151742556E+02  0.37048955461E+01  0.10931119900E+03  0.21003559533E+03  0.17300000000E+03 0.  1.
</event>
<event>
 4    1  0.5758867E+000  0.1000000E+03  0.7546771E-02  0.1280296E+00
         21   -1    0    0  501  502  0.00000000000E+00  0.00000000000E+00  0.77225203803E+03  0.77225203803E+03  0.00000000000E+00 0. -1.
         21   -1    0    0  502  503 -0.00000000000E+00 -0.00000000000E+00 -0.96212092742E+02  0.96212092742E+02  0.00000000000E+00 0. -1.
          6    1    1    2  501    0 -0.13648578801E+03  0.86257212159E+02  0.55353643751E+03  0.60199689752E+03  0.17300000000E+03 0. -1.
         -6    1    1    2    0  503  0.13648578801E+03 -0.86257212159E+02  0.12250350779E+03  0.26646723326E+03  0.17300000000E+03 0. -1.
</event>
<event>
 4    1  0.5758867E+000  0.1000000E+03  0.7546771E-02  0.1280296E+00
         21   -1    0    0  501  502  0.00000000000E+00  0.00000000000E+00  0.19834900630E+02  0.19834900630E+02  0.00000000000E+00 0. -1.
         21   -1    0    0  502  503 -0.00000000000E+00 -0.00000000000E+00 -0.17680576796E+04  0.17680576796E+04  0.00000000000E+00 0. -1.
          6    1    1    2  501    0 -0.68056311697E+02 -0.21498382992E+02 -0.84159241054E+03  0.86214884302E+03  0.17300000000E+03 0. -1.
         -6    1    1    2    0  503  0.68056311697E+02  0.21498382992E+02 -0.90663036839E+03  0.92574373718E+03  0.17300000000E+03 0. -1.
</event>
<event>
 4    1  0.5758867E+000  0.1000000E+03  0.7546771E-02  0.1280296E+00
         21   -1    0    0  501  502  0.00000000000E+00  0.00000000000E+00  0.26953726592E+03  0.26953726592E+03  0.00000000000E+00 0. -1.
         21   -1    0    0  502  503 -0.00000000000E+00 -0.00000000000E+00 -0.26430642526E+03  0.26430642526E+03  0.00000000000E+00 0.  1.
          6    1    1    2  501    0 -0.75948613760E+02 -0.19390652977E+02  0.19015373266E+03  0.26875943034E+03  0.17300000000E+03 0. -1.
         -6    1    1    2    0  503  0.75948613760E+02  0.19390652977E+02 -0.18492289201E+03  0.26508426084E+03  0.17300000000E+03 0. -1.
</event>
<event>
 4    1  0.5758867E+000  0.1000000E+03  0.7546771E-02  0.1280296E+00
         21   -1    0    0  501  502  0.00000000000E+00  0.00000000000E+00  0.67642544385E+02  0.67642544385E+02  0.00000000000E+00 0. -1.
         21   -1    0    0  502  503 -0.00000000000E+00 -0.00000000000E+00 -0.11819105734E+04  0.11819105734E+04  0.00000000000E+00 0.  1.
          6    1    1    2  501    0 -0.16722665509E+03 -0.74683427044E+02 -0.27350590902E+03  0.37185595425E+03  0.17300000000E+03 0. -1.
         -6    1    1    2    0  503  0.16722665509E+03  0.74683427044E+02 -0.84076212001E+03  0.87769716355E+03  0.17300000000E+03 0. -1.
</event>
<event>
 4    1  0.5758867E+000  0.1000000E+03  0.7546771E-02  0.1280296E+00
         21   -1    0    0  501  502  0.00000000000E+00  0.00000000000E+00  0.58752830862E+03  0.58752830862E+03  0.00000000000E+00 0. -1.
         21   -1    0    0  502  503 -0.00000000000E+00 -0.00000000000E+00 -0.12321061172E+03  0.12321061172E+03  0.00000000000E+00 0.  1.
          6    1    1    2  501    0  0.73145672590E+02  0.48437157703E+02  0.47842699020E+03  0.51625365143E+03  0.17300000000E+03 0. -1.
         -6    1    1    2    0  503 -0.73145672590E+02 -0.48437157703E+02 -0.14109293307E+02  0.19448526891E+03  0.17300000000E+03 0. -1.
</event>
<event>
 4    1  0.5758867E+000  0.1000000E+03  0.7546771E-02  0.1280296E+00
         21   -1    0    0  501  502  0.00000000000E+00  0.00000000000E+00  0.34888073970E+02  0.34888073970E+02  0.00000000000E+00 0. -1.
         21   -1    0    0  502  503 -0.00000000000E+00 -0.00000000000E+00 -0.14841255916E+04  0.14841255916E+04  0.00000000000E+00 0.  1.
          6    1    1    2  501    0  0.24138875234E+02  0.14506559945E+03 -0.77441437994E+03  0.80701508368E+03  0.17300000000E+03 0. -1.
         -6    1    1    2    0  503 -0.24138875234E+02 -0.14506559945E+03 -0.67482313765E+03  0.71199858184E+03  0.17300000000E+03 0. -1.
</event>
<event>
 4    1  0.5758867E+000  0.1000000E+03  0.7546771E-02  0.1280296E+00
         21   -1    0    0  503  502  0.00000000000E+00  0.00000000000E+00  0.15718008744E+03  0.15718008744E+03  0.00000000000E+00 0. -1.
         21   -1    0    0  501  503 -0.00000000000E+00 -0.00000000000E+00 -0.57997496814E+03  0.57997496814E+03  0.00000000000E+00 0. -1.
          6    1    1    2  501    0  0.13765537871E+03 -0.19155872070E+02 -0.46132441357E+03  0.51192300718E+03  0.17300000000E+03 0. -1.
         -6    1    1    2    0  502 -0.13765537871E+03  0.19155872070E+02  0.38529532873E+02  0.22523204840E+03  0.17300000000E+03 0. -1.
</event>
<event>
 4    1  0.5758867E+000  0.1000000E+03  0.7546771E-02  0.1280296E+00
         21   -1    0    0  503  502  0.00000000000E+00  0.00000000000E+00  0.59160365435E+03  0.59160365435E+03  0.00000000000E+00 0. -1.
         21   -1    0    0  501  503 -0.00000000000E+00 -0.00000000000E+00 -0.15702116329E+03  0.15702116329E+03  0.00000000000E+00 0. -1.
          6    1    1    2  501    0  0.15631615925E+03  0.80874230162E+02 -0.23663488813E+01  0.24679947803E+03  0.17300000000E+03 0. -1.
         -6    1    1    2    0  502 -0.15631615925E+03 -0.80874230162E+02  0.43694883994E+03  0.50182533961E+03  0.17300000000E+03 0. -1.
</event>
<event>
 4    1  0.5758867E+000  0.1000000E+03  0.7546771E-02  0.1280296E+00
         21   -1    0    0  503  502  0.00000000000E+00  0.00000000000E+00  0.16210216248E+03  0.16210216248E+03  0.00000000000E+00 0. -1.
         21   -1    0    0  501  503 -0.00000000000E+00 -0.00000000000E+00 -0.16469399687E+04  0.16469399687E+04  0.00000000000E+00 0.  1.
          6    1    1    2  501    0  0.22679795193E+03 -0.12524180079E+03 -0.14640388922E+04  0.14968171890E+04  0.17300000000E+03 0. -1.
         -6    1    1    2    0  502 -0.22679795193E+03  0.12524180079E+03 -0.20798914049E+02  0.31222494213E+03  0.17300000000E+03 0.  1.
</event>
<event>
 4    1  0.5758867E+000  0.1000000E+03  0.7546771E-02  0.1280296E+00
         21   -1    0    0  503  502  0.00000000000E+00  0.00000000000E+00  0.39537915003E+03  0.39537915003E+03  0.00000000000E+00 0. -1.
         21   -1    0    0  501  503 -0.00000000000E+00 -0.00000000000E+00 -0.11498497559E+03  0.11498497559E+03  0.00000000000E+00 0.  1.
          6    1    1    2  501    0 -0.35743416069E+02  0.72773276055E+02  0.25348397251E+03  0.31742190507E+03  0.17300000000E+03 0. -1.
         -6    1    1    2    0  502  0.35743416069E+02 -0.72773276055E+02  0.26910201927E+02  0.19294222054E+03  0.17300000000E+03 0.  1.
</event>
<event>
 4    1  0.5758867E+000  0.1000000E+03  0.7546771E-02  0.1280296E+00
         21   -1    0    0  501  502  0.00000000000E+00  0.00000000000E+00  0.55370732280E+02  0.55370732280E+02  0.00000000000E+00 0. -1.
         21   -1    0    0  502  503 -0.00000000000E+00 -0.00000000000E+00 -0.26895135854E+04  0.26895135854E+04  0.00000000000E+00 0. -1.
          6    1    1    2  501    0  0.33129366706E+03  0.66191288410E+02 -0.10692768411E+04  0.11346447653E+04  0.17300000000E+03 0. -1.
         -6    1    1    2    0  503 -0.33129366706E+03 -0.66191288410E+02 -0.15648660120E+04  0.16102395523E+04  0.17300000000E+03 0. -1.
</event>
<event>
 4    1  0.5758867E+000  0.1000000E+03  0.7546771E-02  0.1280296E+00
         21   -1    0    0  503  502  0.00000000000E+00  0.00000000000E+00  0.33227749342E+03  0.33227749342E+03  0.00000000000E+00 0.  1.
         21   -1    0    0  501  503 -0.00000000000E+00 -0.00000000000E+00 -0.36399517266E+03  0.36399517266E+03  0.00000000000E+00 0. -1.
          6    1    1    2  501    0 -0.14410327263E+03  0.18638200631E+03 -0.20450731739E+03  0.35672993752E+03  0.17300000000E+03 0. -1.
         -6    1    1    2    0  502  0.14410327263E+03 -0.18638200631E+03  0.17278963815E+03  0.33954272855E+03  0.17300000000E+03 0. -1.
</event>
<event>
 4    1  0.5758867E+000  0.1000000E+03  0.7546771E-02  0.1280296E+00
         21   -1    0    0  503  502  0.00000000000E+00  0.00000000000E+00  0.11475331882E+04  0.11475331882E+04  0.00000000000E+00 0.  1.
         21   -1    0    0  501  503 -0.00000000000E+00 -0.00000000000E+00 -0.87634492965E+02  0.87634492965E+02  0.00000000000E+00 0. -1.
          6    1    1    2  501    0 -0.15112785943E+03 -0.81389765861E+02  0.13479280942E+03  0.27849959669E+03  0.17300000000E+03 0. -1.
         -6    1    1    2    0  502  0.15112785943E+03  0.81389765861E+02  0.92510588578E+03  0.95666808444E+03  0.17300000000E+03 0. -1.
</event>
<event>
 4    1  0.5758867E+000  0.1000000E+03  0.7546771E-02  0.1280296E+00
         21   -1    0    0  503  502  0.00000000000E+00  0.00000000000E+00  0.54013835458E+03  0.54013835458E+03  0.00000000000E+00 0.  1.
         21   -1    0    0  501  503 -0.00000000000E+00 -0.00000000000E+00 -0.80287956665E+02  0.80287956665E+02  0.00000000000E+00 0. -1.
          6    1    1    2  501    0  0.38753592525E+01  0.10792888252E+03  0.16718407480E+03  0.26371040358E+03  0.17300000000E+03 0. -1.
         -6    1    1    2    0  502 -0.38753592525E+01 -0.10792888252E+03  0.29266632311E+03  0.35671590766E+03  0.17300000000E+03 0. -1.
</event>
<event>
 4    1  0.5758867E+000  0.1000000E+03  0.7546771E-02  0.1280296E+00
         21   -1    0    0  501  502  0.00000000000E+00  0.00000000000E+00  0.51916583826E+03  0.51916583826E+03  0.00000000000E+00 0.  1.
         21   -1    0    0  502  503 -0.00000000000E+00 -0.00000000000E+00 -0.18237117647E+03  0.18237117647E+03  0.00000000000E+00 0.  1.
          6    1    1    2  501    0  0.89858778451E+02  0.14137772965E+02  0.43930844325E+03  0.48082781221E+03  0.17300000000E+03 0.  1.
         -6    1    1    2    0  503 -0.89858778451E+02 -0.14137772965E+02 -0.10251378145E+03  0.22070920252E+03  0.17300000000E+03 0.  1.
</event>
<event>
 4    1  0.5758867E+000  0.1000000E+03  0.7546771E-02  0.1280296E+00
         21   -1    0    0  501  502  0.00000000000E+00  0.00000000000E+00  0.12441189830E+03  0.12441189830E+03  0.00000000000E+00 0.  1.
         21   -1    0    0  502  503 -0.00000000000E+00 -0.00000000000E+00 -0.46383803704E+03  0.46383803704E+03  0.00000000000E+00 0. -1.
          6    1    1    2  501    0 -0.52454483586E+02  0.13682265524E+03 -0.26694228092E+03  0.35022720223E+03  0.17300000000E+03 0.  1.
         -6    1    1    2    0  503  0.52454483586E+02 -0.13682265524E+03 -0.72483857817E+02  0.23802273311E+03  0.17300000000E+03 0. -1.
</event>
<event>
 4    1  0.5758867E+000  0.1000000E+03  0.7546771E-02  0.1280296E+00
         21   -1    0    0  501  502  0.00000000000E+00  0.00000000000E+00  0.12771932000E+03  0.12771932000E+03  0.00000000000E+00 0.  1.
         21   -1    0    0  502  503 -0.00000000000E+00 -0.00000000000E+00 -0.45223981530E+03  0.45223981530E+03  0.00000000000E+00 0. -1.
          6    1    1    2  501    0  0.11258667982E+03  0.78290582978E+02 -0.47631802403E+02  0.22583835913E+03  0.17300000000E+03 0.  1.
         -6    1    1    2    0  503 -0.11258667982E+03 -0.78290582978E+02 -0.27688869290E+03  0.35412077617E+03  0.17300000000E+03 0. -1.
</event>
<event>
 4    1  0.5758867E+000  0.1000000E+03  0.7546771E-02  0.1280296E+00
         21   -1    0    0  501  502  0.00000000000E+00  0.00000000000E+00  0.54643918364E+03  0.54643918364E+03  0.00000000000E+00 0.  1.
         21   -1    0    0  502  503 -0.00000000000E+00 -0.00000000000E+00 -0.27683056093E+03  0.27683056093E+03  0.00000000000E+00 0.  1.
          6    1    1    2  501    0  0.32685297577E+03  0.24483283263E+02  0.25962717754E+03  0.45251250839E+03  0.17300000000E+03 0.  1.
         -6    1    1    2    0  503 -0.32685297577E+03 -0.24483283263E+02  0.99814451629E+01  0.37075723618E+03  0.17300000000E+03 0.  1.
</event>
<event>
 4    1  0.5758867E+000  0.1000000E+03  0.7546771E-02  0.1280296E+00
         21   -1    0    0  501  502  0.00000000000E+00  0.00000000000E+00  0.22726734749E+03  0.22726734749E+03  0.00000000000E+00 0.  1.
         21   -1    0    0  502  503 -0.00000000000E+00 -0.00000000000E+00 -0.53758497063E+03  0.53758497063E+03  0.00000000000E+00 0.  1.
          6    1    1    2  501    0 -0.23231106107E+03  0.15433288651E+03 -0.23596568884E+02  0.32904842655E+03  0.17300000000E+03 0.  1.
         -6    1    1    2    0  503  0.23231106107E+03 -0.15433288651E+03 -0.28672105426E+03  0.43580389157E+03  0.17300000000E+03 0.  1.
</event>
<event>
 4    1  0.5758867E+000  0.1000000E+03  0.7546771E-02  0.1280296E+00
         21   -1    0    0  501  502  0.00000000000E+00  0.00000000000E+00  0.95917570909E+03  0.95917570909E+03  0.00000000000E+00 0.  1.
         21   -1    0    0  502  503 -0.00000000000E+00 -0.00000000000E+00 -0.54393056487E+02  0.54393056487E+02  0.00000000000E+00 0.  1.
          6    1    1    2  501    0 -0.69208971791E+02 -0.81229801429E+02  0.68355737132E+03  0.71313942697E+03  0.17300000000E+03 0.  1.
         -6    1    1    2    0  503  0.69208971791E+02  0.81229801429E+02  0.22122528129E+03  0.30042933861E+03  0.17300000000E+03 0.  1.
</event>
<event>
 4    1  0.5758867E+000  0.1000000E+03  0.7546771E-02  0.1280296E+00
         21   -1    0    0  501  502  0.00000000000E+00  0.00000000000E+00  0.93758694439E+02  0.93758694439E+02  0.00000000000E+00 0.  1.
         21   -1    0    0  502  503 -0.00000000000E+00 -0.00000000000E+00 -0.55374826911E+03  0.55374826911E+03  0.00000000000E+00 0.  1.
          6    1    1    2  501    0 -0.13663208365E+03 -0.47329434073E+02 -0.18327205602E+03  0.29056160815E+03  0.17300000000E+03 0.  1.
         -6    1    1    2    0  503  0.13663208365E+03  0.47329434073E+02 -0.27671751865E+03  0.35694535540E+03  0.17300000000E+03 0.  1.
</event>
<event>
 4    1  0.5758867E+000  0.1000000E+03  0.7546771E-02  0.1280296E+00
         21   -1    0    0  503  502  0.00000000000E+00  0.00000000000E+00  0.49171228099E+02  0.49171228099E+02  0.00000000000E+00 0. -1.
         21   -1    0    0  501  503 -0.00000000000E+00 -0.00000000000E+00 -0.12786716283E+04  0.12786716283E+04  0.00000000000E+00 0. -1.
          6    1    1    2  501    0  0.57537437173E+02 -0.19392673476E+02 -0.10676536281E+04  0.10832820049E+04  0.17300000000E+03 0. -1.
         -6    1    1    2    0  502 -0.57537437173E+02  0.19392673476E+02 -0.16184677207E+03  0.24456085151E+03  0.17300000000E+03 0. -1.
</event>
<event>
 4    1  0.5758867E+000  0.1000000E+03  0.7546771E-02  0.1280296E+00
         21   -1    0    0  503  502  0.00000000000E+00  0.00000000000E+00  0.28403151899E+03  0.28403151899E+03  0.00000000000E+00 0. -1.
         21   -1    0    0  501  503 -0.00000000000E+00 -0.00000000000E+00 -0.15402228152E+03  0.15402228152E+03  0.00000000000E+00 0. -1.
          6    1    1    2  501    0  0.65964426749E+02 -0.53230918139E+02  0.15029277952E+03  0.24433942748E+03  0.17300000000E+03 0. -1.
         -6    1    1    2    0  502 -0.65964426749E+02  0.53230918139E+02 -0.20283542053E+02  0.19371437304E+03  0.17300000000E+03 0. -1.
</event>
<event>
 4    1  0.5758867E+000  0.1000000E+03  0.7546771E-02  0.1280296E+00
         21   -1    0    0  503  502  0.00000000000E+00  0.00000000000E+00  0.29827204241E+03  0.29827204241E+03  0.00000000000E+00 0. -1.
         21   -1    0    0  501  503 -0.00000000000E+00 -0.00000000000E+00 -0.20245330697E+03  0.20245330697E+03  0.00000000000E+00 0. -1.
          6    1    1    2  501    0  0.17353565083E+03 -0.16322504517E+02  0.39020708012E+02  0.24866174197E+03  0.17300000000E+03 0. -1.
         -6    1    1    2    0  502 -0.17353565083E+03  0.16322504517E+02  0.56798027421E+02  0.25206360741E+03  0.17300000000E+03 0. -1.
</event>
<event>
 4    1  0.5758867E+000  0.1000000E+03  0.7546771E-02  0.1280296E+00
         21   -1    0    0  503  502  0.00000000000E+00  0.00000000000E+00  0.79507775227E+03  0.79507775227E+03  0.00000000000E+00 0. -1.
         21   -1    0    0  501  503 -0.00000000000E+00 -0.00000000000E+00 -0.24767883677E+03  0.24767883677E+03  0.00000000000E+00 0. -1.
          6    1    1    2  501    0 -0.13951152478E+03 -0.32167091468E+03  0.52031613590E+03  0.65084062886E+03  0.17300000000E+03 0. -1.
         -6    1    1    2    0  502  0.13951152478E+03  0.32167091468E+03  0.27082779606E+02  0.39191596019E+03  0.17300000000E+03 0. -1.
</event>
<event>
 4    1  0.5758867E+000  0.1000000E+03  0.7546771E-02  0.1280296E+00
         21   -1    0    0  503  502  0.00000000000E+00  0.00000000000E+00  0.27362634447E+03  0.27362634447E+03  0.00000000000E+00 0. -1.
         21   -1    0    0  501  503 -0.00000000000E+00 -0.00000000000E+00 -0.14622595461E+03  0.14622595461E+03  0.00000000000E+00 0. -1.
          6    1    1    2  501    0 -0.57253726596E+02  0.74731301573E+01 -0.22513634785E+02  0.18376534122E+03  0.17300000000E+03 0. -1.
         -6    1    1    2    0  502  0.57253726596E+02 -0.74731301573E+01  0.14991402465E+03  0.23608695785E+03  0.17300000000E+03 0. -1.
</event>
<event>
 4    1  0.5758867E+000  0.1000000E+03  0.7546771E-02  0.1280296E+00
         21   -1    0    0  503  502  0.00000000000E+00  0.00000000000E+00  0.59044997960E+02  0.59044997960E+02  0.00000000000E+00 0. -1.
         21   -1    0    0  501  503 -0.00000000000E+00 -0.00000000000E+00 -0.65152280443E+03  0.65152280443E+03  0.00000000000E+00 0. -1.
          6    1    1    2  501    0  0.30092741988E+02 -0.47939014074E+02 -0.42856484598E+03  0.46561845904E+03  0.17300000000E+03 0. -1.
         -6    1    1    2    0  502 -0.30092741988E+02  0.47939014074E+02 -0.16391296049E+03  0.24494934335E+03  0.17300000000E+03 0. -1.
</event>
<event>
 4    1  0.5758867E+000  0.1000000E+03  0.7546771E-02  0.1280296E+00
         21   -1    0    0  503  502  0.00000000000E+00  0.00000000000E+00  0.45657761630E+03  0.45657761630E+03  0.00000000000E+00 0. -1.
         21   -1    0    0  501  503 -0.00000000000E+00 -0.00000000000E+00 -0.82260518978E+02  0.82260518978E+02  0.00000000000E+00 0.  1.
          6    1    1    2  501    0  0.19589932183E+01  0.61231239106E+02  0.10060618913E+03  0.20929335295E+03  0.17300000000E+03 0.  1.
         -6    1    1    2    0  502 -0.19589932183E+01 -0.61231239106E+02  0.27371090819E+03  0.32954478233E+03  0.17300000000E+03 0. -1.
</event>
<event>
 4    1  0.5758867E+000  0.1000000E+03  0.7546771E-02  0.1280296E+00
         21   -1    0    0  503  502  0.00000000000E+00  0.00000000000E+00  0.21562029268E+03  0.21562029268E+03  0.00000000000E+00 0. -1.
         21   -1    0    0  501  503 -0.00000000000E+00 -0.00000000000E+00 -0.22941331320E+03  0.22941331320E+03  0.00000000000E+00 0.  1.
          6    1    1    2  501    0  0.65557456188E+02  0.11087213986E+03 -0.61206616046E+02  0.22420004752E+03  0.17300000000E+03 0.  1.
         -6    1    1    2    0  502 -0.65557456188E+02 -0.11087213986E+03  0.47413595519E+02  0.22083355836E+03  0.17300000000E+03 0. -1.
</event>
<event>
 4    1  0.5758867E+000  0.1000000E+03  0.7546771E-02  0.1280296E+00
         21   -1    0    0  503  502  0.00000000000E+00  0.00000000000E+00  0.83436200261E+02  0.83436200261E+02  0.00000000000E+00 0. -1.
         21   -1    0    0  501  503 -0.00000000000E+00 -0.00000000000E+00 -0.41016795413E+03  0.41016795413E+03  0.00000000000E+00 0.  1.
          6    1    1    2  501    0 -0.48112564464E+02  0.44474033735E+02 -0.16196854680E+03  0.24587714145E+03  0.17300000000E+03 0.  1.
         -6    1    1    2    0  502  0.48112564464E+02 -0.44474033735E+02 -0.16476320708E+03  0.24772701294E+03  0.17300000000E+03 0. -1.
</event>
<event>
 4    1  0.5758867E+000  0.1000000E+03  0.7546771E-02  0.1280296E+00
         21   -1    0    0  503  502  0.00000000000E+00  0.00000000000E+00  0.17459265716E+03  0.17459265716E+03  0.00000000000E+00 0.  1.
         21   -1    0    0  501  503 -0.00000000000E+00 -0.00000000000E+00 -0.26382552087E+03  0.26382552087E+03  0.00000000000E+00 0.  1.
          6    1    1    2  501    0  0.11799985905E+03 -0.14570171910E+02 -0.90256696273E+02  0.22849841984E+03  0.17300000000E+03 0.  1.
         -6    1    1    2    0  502 -0.11799985905E+03  0.14570171910E+02  0.10238325550E+01  0.20991975819E+03  0.17300000000E+03 0.  1.
</event>
<event>
 4    1  0.5758867E+000  0.1000000E+03  0.7546771E-02  0.1280296E+00
         21   -1    0    0  503  502  0.00000000000E+00  0.00000000000E+00  0.42215545128E+03  0.42215545128E+03  0.00000000000E+00 0.  1.
         21   -1    0    0  501  503 -0.00000000000E+00 -0.00000000000E+00 -0.27079721860E+03  0.27079721860E+03  0.00000000000E+00 0.  1.
          6    1    1    2  501    0  0.12728932396E+03  0.46669434434E+02 -0.18760009588E+03  0.28896955562E+03  0.17300000000E+03 0.  1.
         -6    1    1    2    0  502 -0.12728932396E+03 -0.46669434434E+02  0.33895832856E+03  0.40398311426E+03  0.17300000000E+03 0.  1.
</event>
<event>
 4    1  0.5758867E+000  0.1000000E+03  0.7546771E-02  0.1280296E+00
         21   -1    0    0  501  502  0.00000000000E+00  0.00000000000E+00  0.49678996987E+03  0.49678996987E+03  0.00000000000E+00 0. -1.
         21   -1    0    0  502  503 -0.00000000000E+00 -0.00000000000E+00 -0.29045807665E+03  0.29045807665E+03  0.00000000000E+00 0.  1.
          6    1    1    2  501    0  0.17582606702E+02 -0.27276110669E+03  0.30952770001E+03  0.44770991328E+03  0.17300000000E+03 0. -1.
         -6    1    1    2    0  503 -0.17582606702E+02  0.27276110669E+03 -0.10319580678E+03  0.33953813323E+03  0.17300000000E+03 0.  1.
</event>
<event>
 4    1  0.5758867E+000  0.1000000E+03  0.7546771E-02  0.1280296E+00
         21   -1    0    0  501  502  0.00000000000E+00  0.00000000000E+00  0.10444771328E+04  0.10444771328E+04  0.00000000000E+00 0. -1.
         21   -1    0    0  502  503 -0.00000000000E+00 -0.00000000000E+00 -0.91985984431E+02  0.91985984431E+02  0.00000000000E+00 0.  1.
          6    1    1    2  501    0 -0.99363496856E+01  0.25049266754E+03  0.37088793412E+03  0.47992933565E+03  0.17300000000E+03 0. -1.
         -6    1    1    2    0  503  0.99363496856E+01 -0.25049266754E+03  0.58160321420E+03  0.65653378154E+03  0.17300000000E+03 0.  1.
</event>
<event>
 4    1  0.5758867E+000  0.1000000E+03  0.7546771E-02  0.1280296E+00
         21   -1    0    0  501  502  0.00000000000E+00  0.00000000000E+00  0.29880842092E+03  0.29880842092E+03  0.00000000000E+00 0. -1.
         21   -1    0    0  502  503 -0.00000000000E+00 -0.00000000000E+00 -0.17019707362E+03  0.17019707362E+03  0.00000000000E+00 0.  1.
          6    1    1    2  501    0  0.55520049473E+02  0.11051007593E+03  0.14234632941E+03  0.25590316582E+03  0.17300000000E+03 0. -1.
         -6    1    1    2    0  503 -0.55520049473E+02 -0.11051007593E+03 -0.13734982117E+02  0.21310232873E+03  0.17300000000E+03 0.  1.
</event>
<event>
 4    1  0.5758867E+000  0.1000000E+03  0.7546771E-02  0.1280296E+00
         21   -1    0    0  501  502  0.00000000000E+00  0.00000000000E+00  0.12448508464E+03  0.12448508464E+03  0.00000000000E+00 0. -1.
         21   -1    0    0  502  503 -0.00000000000E+00 -0.00000000000E+00 -0.25603931507E+03  0.25603931507E+03  0.00000000000E+00 0. -1.
          6    1    1    2  501    0 -0.38574937644E+01 -0.37341201667E+02 -0.41130999098E+02  0.18174158766E+03  0.17300000000E+03 0. -1.
         -6    1    1    2    0  503  0.38574937644E+01  0.37341201667E+02 -0.90423231333E+02  0.19878281205E+03  0.17300000000E+03 0. -1.
</event>
<event>
 4    1  0.5758867E+000  0.1000000E+03  0.7546771E-02  0.1280296E+00
         21   -1    0    0  503  502  0.00000000000E+00  0.00000000000E+00  0.19356671490E+03  0.19356671490E+03  0.00000000000E+00 0.  1.
         21   -1    0    0  501  503 -0.00000000000E+00 -0.00000000000E+00 -0.21886612900E+03  0.21886612900E+03  0.00000000000E+00 0. -1.
          6    1    1    2  501    0 -0.47481941878E+02  0.31645646281E+02 -0.10864392517E+03  0.21210488964E+03  0.17300000000E+03 0. -1.
         -6    1    1    2    0  502  0.47481941878E+02 -0.31645646281E+02  0.83344511064E+02  0.20032795426E+03  0.17300000000E+03 0.  1.
</event>
<event>
 4    1  0.5758867E+000  0.1000000E+03  0.7546771E-02  0.1280296E+00
         21   -1    0    0  503  502  0.00000000000E+00  0.00000000000E+00  0.11426961293E+03  0.11426961293E+03  0.00000000000E+00 0.  1.
         21   -1    0    0  501  503 -0.00000000000E+00 -0.00000000000E+00 -0.47163639037E+03  0.47163639037E+03  0.00000000000E+00 0. -1.
          6    1    1    2  501    0 -0.27227149384E+02  0.12385712574E+03 -0.29072239383E+03  0.36128993279E+03  0.17300000000E+03 0. -1.
         -6    1    1    2    0  502  0.27227149384E+02 -0.12385712574E+03 -0.66644383610E+02  0.22461607050E+03  0.17300000000E+03 0.  1.
</event>
<event>
 4    1  0.5758867E+000  0.1000000E+03  0.7546771E-02  0.1280296E+00
         21   -1    0    0  503  502  0.00000000000E+00  0.00000000000E+00  0.22263920462E+03  0.22263920462E+03  0.00000000000E+00 0.  1.
         21   -1    0    0  501  503 -0.00000000000E+00 -0.00000000000E+00 -0.14423243737E+03  0.14423243737E+03  0.00000000000E+00 0. -1.
          6    1    1    2  501    0 -0.28707802861E+02  0.29273082841E+02  0.16273974272E+02  0.17853541263E+03  0.17300000000E+03 0. -1.
         -6    1    1    2    0  502  0.28707802861E+02 -0.29273082841E+02  0.62132792982E+02  0.18833622936E+03  0.17300000000E+03 0.  1.
</event>
<event>
 4    1  0.5758867E+000  0.1000000E+03  0.7546771E-02  0.1280296E+00
         21   -1    0    0  501  502  0.00000000000E+00  0.00000000000E+00  0.34076783434E+03  0.34076783434E+03  0.00000000000E+00 0. -1.
         21   -1    0    0  502  503 -0.00000000000E+00 -0.00000000000E+00 -0.11737653874E+03  0.11737653874E+03  0.00000000000E+00 0.  1.
          6    1    1    2  501    0  0.53303848271E+02  0.72175697795E+02  0.16315551422E+03  0.25416402856E+03  0.17300000000E+03 0. -1.
         -6    1    1    2    0  503 -0.53303848271E+02 -0.72175697795E+02  0.60235781383E+02  0.20398034452E+03  0.17300000000E+03 0.  1.
</event>
<event>
 4    1  0.5758867E+000  0.1000000E+03  0.7546771E-02  0.1280296E+00
         21   -1    0    0  501  502  0.00000000000E+00  0.00000000000E+00  0.48333922734E+03  0.48333922734E+03  0.00000000000E+00 0. -1.
         21   -1    0    0  502  503 -0.00000000000E+00 -0.00000000000E+00 -0.30304304315E+03  0.30304304315E+03  0.00000000000E+00 0.  1.
          6    1    1    2  501    0  0.29307776239E+03 -0.48854830536E+02  0.26286254500E+03  0.43278988764E+03  0.17300000000E+03 0. -1.
         -6    1    1    2    0  503 -0.29307776239E+03  0.48854830536E+02 -0.82566360804E+02  0.35359238285E+03  0.17300000000E+03 0.  1.
</event>
<event>
 4    1  0.5758867E+000  0.1000000E+03  0.7546771E-02  0.1280296E+00
         21   -1    0    0  501  502  0.00000000000E+00  0.00000000000E+00  0.59433036087E+03  0.59433036087E+03  0.00000000000E+00 0. -1.
         21   -1    0    0  502  503 -0.00000000000E+00 -0.00000000000E+00 -0.11788479713E+03  0.11788479713E+03  0.00000000000E+00 0. -1.
          6    1    1    2  501    0 -0.35953862202E+02 -0.19707921496E+03  0.23927942079E+03  0.35681443131E+03  0.17300000000E+03 0. -1.
         -6    1    1    2    0  503  0.35953862202E+02  0.19707921496E+03  0.23716614294E+03  0.35540072669E+03  0.17300000000E+03 0. -1.
</event>
<event>
 4    1  0.5758867E+000  0.1000000E+03  0.7546771E-02  0.1280296E+00
         21   -1    0    0  503  502  0.00000000000E+00  0.00000000000E+00  0.22310187956E+03  0.22310187956E+03  0.00000000000E+00 0. -1.
         21   -1    0    0  501  503 -0.00000000000E+00 -0.00000000000E+00 -0.76783559034E+03  0.76783559034E+03  0.00000000000E+00 0.  1.
          6    1    1    2  501    0  0.10472244430E+03  0.53566661755E+02 -0.69988483522E+03  0.73048200537E+03  0.17300000000E+03 0.  1.
         -6    1    1    2    0  502 -0.10472244430E+03 -0.53566661755E+02  0.15515112444E+03  0.26045546453E+03  0.17300000000E+03 0.  1.
</event>
<event>
 4    1  0.5758867E+000  0.1000000E+03  0.7546771E-02  0.1280296E+00
         21   -1    0    0  501  502  0.00000000000E+00  0.00000000000E+00  0.11156323749E+03  0.11156323749E+03  0.00000000000E+00 0. -1.
         21   -1    0    0  502  503 -0.00000000000E+00 -0.00000000000E+00 -0.67811511022E+03  0.67811511022E+03  0.00000000000E+00 0. -1.
          6    1    1    2  501    0 -0.11897537461E+03 -0.16117002315E+03 -0.17592084370E+03  0.31781765114E+03  0.17300000000E+03 0. -1.
         -6    1    1    2    0  503  0.11897537461E+03  0.16117002315E+03 -0.39063102903E+03  0.47186069657E+03  0.17300000000E+03 0. -1.
</event>
<event>
 4    1  0.5758867E+000  0.1000000E+03  0.7546771E-02  0.1280296E+00
         21   -1    0    0  501  502  0.00000000000E+00  0.00000000000E+00  0.38048848120E+03  0.38048848120E+03  0.00000000000E+00 0. -1.
         21   -1    0    0  502  503 -0.00000000000E+00 -0.00000000000E+00 -0.15259202624E+03  0.15259202624E+03  0.00000000000E+00 0.  1.
          6    1    1    2  501    0  0.47881163942E+01  0.49476109999E+02  0.29114340172E+03  0.34229269914E+03  0.17300000000E+03 0. -1.
         -6    1    1    2    0  503 -0.47881163942E+01 -0.49476109999E+02 -0.63246946758E+02  0.19078780829E+03  0.17300000000E+03 0.  1.
</event>
<event>
 4    1  0.5758867E+000  0.1000000E+03  0.7546771E-02  0.1280296E+00
         21   -1    0    0  501  502  0.00000000000E+00  0.00000000000E+00  0.27417383743E+03  0.27417383743E+03  0.00000000000E+00 0. -1.
         21   -1    0    0  502  503 -0.00000000000E+00 -0.00000000000E+00 -0.52806221249E+03  0.52806221249E+03  0.00000000000E+00 0.  1.
          6    1    1    2  501    0 -0.23896793444E+03 -0.10709170754E+03  0.99834240001E+02  0.32934811825E+03  0.17300000000E+03 0. -1.
         -6    1    1    2    0  503  0.23896793444E+03  0.10709170754E+03 -0.35372261506E+03  0.47288793167E+03  0.17300000000E+03 0.  1.
</event>
<event>
 4    1  0.5758867E+000  0.1000000E+03  0.7546771E-02  0.1280296E+00
         21   -1    0    0  501  502  0.00000000000E+00  0.00000000000E+00  0.22033057364E+03  0.22033057364E+03  0.00000000000E+00 0. -1.
         21   -1    0    0  502  503 -0.00000000000E+00 -0.00000000000E+00 -0.16199684029E+03  0.16199684029E+03  0.00000000000E+00 0.  1.
          6    1    1    2  501    0 -0.36847445585E+02  0.57025879999E+02 -0.52087077793E+01  0.18591884217E+03  0.17300000000E+03 0. -1.
         -6    1    1    2    0  503  0.36847445585E+02 -0.57025879999E+02  0.63542441130E+02  0.19640857176E+03  0.17300000000E+03 0.  1.
</event>
<event>
 4    1  0.5758867E+000  0.1000000E+03  0.7546771E-02  0.1280296E+00
         21   -1    0    0  501  502  0.00000000000E+00  0.00000000000E+00  0.96372785301E+02  0.96372785301E+02  0.00000000000E+00 0.  1.
         21   -1    0    0  502  503 -0.00000000000E+00 -0.00000000000E+00 -0.10304158736E+04  0.10304158736E+04  0.00000000000E+00 0.  1.
          6    1    1    2  501    0  0.19720270038E+03 -0.13169048793E+03 -0.26205226448E+03  0.39348656771E+03  0.17300000000E+03 0.  1.
         -6    1    1    2    0  503 -0.19720270038E+03  0.13169048793E+03 -0.67199082380E+03  0.73330209118E+03  0.17300000000E+03 0.  1.
</event>
<event>
 4    1  0.5758867E+000  0.1000000E+03  0.7546771E-02  0.1280296E+00
         21   -1    0    0  503  502  0.00000000000E+00  0.00000000000E+00  0.11693949558E+03  0.11693949558E+03  0.00000000000E+00 0. -1.
         21   -1    0    0  501  503 -0.00000000000E+00 -0.00000000000E+00 -0.36011807422E+03  0.36011807422E+03  0.00000000000E+00 0. -1.
          6    1    1    2  501    0 -0.61394198146E+02 -0.60565105492E+02 -0.20166216303E+03  0.27934567755E+03  0.17300000000E+03 0. -1.
         -6    1    1    2    0  502  0.61394198146E+02  0.60565105492E+02 -0.41516415613E+02  0.19771189224E+03  0.17300000000E+03 0. -1.
</event>
<event>
 4    1  0.5758867E+000  0.1000000E+03  0.7546771E-02  0.1280296E+00
         21   -1    0    0  501  502  0.00000000000E+00  0.00000000000E+00  0.57623149296E+03  0.57623149296E+03  0.00000000000E+00 0.  1.
         21   -1    0    0  502  503 -0.00000000000E+00 -0.00000000000E+00 -0.67783022494E+02  0.67783022494E+02  0.00000000000E+00 0. -1.
          6    1    1    2  501    0  0.69669287102E+02 -0.54928123249E+02  0.19641652727E+03  0.27636816111E+03  0.17300000000E+03 0. -1.
         -6    1    1    2    0  503 -0.69669287102E+02  0.54928123249E+02  0.31203194320E+03  0.36764635435E+03  0.17300000000E+03 0.  1.
</event>
<event>
 4    1  0.5758867E+000  0.1000000E+03  0.7546771E-02  0.1280296E+00
         21   -1    0    0  501  502  0.00000000000E+00  0.00000000000E+00  0.16427519296E+03  0.16427519296E+03  0.00000000000E+00 0.  1.
         21   -1    0    0  502  503 -0.00000000000E+00 -0.00000000000E+00 -0.80033363649E+03  0.80033363649E+03  0.00000000000E+00 0. -1.
          6    1    1    2  501    0 -0.82583166575E+02  0.15056647682E+03  0.39024807233E+02  0.24686469760E+03  0.17300000000E+03 0. -1.
         -6    1    1    2    0  503  0.82583166575E+02 -0.15056647682E+03 -0.67508325077E+03  0.71774413185E+03  0.17300000000E+03 0.  1.
</event>
<event>
 4    1  0.5758867E+000  0.1000000E+03  0.7546771E-02  0.1280296E+00
         21   -1    0    0  501  502  0.00000000000E+00  0.00000000000E+00  0.51387722505E+03  0.51387722505E+03  0.00000000000E+00 0.  1.
         21   -1    0    0  502  503 -0.00000000000E+00 -0.00000000000E+00 -0.19763388803E+03  0.19763388803E+03  0.00000000000E+00 0. -1.
          6    1    1    2  501    0 -0.12917724136E+03  0.14038934331E+03  0.36766610572E+03  0.44889118135E+03  0.17300000000E+03 0. -1.
         -6    1    1    2    0  503  0.12917724136E+03 -0.14038934331E+03 -0.51422768706E+02  0.26261993173E+03  0.17300000000E+03 0.  1.
</event>
<event>
 4    1  0.5758867E+000  0.1000000E+03  0.7546771E-02  0.1280296E+00
         21   -1    0    0  501  502  0.00000000000E+00  0.00000000000E+00  0.46367882219E+03  0.46367882219E+03  0.00000000000E+00 0. -1.
         21   -1    0    0  502  503 -0.00000000000E+00 -0.00000000000E+00 -0.55035124771E+03  0.55035124771E+03  0.00000000000E+00 0.  1.
          6    1    1    2  501    0  0.30776013282E+02  0.18076262011E+03  0.39603294414E+03  0.46946073390E+03  0.17300000000E+03 0. -1.
         -6    1    1    2    0  503 -0.30776013282E+02 -0.18076262011E+03 -0.48270536966E+03  0.54456933601E+03  0.17300000000E+03 0.  1.
</event>
<event>
 4    1  0.5758867E+000  0.1000000E+03  0.7546771E-02  0.1280296E+00
         21   -1    0    0  501  502  0.00000000000E+00  0.00000000000E+00  0.89056686194E+02  0.89056686194E+02  0.00000000000E+00 0. -1.
         21   -1    0    0  502  503 -0.00000000000E+00 -0.00000000000E+00 -0.40919778427E+03  0.40919778427E+03  0.00000000000E+00 0.  1.
          6    1    1    2  501    0 -0.51865320626E+02  0.17088795323E+02 -0.23761583837E+03  0.29895204474E+03  0.17300000000E+03 0. -1.
         -6    1    1    2    0  503  0.51865320626E+02 -0.17088795323E+02 -0.82525259701E+02  0.19930242572E+03  0.17300000000E+03 0.  1.
</event>
<event>
 4    1  0.5758867E+000  0.1000000E+03  0.7546771E-02  0.1280296E+00
         21   -1    0    0  503  502  0.00000000000E+00  0.00000000000E+00  0.19364691235E+04  0.19364691235E+04  0.00000000000E+00 0.  1.
         21   -1    0    0  501  503 -0.00000000000E+00 -0.00000000000E+00 -0.26962070624E+02  0.26962070624E+02  0.00000000000E+00 0.  1.
          6    1    1    2  501    0  0.10571648389E+03 -0.79757108865E+02  0.65879967919E+03  0.69388989665E+03  0.17300000000E+03 0.  1.
         -6    1    1    2    0  502 -0.10571648389E+03  0.79757108865E+02  0.12507073737E+04  0.12695412974E+04  0.17300000000E+03 0.  1.
</event>
<event>
 4    1  0.5758867E+000  0.1000000E+03  0.7546771E-02  0.1280296E+00
         21   -1    0    0  501  502  0.00000000000E+00  0.00000000000E+00  0.21342562211E+03  0.21342562211E+03  0.00000000000E+00 0. -1.
         21   -1    0    0  502  503 -0.00000000000E+00 -0.00000000000E+00 -0.28354629494E+03  0.28354629494E+03  0.00000000000E+00 0. -1.
          6    1    1    2  501    0 -0.15117685020E+03 -0.72334652378E+02  0.15447975884E+02  0.24135944550E+03  0.17300000000E+03 0. -1.
         -6    1    1    2    0  503  0.15117685020E+03  0.72334652378E+02 -0.85568648708E+02  0.25561247155E+03  0.17300000000E+03 0. -1.
</event>
<event>
 4    1  0.5758867E+000  0.1000000E+03  0.7546771E-02  0.1280296E+00
         21   -1    0    0  501  502  0.00000000000E+00  0.00000000000E+00  0.16585820907E+03  0.16585820907E+03  0.00000000000E+00 0. -1.
         21   -1    0    0  502  503 -0.00000000000E+00 -0.00000000000E+00 -0.36292920345E+03  0.36292920345E+03  0.00000000000E+00 0. -1.
          6    1    1    2  501    0 -0.17378746862E+03 -0.79334316255E+01 -0.99477499205E+02  0.26474477603E+03  0.17300000000E+03 0. -1.
         -6    1    1    2    0  503  0.17378746862E+03  0.79334316255E+01 -0.97593495167E+02  0.26404263649E+03  0.17300000000E+03 0. -1.
</event>
<event>
 4    1  0.5758867E+000  0.1000000E+03  0.7546771E-02  0.1280296E+00
         21   -1    0    0  501  502  0.00000000000E+00  0.00000000000E+00  0.20860635763E+03  0.20860635763E+03  0.00000000000E+00 0. -1.
         21   -1    0    0  502  503 -0.00000000000E+00 -0.00000000000E+00 -0.20036529530E+03  0.20036529530E+03  0.00000000000E+00 0. -1.
          6    1    1    2  501    0 -0.87389413285E+02  0.35343730361E+02  0.58742844452E+02  0.20558650395E+03  0.17300000000E+03 0. -1.
         -6    1    1    2    0  503  0.87389413285E+02 -0.35343730361E+02 -0.50501782126E+02  0.20338514899E+03  0.17300000000E+03 0. -1.
</event>
<event>
 4    1  0.5758867E+000  0.1000000E+03  0.7546771E-02  0.1280296E+00
         21   -1    0    0  501  502  0.00000000000E+00  0.00000000000E+00  0.10993602948E+04  0.10993602948E+04  0.00000000000E+00 0.  1.
         21   -1    0    0  502  503 -0.00000000000E+00 -0.00000000000E+00 -0.54253978248E+02  0.54253978248E+02  0.00000000000E+00 0. -1.
          6    1    1    2  501    0  0.15208766984E+03  0.80844569433E+02  0.53911376906E+03  0.59181007064E+03  0.17300000000E+03 0.  1.
         -6    1    1    2    0  503 -0.15208766984E+03 -0.80844569433E+02  0.50599254748E+03  0.56180420240E+03  0.17300000000E+03 0. -1.
</event>
<event>
 4    1  0.5758867E+000  0.1000000E+03  0.7546771E-02  0.1280296E+00
         21   -1    0    0  501  502  0.00000000000E+00  0.00000000000E+00  0.99588778032E+03  0.99588778032E+03  0.00000000000E+00 0.  1.
         21   -1    0    0  502  503 -0.00000000000E+00 -0.00000000000E+00 -0.67453880767E+02  0.67453880767E+02  0.00000000000E+00 0. -1.
          6    1    1    2  501    0 -0.11145500146E+03  0.15735363619E+03  0.48076941694E+03  0.54612326121E+03  0.17300000000E+03 0. -1.
         -6    1    1    2    0  503  0.11145500146E+03 -0.15735363619E+03  0.44766448261E+03  0.51721839987E+03  0.17300000000E+03 0. -1.
</event>
<event>
 4    1  0.5758867E+000  0.1000000E+03  0.7546771E-02  0.1280296E+00
         21   -1    0    0  503  502  0.00000000000E+00  0.00000000000E+00  0.33858422118E+02  0.33858422118E+02  0.00000000000E+00 0. -1.
         21   -1    0    0  501  503 -0.00000000000E+00 -0.00000000000E+00 -0.13956985575E+04  0.13956985575E+04  0.00000000000E+00 0.  1.
          6    1    1    2  501    0 -0.62769532111E+02 -0.79313580317E+02 -0.40393000845E+03  0.45090920362E+03  0.17300000000E+03 0. -1.
         -6    1    1    2    0  502  0.62769532111E+02  0.79313580317E+02 -0.95791012697E+03  0.97864777603E+03  0.17300000000E+03 0.  1.
</event>
<event>
 4    1  0.5758867E+000  0.1000000E+03  0.7546771E-02  0.1280296E+00
         21   -1    0    0  503  502  0.00000000000E+00  0.00000000000E+00  0.20164797979E+03  0.20164797979E+03  0.00000000000E+00 0. -1.
         21   -1    0    0  501  503 -0.00000000000E+00 -0.00000000000E+00 -0.29386833385E+03  0.29386833385E+03  0.00000000000E+00 0.  1.
          6    1    1    2  501    0  0.11959554196E+03 -0.11773279959E+03 -0.80846964111E+02  0.25422300715E+03  0.17300000000E+03 0. -1.
         -6    1    1    2    0  502 -0.11959554196E+03  0.11773279959E+03 -0.11373389952E+02  0.24129330649E+03  0.17300000000E+03 0.  1.
</event>
<event>
 4    1  0.5758867E+000  0.1000000E+03  0.7546771E-02  0.1280296E+00
         21   -1    0    0  503  502  0.00000000000E+00  0.00000000000E+00  0.18660763609E+03  0.18660763609E+03  0.00000000000E+00 0. -1.
         21   -1    0    0  501  503 -0.00000000000E+00 -0.00000000000E+00 -0.75970665096E+03  0.75970665096E+03  0.00000000000E+00 0. -1.
          6    1    1    2  501    0 -0.25826383136E+03 -0.75332736082E+02 -0.53618818290E+03  0.62434124900E+03  0.17300000000E+03 0. -1.
         -6    1    1    2    0  502  0.25826383136E+03  0.75332736082E+02 -0.36910831966E+02  0.32197303805E+03  0.17300000000E+03 0. -1.
</event>
<event>
 4    1  0.5758867E+000  0.1000000E+03  0.7546771E-02  0.1280296E+00
         21   -1    0    0  501  502  0.00000000000E+00  0.00000000000E+00  0.82677498938E+02  0.82677498938E+02  0.00000000000E+00 0.  1.
         21   -1    0    0  502  503 -0.00000000000E+00 -0.00000000000E+00 -0.53304073035E+03  0.53304073035E+03  0.00000000000E+00 0.  1.
          6    1    1    2  501    0 -0.12167675333E+02  0.71453973401E+02 -0.86928759684E+02  0.20673493149E+03  0.17300000000E+03 0.  1.
         -6    1    1    2    0  503  0.12167675333E+02 -0.71453973401E+02 -0.36343447173E+03  0.40898329780E+03  0.17300000000E+03 0.  1.
</event>
<event>
 4    1  0.5758867E+000  0.1000000E+03  0.7546771E-02  0.1280296E+00
         21   -1    0    0  501  502  0.00000000000E+00  0.00000000000E+00  0.41640138245E+03  0.41640138245E+03  0.00000000000E+00 0.  1.
         21   -1    0    0  502  503 -0.00000000000E+00 -0.00000000000E+00 -0.14210410749E+03  0.14210410749E+03  0.00000000000E+00 0.  1.
          6    1    1    2  501    0  0.86508066527E+02 -0.14372251648E+03  0.17528436131E+03  0.29798223880E+03  0.17300000000E+03 0.  1.
         -6    1    1    2    0  503 -0.86508066527E+02  0.14372251648E+03  0.99012913650E+02  0.26052325114E+03  0.17300000000E+03 0.  1.
</event>
<event>
 4    1  0.5758867E+000  0.1000000E+03  0.7546771E-02  0.1280296E+00
         21   -1    0    0  501  502  0.00000000000E+00  0.00000000000E+00  0.37940705957E+03  0.37940705957E+03  0.00000000000E+00 0.  1.
         21   -1    0    0  502  503 -0.00000000000E+00 -0.00000000000E+00 -0.18093938029E+03  0.18093938029E+03  0.00000000000E+00 0.  1.
          6    1    1    2  501    0 -0.11725356943E+03  0.11845083893E+02 -0.69271232961E+02  0.22049083716E+03  0.17300000000E+03 0.  1.
         -6    1    1    2    0  503  0.11725356943E+03 -0.11845083893E+02  0.26773891224E+03  0.33985560270E+03  0.17300000000E+03 0.  1.
</event>
<event>
 4    1  0.5758867E+000  0.1000000E+03  0.7546771E-02  0.1280296E+00
         21   -1    0    0  501  502  0.00000000000E+00  0.00000000000E+00  0.10244330640E+03  0.10244330640E+03  0.00000000000E+00 0.  1.
         21   -1    0    0  502  503 -0.00000000000E+00 -0.00000000000E+00 -0.52677812513E+03  0.52677812513E+03  0.00000000000E+00 0.  1.
          6    1    1    2  501    0 -0.61518220563E+02  0.10975252108E+03 -0.89486232872E+02  0.23187689238E+03  0.17300000000E+03 0.  1.
         -6    1    1    2    0  503  0.61518220563E+02 -0.10975252108E+03 -0.33484858586E+03  0.39734453915E+03  0.17300000000E+03 0.  1.
</event>
<event>
 4    1  0.5758867E+000  0.1000000E+03  0.7546771E-02  0.1280296E+00
         21   -1    0    0  501  502  0.00000000000E+00  0.00000000000E+00  0.56620801834E+03  0.56620801834E+03  0.00000000000E+00 0.  1.
         21   -1    0    0  502  503 -0.00000000000E+00 -0.00000000000E+00 -0.13319873387E+03  0.13319873387E+03  0.00000000000E+00 0.  1.
          6    1    1    2  501    0 -0.28937548151E+02 -0.50477478961E+02  0.47779452216E+03  0.51147039307E+03  0.17300000000E+03 0.  1.
         -6    1    1    2    0  503  0.28937548151E+02  0.50477478961E+02 -0.44785237693E+02  0.18793635915E+03  0.17300000000E+03 0.  1.
</event>
<event>
 4    1  0.5758867E+000  0.1000000E+03  0.7546771E-02  0.1280296E+00
         21   -1    0    0  503  502  0.00000000000E+00  0.00000000000E+00  0.17005738257E+03  0.17005738257E+03  0.00000000000E+00 0.  1.
         21   -1    0    0  501  503 -0.00000000000E+00 -0.00000000000E+00 -0.49900825445E+03  0.49900825445E+03  0.00000000000E+00 0.  1.
          6    1    1    2  501    0 -0.18822082766E+03  0.12700078679E+03 -0.23118812181E+03  0.36733258428E+03  0.17300000000E+03 0.  1.
         -6    1    1    2    0  502  0.18822082766E+03 -0.12700078679E+03 -0.97762750071E+02  0.30173305273E+03  0.17300000000E+03 0.  1.
</event>
<event>
 4    1  0.5758867E+000  0.1000000E+03  0.7546771E-02  0.1280296E+00
         21   -1    0    0  503  502  0.00000000000E+00  0.00000000000E+00  0.26345890649E+03  0.26345890649E+03  0.00000000000E+00 0. -1.
         21   -1    0    0  501  503 -0.00000000000E+00 -0.00000000000E+00 -0.62197817257E+03  0.62197817257E+03  0.00000000000E+00 0.  1.
          6    1    1    2  501    0  0.10163473368E+03  0.93283878134E+02 -0.54998603298E+03  0.59282808426E+03  0.17300000000E+03 0.  1.
         -6    1    1    2    0  502 -0.10163473368E+03 -0.93283878134E+02  0.19146676690E+03  0.29260899480E+03  0.17300000000E+03 0.  1.
</event>
<event>
 4    1  0.5758867E+000  0.1000000E+03  0.7546771E-02  0.1280296E+00
         21   -1    0    0  503  502  0.00000000000E+00  0.00000000000E+00  0.31998265073E+03  0.31998265073E+03  0.00000000000E+00 0. -1.
         21   -1    0    0  501  503 -0.00000000000E+00 -0.00000000000E+00 -0.11470803524E+03  0.11470803524E+03  0.00000000000E+00 0.  1.
          6    1    1    2  501    0  0.59007597586E+02  0.55923465395E+02  0.88009749302E+02  0.21043774977E+03  0.17300000000E+03 0.  1.
         -6    1    1    2    0  502 -0.59007597586E+02 -0.55923465395E+02  0.11726486619E+03  0.22425293621E+03  0.17300000000E+03 0.  1.
</event>
<event>
 4    1  0.5758867E+000  0.1000000E+03  0.7546771E-02  0.1280296E+00
         21   -1    0    0  503  502  0.00000000000E+00  0.00000000000E+00  0.46514800139E+03  0.46514800139E+03  0.00000000000E+00 0. -1.
         21   -1    0    0  501  503 -0.00000000000E+00 -0.00000000000E+00 -0.15493669395E+03  0.15493669395E+03  0.00000000000E+00 0.  1.
          6    1    1    2  501    0 -0.90201663605E+01  0.31444127618E+02 -0.78943706221E+02  0.19295389427E+03  0.17300000000E+03 0.  1.
         -6    1    1    2    0  502  0.90201663605E+01 -0.31444127618E+02  0.38915501366E+03  0.42713080107E+03  0.17300000000E+03 0.  1.
</event>
<event>
 4    1  0.5758867E+000  0.1000000E+03  0.7546771E-02  0.1280296E+00
         21   -1    0    0  501  502  0.00000000000E+00  0.00000000000E+00  0.69998726140E+03  0.69998726140E+03  0.00000000000E+00 0.  1.
         21   -1    0    0  502  503 -0.00000000000E+00 -0.00000000000E+00 -0.13667701369E+03  0.13667701369E+03  0.00000000000E+00 0. -1.
          6    1    1    2  501    0 -0.13180718160E+03  0.30943344582E+01  0.57907749698E+03  0.61858100160E+03  0.17300000000E+03 0. -1.
         -6    1    1    2    0  503  0.13180718160E+03 -0.30943344582E+01 -0.15767249271E+02  0.21808327349E+03  0.17300000000E+03 0.  1.
</event>
<event>
 4    1  0.5758867E+000  0.1000000E+03  0.7546771E-02  0.1280296E+00
         21   -1    0    0  501  502  0.00000000000E+00  0.00000000000E+00  0.66528686157E+02  0.66528686157E+02  0.00000000000E+00 0.  1.
         21   -1    0    0  502  503 -0.00000000000E+00 -0.00000000000E+00 -0.10264909066E+04  0.10264909066E+04  0.00000000000E+00 0. -1.
          6    1    1    2  501    0  0.18702651957E+02 -0.10431466078E+03 -0.82444750056E+03  0.84904300175E+03  0.17300000000E+03 0. -1.
         -6    1    1    2    0  503 -0.18702651957E+02  0.10431466078E+03 -0.13551471984E+03  0.24397659096E+03  0.17300000000E+03 0.  1.
</event>
<event>
 4    1  0.5758867E+000  0.1000000E+03  0.7546771E-02  0.1280296E+00
         21   -1    0    0  503  502  0.00000000000E+00  0.00000000000E+00  0.27390866602E+04  0.27390866602E+04  0.00000000000E+00 0.  1.
         21   -1    0    0  501  503 -0.00000000000E+00 -0.00000000000E+00 -0.40620162754E+02  0.40620162754E+02  0.00000000000E+00 0.  1.
          6    1    1    2  501    0 -0.17190077310E+03 -0.54457390989E+02  0.42860611099E+03  0.49613272579E+03  0.17300000000E+03 0.  1.
         -6    1    1    2    0  502  0.17190077310E+03  0.54457390989E+02  0.22698603864E+04  0.22835740972E+04  0.17300000000E+03 0.  1.
</event>
<event>
 4    1  0.5758867E+000  0.1000000E+03  0.7546771E-02  0.1280296E+00
         21   -1    0    0  503  502  0.00000000000E+00  0.00000000000E+00  0.15744394106E+04  0.15744394106E+04  0.00000000000E+00 0.  1.
         21   -1    0    0  501  503 -0.00000000000E+00 -0.00000000000E+00 -0.34994827242E+02  0.34994827242E+02  0.00000000000E+00 0. -1.
          6    1    1    2  501    0 -0.97248136985E+02 -0.16715462971E+02  0.34384526379E+03  0.39736025504E+03  0.17300000000E+03 0. -1.
         -6    1    1    2    0  502  0.97248136985E+02  0.16715462971E+02  0.11955993195E+04  0.12120739828E+04  0.17300000000E+03 0.  1.
</event>
<event>
 4    1  0.5758867E+000  0.1000000E+03  0.7546771E-02  0.1280296E+00
         21   -1    0    0  503  502  0.00000000000E+00  0.00000000000E+00  0.80464807041E+03  0.80464807041E+03  0.00000000000E+00 0.  1.
         21   -1    0    0  501  503 -0.00000000000E+00 -0.00000000000E+00 -0.74540785388E+02  0.74540785388E+02  0.00000000000E+00 0. -1.
          6    1    1    2  501    0 -0.18177776151E+02 -0.67913366343E+02  0.80638021274E+02  0.20340636015E+03  0.17300000000E+03 0. -1.
         -6    1    1    2    0  502  0.18177776151E+02  0.67913366343E+02  0.64946926375E+03  0.67578249565E+03  0.17300000000E+03 0.  1.
</event>
<event>
 4    1  0.5758867E+000  0.1000000E+03  0.7546771E-02  0.1280296E+00
         21   -1    0    0  503  502  0.00000000000E+00  0.00000000000E+00  0.91236287519E+02  0.91236287519E+02  0.00000000000E+00 0.  1.
         21   -1    0    0  501  503 -0.00000000000E+00 -0.00000000000E+00 -0.44172644960E+03  0.44172644960E+03  0.00000000000E+00 0. -1.
          6    1    1    2  501    0 -0.33306487708E+02 -0.65205192659E+02 -0.26921475135E+03  0.32827826857E+03  0.17300000000E+03 0. -1.
         -6    1    1    2    0  502  0.33306487708E+02  0.65205192659E+02 -0.81275410726E+02  0.20468446854E+03  0.17300000000E+03 0.  1.
</event>
<event>
 4    1  0.5758867E+000  0.1000000E+03  0.7546771E-02  0.1280296E+00
         21   -1    0    0  503  502  0.00000000000E+00  0.00000000000E+00  0.13468288452E+04  0.13468288452E+04  0.00000000000E+00 0.  1.
         21   -1    0    0  501  503 -0.00000000000E+00 -0.00000000000E+00 -0.30490283682E+02  0.30490283682E+02  0.00000000000E+00 0. -1.
          6    1    1    2  501    0  0.96297710122E+02 -0.37303515125E+02  0.58438583899E+03  0.61814287185E+03  0.17300000000E+03 0. -1.
         -6    1    1    2    0  502 -0.96297710122E+02  0.37303515125E+02  0.73195272257E+03  0.75917625707E+03  0.17300000000E+03 0.  1.
</event>
<event>
 4    1  0.5758867E+000  0.1000000E+03  0.7546771E-02  0.1280296E+00
         21   -1    0    0  503  502  0.00000000000E+00  0.00000000000E+00  0.59451991275E+03  0.59451991275E+03  0.00000000000E+00 0.  1.
         21   -1    0    0  501  503 -0.00000000000E+00 -0.00000000000E+00 -0.13665415418E+03  0.13665415418E+03  0.00000000000E+00 0. -1.
          6    1    1    2  501    0  0.14684262230E+03  0.41952565457E+02  0.14341681571E+02  0.23120868777E+03  0.17300000000E+03 0.  1.
         -6    1    1    2    0  502 -0.14684262230E+03 -0.41952565457E+02  0.44352407700E+03  0.49996537915E+03  0.17300000000E+03 0.  1.
</event>
<event>
 4    1  0.5758867E+000  0.1000000E+03  0.7546771E-02  0.1280296E+00
         21   -1    0    0  503  502  0.00000000000E+00  0.00000000000E+00  0.32273853147E+03  0.32273853147E+03  0.00000000000E+00 0.  1.
         21   -1    0    0  501  503 -0.00000000000E+00 -0.00000000000E+00 -0.72928629321E+03  0.72928629321E+03  0.00000000000E+00 0.  1.
          6    1    1    2  501    0  0.71823227326E+02  0.29230568005E+03 -0.57069617417E+03  0.66800023187E+03  0.17300000000E+03 0.  1.
         -6    1    1    2    0  502 -0.71823227326E+02 -0.29230568005E+03  0.16414841243E+03  0.38402459280E+03  0.17300000000E+03 0.  1.
</event>
<event>
 4    1  0.5758867E+000  0.1000000E+03  0.7546771E-02  0.1280296E+00
         21   -1    0    0  503  502  0.00000000000E+00  0.00000000000E+00  0.19677296518E+04  0.19677296518E+04  0.00000000000E+00 0.  1.
         21   -1    0    0  501  503 -0.00000000000E+00 -0.00000000000E+00 -0.51982884737E+02  0.51982884737E+02  0.00000000000E+00 0.  1.
          6    1    1    2  501    0 -0.90968144909E+02 -0.61536404480E+02  0.18252710366E+03  0.27442134763E+03  0.17300000000E+03 0.  1.
         -6    1    1    2    0  502  0.90968144909E+02  0.61536404480E+02  0.17332196634E+04  0.17452911889E+04  0.17300000000E+03 0.  1.
</event>
<event>
 4    1  0.5758867E+000  0.1000000E+03  0.7546771E-02  0.1280296E+00
         21   -1    0    0  501  502  0.00000000000E+00  0.00000000000E+00  0.37434219403E+02  0.37434219403E+02  0.00000000000E+00 0. -1.
         21   -1    0    0  502  503 -0.00000000000E+00 -0.00000000000E+00 -0.13527113834E+04  0.13527113834E+04  0.00000000000E+00 0. -1.
          6    1    1    2  501    0  0.10497647096E+03  0.41018028641E+02 -0.38125937174E+03  0.43357842044E+03  0.17300000000E+03 0. -1.
         -6    1    1    2    0  503 -0.10497647096E+03 -0.41018028641E+02 -0.93401779226E+03  0.95656718237E+03  0.17300000000E+03 0. -1.
</event>
<event>
 4    1  0.5758867E+000  0.1000000E+03  0.7546771E-02  0.1280296E+00
         21   -1    0    0  503  502  0.00000000000E+00  0.00000000000E+00  0.91390866749E+03  0.91390866749E+03  0.00000000000E+00 0.  1.
         21   -1    0    0  501  503 -0.00000000000E+00 -0.00000000000E+00 -0.22162393940E+03  0.22162393940E+03  0.00000000000E+00 0. -1.
          6    1    1    2  501    0  0.48237946796E+02  0.13007854069E+03 -0.14791440192E+03  0.26656143111E+03  0.17300000000E+03 0. -1.
         -6    1    1    2    0  502 -0.48237946796E+02 -0.13007854069E+03  0.84019913002E+03  0.86897117578E+03  0.17300000000E+03 0.  1.
</event>
<event>
 4    1  0.5758867E+000  0.1000000E+03  0.7546771E-02  0.1280296E+00
         21   -1    0    0  503  502  0.00000000000E+00  0.00000000000E+00  0.21508246992E+03  0.21508246992E+03  0.00000000000E+00 0. -1.
         21   -1    0    0  501  503 -0.00000000000E+00 -0.00000000000E+00 -0.24429906442E+03  0.24429906442E+03  0.00000000000E+00 0. -1.
          6    1    1    2  501    0 -0.46248487376E+02 -0.78077888583E+02 -0.13476973395E+03  0.23733301595E+03  0.17300000000E+03 0. -1.
         -6    1    1    2    0  502  0.46248487376E+02  0.78077888583E+02  0.10555313945E+03  0.22204851839E+03  0.17300000000E+03 0. -1.
</event>
<event>
 4    1  0.5758867E+000  0.1000000E+03  0.7546771E-02  0.1280296E+00
         21   -1    0    0  503  502  0.00000000000E+00  0.00000000000E+00  0.35131016428E+03  0.35131016428E+03  0.00000000000E+00 0. -1.
         21   -1    0    0  501  503 -0.00000000000E+00 -0.00000000000E+00 -0.86873986042E+03  0.86873986042E+03  0.00000000000E+00 0. -1.
          6    1    1    2  501    0 -0.11138604885E+03 -0.23832898791E+03 -0.75996541215E+03  0.82260803912E+03  0.17300000000E+03 0. -1.
         -6    1    1    2    0  502  0.11138604885E+03  0.23832898791E+03  0.24253571602E+03  0.39744198558E+03  0.17300000000E+03 0. -1.
</event>
<event>
 4    1  0.5758867E+000  0.1000000E+03  0.7546771E-02  0.1280296E+00
         21   -1    0    0  503  502  0.00000000000E+00  0.00000000000E+00  0.18284250803E+03  0.18284250803E+03  0.00000000000E+00 0. -1.
         21   -1    0    0  501  503 -0.00000000000E+00 -0.00000000000E+00 -0.32001456112E+03  0.32001456112E+03  0.00000000000E+00 0. -1.
          6    1    1    2  501    0 -0.10929152771E+03 -0.76781845375E+02 -0.17632118071E+03  0.28081710877E+03  0.17300000000E+03 0. -1.
         -6    1    1    2    0  502  0.10929152771E+03  0.76781845375E+02  0.39149127622E+02  0.22203996037E+03  0.17300000000E+03 0. -1.
</event>
<event>
 4    1  0.5758867E+000  0.1000000E+03  0.7546771E-02  0.1280296E+00
         21   -1    0    0  501  502  0.00000000000E+00  0.00000000000E+00  0.38433573519E+02  0.38433573519E+02  0.00000000000E+00 0. -1.
         21   -1    0    0  502  503 -0.00000000000E+00 -0.00000000000E+00 -0.12307090748E+04  0.12307090748E+04  0.00000000000E+00 0. -1.
          6    1    1    2  501    0 -0.40114645481E+02  0.12490949830E+03 -0.55923315779E+03  0.59990190224E+03  0.17300000000E+03 0. -1.
         -6    1    1    2    0  503  0.40114645481E+02 -0.12490949830E+03 -0.63304234346E+03  0.66924074604E+03  0.17300000000E+03 0. -1.
</event>
<event>
 4    1  0.5758867E+000  0.1000000E+03  0.7546771E-02  0.1280296E+00
         21   -1    0    0  503  502  0.00000000000E+00  0.00000000000E+00  0.50136531216E+03  0.50136531216E+03  0.00000000000E+00 0.  1.
         21   -1    0    0  501  503 -0.00000000000E+00 -0.00000000000E+00 -0.13864130189E+03  0.13864130189E+03  0.00000000000E+00 0.  1.
          6    1    1    2  501    0 -0.93455130636E+02 -0.12615871283E+03  0.32967400550E+03  0.40405919389E+03  0.17300000000E+03 0.  1.
         -6    1    1    2    0  502  0.93455130636E+02  0.12615871283E+03  0.33050004779E+02  0.23594742016E+03  0.17300000000E+03 0.  1.
</event>
<event>
 4    1  0.5758867E+000  0.1000000E+03  0.7546771E-02  0.1280296E+00
         21   -1    0    0  503  502  0.00000000000E+00  0.00000000000E+00  0.21304568510E+03  0.21304568510E+03  0.00000000000E+00 0.  1.
         21   -1    0    0  501  503 -0.00000000000E+00 -0.00000000000E+00 -0.80752441574E+03  0.80752441574E+03  0.00000000000E+00 0.  1.
          6    1    1    2  501    0 -0.13492730166E+03 -0.10815793335E+03 -0.70934520390E+03  0.75033534741E+03  0.17300000000E+03 0.  1.
         -6    1    1    2    0  502  0.13492730166E+03  0.10815793335E+03  0.11486647327E+03  0.27023475343E+03  0.17300000000E+03 0.  1.
</event>
<event>
 4    1  0.5758867E+000  0.1000000E+03  0.7546771E-02  0.1280296E+00
         21   -1    0    0  503  502  0.00000000000E+00  0.00000000000E+00  0.15395082647E+03  0.15395082647E+03  0.00000000000E+00 0. -1.
         21   -1    0    0  501  503 -0.00000000000E+00 -0.00000000000E+00 -0.27605626844E+03  0.27605626844E+03  0.00000000000E+00 0. -1.
          6    1    1    2  501    0 -0.84272380754E+02  0.71124958393E+02 -0.82157512674E+02  0.22099649489E+03  0.17300000000E+03 0. -1.
         -6    1    1    2    0  502  0.84272380754E+02 -0.71124958393E+02 -0.39947929292E+02  0.20901060002E+03  0.17300000000E+03 0. -1.
</event>
<event>
 4    1  0.5758867E+000  0.1000000E+03  0.7546771E-02  0.1280296E+00
         21   -1    0    0  503  502  0.00000000000E+00  0.00000000000E+00  0.87573365252E+02  0.87573365252E+02  0.00000000000E+00 0. -1.
         21   -1    0    0  501  503 -0.00000000000E+00 -0.00000000000E+00 -0.11018052418E+04  0.11018052418E+04  0.00000000000E+00 0. -1.
          6    1    1    2  501    0 -0.22293377803E+02  0.17287775900E+03 -0.87125094696E+03  0.90520214694E+03  0.17300000000E+03 0. -1.
         -6    1    1    2    0  502  0.22293377803E+02 -0.17287775900E+03 -0.14298092958E+03  0.28417646010E+03  0.17300000000E+03 0. -1.
</event>
<event>
 4    1  0.5758867E+000  0.1000000E+03  0.7546771E-02  0.1280296E+00
         21   -1    0    0  503  502  0.00000000000E+00  0.00000000000E+00  0.16176377760E+03  0.16176377760E+03  0.00000000000E+00 0. -1.
         21   -1    0    0  501  503 -0.00000000000E+00 -0.00000000000E+00 -0.36505088455E+03  0.36505088455E+03  0.00000000000E+00 0. -1.
          6    1    1    2  501    0  0.47996394318E+02 -0.15987508870E+03 -0.14010957131E+03  0.27825058819E+03  0.17300000000E+03 0. -1.
         -6    1    1    2    0  502 -0.47996394318E+02  0.15987508870E+03 -0.63177535645E+02  0.24856407396E+03  0.17300000000E+03 0. -1.
</event>
<event>
 4    1  0.5758867E+000  0.1000000E+03  0.7546771E-02  0.1280296E+00
         21   -1    0    0  501  502  0.00000000000E+00  0.00000000000E+00  0.15638051763E+03  0.15638051763E+03  0.00000000000E+00 0.  1.
         21   -1    0    0  502  503 -0.00000000000E+00 -0.00000000000E+00 -0.29845448941E+03  0.29845448941E+03  0.00000000000E+00 0. -1.
          6    1    1    2  501    0 -0.75141730361E+02 -0.97049195717E+02 -0.27907678305E+02  0.21394547095E+03  0.17300000000E+03 0. -1.
         -6    1    1    2    0  503  0.75141730361E+02  0.97049195717E+02 -0.11416629348E+03  0.24088953609E+03  0.17300000000E+03 0.  1.
</event>
<event>
 4    1  0.5758867E+000  0.1000000E+03  0.7546771E-02  0.1280296E+00
         21   -1    0    0  501  502  0.00000000000E+00  0.00000000000E+00  0.55958130693E+03  0.55958130693E+03  0.00000000000E+00 0. -1.
         21   -1    0    0  502  503 -0.00000000000E+00 -0.00000000000E+00 -0.77284670641E+03  0.77284670641E+03  0.00000000000E+00 0. -1.
          6    1    1    2  501    0  0.32264795481E+03  0.30616160799E+03  0.35171983604E+03  0.59285114153E+03  0.17300000000E+03 0. -1.
         -6    1    1    2    0  503 -0.32264795481E+03 -0.30616160799E+03 -0.56498523552E+03  0.73957687181E+03  0.17300000000E+03 0. -1.
</event>
<event>
 4    1  0.5758867E+000  0.1000000E+03  0.7546771E-02  0.1280296E+00
         21   -1    0    0  503  502  0.00000000000E+00  0.00000000000E+00  0.19957091100E+03  0.19957091100E+03  0.00000000000E+00 0. -1.
         21   -1    0    0  501  503 -0.00000000000E+00 -0.00000000000E+00 -0.34959984336E+03  0.34959984336E+03  0.00000000000E+00 0. -1.
          6    1    1    2  501    0 -0.85387959989E+02  0.68951124713E+02 -0.24832748271E+03  0.32193306755E+03  0.17300000000E+03 0. -1.
         -6    1    1    2    0  502  0.85387959989E+02 -0.68951124713E+02  0.98298550345E+02  0.22723768682E+03  0.17300000000E+03 0. -1.
</event>
<event>
 4    1  0.5758867E+000  0.1000000E+03  0.7546771E-02  0.1280296E+00
         21   -1    0    0  503  502  0.00000000000E+00  0.00000000000E+00  0.95693085859E+02  0.95693085859E+02  0.00000000000E+00 0. -1.
         21   -1    0    0  501  503 -0.00000000000E+00 -0.00000000000E+00 -0.17394179631E+04  0.17394179631E+04  0.00000000000E+00 0. -1.
          6    1    1    2  501    0 -0.98404807632E+02 -0.33675654121E+03 -0.10825218112E+04  0.11510303845E+04  0.17300000000E+03 0. -1.
         -6    1    1    2    0  502  0.98404807632E+02  0.33675654121E+03 -0.56120306601E+03  0.68408066447E+03  0.17300000000E+03 0. -1.
</event>
<event>
 4    1  0.5758867E+000  0.1000000E+03  0.7546771E-02  0.1280296E+00
         21   -1    0    0  503  502  0.00000000000E+00  0.00000000000E+00  0.72031600251E+02  0.72031600251E+02  0.00000000000E+00 0. -1.
         21   -1    0    0  501  503 -0.00000000000E+00 -0.00000000000E+00 -0.58704980719E+03  0.58704980719E+03  0.00000000000E+00 0.  1.
          6    1    1    2  501    0 -0.93191488827E+02 -0.45137834753E+02 -0.32230937347E+03  0.38017681406E+03  0.17300000000E+03 0. -1.
         -6    1    1    2    0  502  0.93191488827E+02  0.45137834753E+02 -0.19270883346E+03  0.27890459339E+03  0.17300000000E+03 0.  1.
</event>
<event>
 4    1  0.5758867E+000  0.1000000E+03  0.7546771E-02  0.1280296E+00
         21   -1    0    0  503  502  0.00000000000E+00  0.00000000000E+00  0.36374754068E+02  0.36374754068E+02  0.00000000000E+00 0. -1.
         21   -1    0    0  501  503 -0.00000000000E+00 -0.00000000000E+00 -0.19067881024E+04  0.19067881024E+04  0.00000000000E+00 0.  1.
          6    1    1    2  501    0 -0.80918750294E+02  0.11237111330E+03 -0.14602466022E+04  0.14769645393E+04  0.17300000000E+03 0. -1.
         -6    1    1    2    0  502  0.80918750294E+02 -0.11237111330E+03 -0.41016674613E+03  0.46619831712E+03  0.17300000000E+03 0.  1.
</event>
<event>
 4    1  0.5758867E+000  0.1000000E+03  0.7546771E-02  0.1280296E+00
         21   -1    0    0  501  502  0.00000000000E+00  0.00000000000E+00  0.57149960407E+02  0.57149960407E+02  0.00000000000E+00 0.  1.
         21   -1    0    0  502  503 -0.00000000000E+00 -0.00000000000E+00 -0.96254795195E+03  0.96254795195E+03  0.00000000000E+00 0.  1.
          6    1    1    2  501    0 -0.10815214368E+03  0.10412090976E+03 -0.34308772980E+03  0.41252423004E+03  0.17300000000E+03 0.  1.
         -6    1    1    2    0  503  0.10815214368E+03 -0.10412090976E+03 -0.56231026174E+03  0.60717368231E+03  0.17300000000E+03 0.  1.
</event>
<event>
 4    1  0.5758867E+000  0.1000000E+03  0.7546771E-02  0.1280296E+00
         21   -1    0    0  501  502  0.00000000000E+00  0.00000000000E+00  0.25479848432E+02  0.25479848432E+02  0.00000000000E+00 0.  1.
         21   -1    0    0  502  503 -0.00000000000E+00 -0.00000000000E+00 -0.17307775933E+04  0.17307775933E+04  0.00000000000E+00 0.  1.
          6    1    1    2  501    0  0.44644368715E+02 -0.42222096859E+02 -0.42631091450E+03  0.46416141691E+03  0.17300000000E+03 0.  1.
         -6    1    1    2    0  503 -0.44644368715E+02  0.42222096859E+02 -0.12789868304E+04  0.12920960248E+04  0.17300000000E+03 0.  1.
</event>
<event>
 4    1  0.5758867E+000  0.1000000E+03  0.7546771E-02  0.1280296E+00
         21   -1    0    0  503  502  0.00000000000E+00  0.00000000000E+00  0.81176782959E+02  0.81176782959E+02  0.00000000000E+00 0.  1.
         21   -1    0    0  501  503 -0.00000000000E+00 -0.00000000000E+00 -0.54174313587E+03  0.54174313587E+03  0.00000000000E+00 0. -1.
          6    1    1    2  501    0 -0.10614722752E+02  0.56726603839E+01 -0.40540716127E+03  0.44094083256E+03  0.17300000000E+03 0. -1.
         -6    1    1    2    0  502  0.10614722752E+02 -0.56726603839E+01 -0.55159191644E+02  0.18197908626E+03  0.17300000000E+03 0.  1.
</event>
<event>
 4    1  0.5758867E+000  0.1000000E+03  0.7546771E-02  0.1280296E+00
         21   -1    0    0  501  502  0.00000000000E+00  0.00000000000E+00  0.50223589830E+03  0.50223589830E+03  0.00000000000E+00 0.  1.
         21   -1    0    0  502  503 -0.00000000000E+00 -0.00000000000E+00 -0.10974052889E+03  0.10974052889E+03  0.00000000000E+00 0.  1.
          6    1    1    2  501    0 -0.88671131290E+02  0.11684351870E+03  0.27522425576E+03  0.35664039079E+03  0.17300000000E+03 0.  1.
         -6    1    1    2    0  503  0.88671131290E+02 -0.11684351870E+03  0.11727111365E+03  0.25533603640E+03  0.17300000000E+03 0.  1.
</event>
<event>
 4    1  0.5758867E+000  0.1000000E+03  0.7546771E-02  0.1280296E+00
         21   -1    0    0  501  502  0.00000000000E+00  0.00000000000E+00  0.10222582682E+03  0.10222582682E+03  0.00000000000E+00 0.  1.
         21   -1    0    0  502  503 -0.00000000000E+00 -0.00000000000E+00 -0.42169757821E+03  0.42169757821E+03  0.00000000000E+00 0.  1.
          6    1    1    2  501    0  0.11474195685E+03 -0.15734791031E+01 -0.16395666181E+03  0.26453540301E+03  0.17300000000E+03 0.  1.
         -6    1    1    2    0  503 -0.11474195685E+03  0.15734791031E+01 -0.15551508958E+03  0.25938800201E+03  0.17300000000E+03 0.  1.
</event>
<event>
 4    1  0.5758867E+000  0.1000000E+03  0.7546771E-02  0.1280296E+00
         21   -1    0    0  501  502  0.00000000000E+00  0.00000000000E+00  0.21029855322E+03  0.21029855322E+03  0.00000000000E+00 0.  1.
         21   -1    0    0  502  503 -0.00000000000E+00 -0.00000000000E+00 -0.16095053412E+03  0.16095053412E+03  0.00000000000E+00 0.  1.
          6    1    1    2  501    0 -0.60155220440E+02  0.58071845681E+01  0.82094959947E+01  0.18343601000E+03  0.17300000000E+03 0.  1.
         -6    1    1    2    0  503  0.60155220440E+02 -0.58071845681E+01  0.41138523103E+02  0.18781307735E+03  0.17300000000E+03 0.  1.
</event>
<event>
 4    1  0.5758867E+000  0.1000000E+03  0.7546771E-02  0.1280296E+00
         21   -1    0    0  501  502  0.00000000000E+00  0.00000000000E+00  0.31315654495E+03  0.31315654495E+03  0.00000000000E+00 0.  1.
         21   -1    0    0  502  503 -0.00000000000E+00 -0.00000000000E+00 -0.16011990513E+03  0.16011990513E+03  0.00000000000E+00 0.  1.
          6    1    1    2  501    0 -0.29694191573E+02 -0.13113528085E+03  0.12535206467E+03  0.25242889497E+03  0.17300000000E+03 0.  1.
         -6    1    1    2    0  503  0.29694191573E+02  0.13113528085E+03  0.27684575142E+02  0.22084755511E+03  0.17300000000E+03 0.  1.
</event>
<event>
 4    1  0.5758867E+000  0.1000000E+03  0.7546771E-02  0.1280296E+00
         21   -1    0    0  503  502  0.00000000000E+00  0.00000000000E+00  0.17687072057E+03  0.17687072057E+03  0.00000000000E+00 0.  1.
         21   -1    0    0  501  503 -0.00000000000E+00 -0.00000000000E+00 -0.57147426534E+03  0.57147426534E+03  0.00000000000E+00 0.  1.
          6    1    1    2  501    0 -0.50781531698E+02 -0.10741453740E+03 -0.47836409571E+03  0.52237711939E+03  0.17300000000E+03 0.  1.
         -6    1    1    2    0  502  0.50781531698E+02  0.10741453740E+03  0.83760550934E+02  0.22596786652E+03  0.17300000000E+03 0.  1.
</event>
<event>
 4    1  0.5758867E+000  0.1000000E+03  0.7546771E-02  0.1280296E+00
         21   -1    0    0  503  502  0.00000000000E+00  0.00000000000E+00  0.98535272923E+03  0.98535272923E+03  0.00000000000E+00 0.  1.
         21   -1    0    0  501  503 -0.00000000000E+00 -0.00000000000E+00 -0.77827756132E+02  0.77827756132E+02  0.00000000000E+00 0.  1.
          6    1    1    2  501    0  0.16256285483E+03 -0.16985255520E+02  0.18199226425E+03  0.29960868632E+03  0.17300000000E+03 0.  1.
         -6    1    1    2    0  502 -0.16256285483E+03  0.16985255520E+02  0.72553270885E+03  0.76357179904E+03  0.17300000000E+03 0.  1.
</event>
<event>
 4    1  0.5758867E+000  0.1000000E+03  0.7546771E-02  0.1280296E+00
         21   -1    0    0  503  502  0.00000000000E+00  0.00000000000E+00  0.71150136678E+02  0.71150136678E+02  0.00000000000E+00 0. -1.
         21   -1    0    0  501  503 -0.00000000000E+00 -0.00000000000E+00 -0.92659322444E+03  0.92659322444E+03  0.00000000000E+00 0. -1.
          6    1    1    2  501    0 -0.52623678937E+02  0.14313876796E+03 -0.64702518447E+03  0.68689777101E+03  0.17300000000E+03 0. -1.
         -6    1    1    2    0  502  0.52623678937E+02 -0.14313876796E+03 -0.20841790329E+03  0.31084559011E+03  0.17300000000E+03 0. -1.
</event>
<event>
 4    1  0.5758867E+000  0.1000000E+03  0.7546771E-02  0.1280296E+00
         21   -1    0    0  503  502  0.00000000000E+00  0.00000000000E+00  0.11904890353E+03  0.11904890353E+03  0.00000000000E+00 0. -1.
         21   -1    0    0  501  503 -0.00000000000E+00 -0.00000000000E+00 -0.32877891818E+03  0.32877891818E+03  0.00000000000E+00 0. -1.
          6    1    1    2  501    0 -0.34270469206E+02  0.47979988886E+02 -0.19057700885E+03  0.26405518495E+03  0.17300000000E+03 0. -1.
         -6    1    1    2    0  502  0.34270469206E+02 -0.47979988886E+02 -0.19153005799E+02  0.18377263677E+03  0.17300000000E+03 0. -1.
</event>
<event>
 4    1  0.5758867E+000  0.1000000E+03  0.7546771E-02  0.1280296E+00
         21   -1    0    0  503  502  0.00000000000E+00  0.00000000000E+00  0.13802115098E+04  0.13802115098E+04  0.00000000000E+00 0. -1.
         21   -1    0    0  501  503 -0.00000000000E+00 -0.00000000000E+00 -0.53673183440E+02  0.53673183440E+02  0.00000000000E+00 0. -1.
          6    1    1    2  501    0 -0.41935568283E+02 -0.33093992562E+02  0.12797213604E+03  0.22171980479E+03  0.17300000000E+03 0. -1.
         -6    1    1    2    0  502  0.41935568283E+02  0.33093992562E+02  0.11985661903E+04  0.12121648885E+04  0.17300000000E+03 0. -1.
</event>
<event>
 4    1  0.5758867E+000  0.1000000E+03  0.7546771E-02  0.1280296E+00
         21   -1    0    0  503  502  0.00000000000E+00  0.00000000000E+00  0.12812538812E+04  0.12812538812E+04  0.00000000000E+00 0. -1.
         21   -1    0    0  501  503 -0.00000000000E+00 -0.00000000000E+00 -0.25795104525E+02  0.25795104525E+02  0.00000000000E+00 0. -1.
          6    1    1    2  501    0  0.41661378723E+02 -0.28141317116E+02  0.71530361719E+03  0.73764210087E+03  0.17300000000E+03 0. -1.
         -6    1    1    2    0  502 -0.41661378723E+02  0.28141317116E+02  0.54015515951E+03  0.56940688488E+03  0.17300000000E+03 0. -1.
</event>
<event>
 4    1  0.5758867E+000  0.1000000E+03  0.7546771E-02  0.1280296E+00
         21   -1    0    0  503  502  0.00000000000E+00  0.00000000000E+00  0.27135535276E+03  0.27135535276E+03  0.00000000000E+00 0. -1.
         21   -1    0    0  501  503 -0.00000000000E+00 -0.00000000000E+00 -0.12215751823E+03  0.12215751823E+03  0.00000000000E+00 0. -1.
          6    1    1    2  501    0 -0.10157804987E+02  0.55800873286E+02  0.73004038746E+02  0.19615174772E+03  0.17300000000E+03 0. -1.
         -6    1    1    2    0  502  0.10157804987E+02 -0.55800873286E+02  0.76193795788E+02  0.19736112327E+03  0.17300000000E+03 0. -1.
</event>
<event>
 4    1  0.5758867E+000  0.1000000E+03  0.7546771E-02  0.1280296E+00
         21   -1    0    0  501  502  0.00000000000E+00  0.00000000000E+00  0.64659868152E+02  0.64659868152E+02  0.00000000000E+00 0. -1.
         21   -1    0    0  502  503 -0.00000000000E+00 -0.00000000000E+00 -0.61306839311E+03  0.61306839311E+03  0.00000000000E+00 0. -1.
          6    1    1    2  501    0  0.48468250884E+02  0.61057776074E+02 -0.37681384060E+03  0.42189441076E+03  0.17300000000E+03 0. -1.
         -6    1    1    2    0  503 -0.48468250884E+02 -0.61057776074E+02 -0.17159468436E+03  0.25583385050E+03  0.17300000000E+03 0. -1.
</event>
<event>
 4    1  0.5758867E+000  0.1000000E+03  0.7546771E-02  0.1280296E+00
         21   -1    0    0  503  502  0.00000000000E+00  0.00000000000E+00  0.15494455002E+04  0.15494455002E+04  0.00000000000E+00 0.  1.
         21   -1    0    0  501  503 -0.00000000000E+00 -0.00000000000E+00 -0.25189824155E+02  0.25189824155E+02  0.00000000000E+00 0.  1.
          6    1    1    2  501    0  0.33713577354E+02 -0.62885188126E+02  0.50976390828E+03  0.54302798673E+03  0.17300000000E+03 0. -1.
         -6    1    1    2    0  502 -0.33713577354E+02  0.62885188126E+02  0.10144917677E+04  0.10316073376E+04  0.17300000000E+03 0. -1.
</event>
<event>
 4    1  0.5758867E+000  0.1000000E+03  0.7546771E-02  0.1280296E+00
         21   -1    0    0  503  502  0.00000000000E+00  0.00000000000E+00  0.38616650852E+03  0.38616650852E+03  0.00000000000E+00 0.  1.
         21   -1    0    0  501  503 -0.00000000000E+00 -0.00000000000E+00 -0.14852565836E+03  0.14852565836E+03  0.00000000000E+00 0.  1.
          6    1    1    2  501    0  0.11785541555E+03  0.80911544137E+01 -0.10745272342E+02  0.20976135638E+03  0.17300000000E+03 0. -1.
         -6    1    1    2    0  502 -0.11785541555E+03 -0.80911544137E+01  0.24838612250E+03  0.32493081049E+03  0.17300000000E+03 0. -1.
</event>
<event>
 4    1  0.5758867E+000  0.1000000E+03  0.7546771E-02  0.1280296E+00
         21   -1    0    0  501  502  0.00000000000E+00  0.00000000000E+00  0.82044144868E+02  0.82044144868E+02  0.00000000000E+00 0.  1.
         21   -1    0    0  502  503 -0.00000000000E+00 -0.00000000000E+00 -0.59409562131E+03  0.59409562131E+03  0.00000000000E+00 0. -1.
          6    1    1    2  501    0 -0.36163248439E+02  0.10646194067E+03 -0.13573359114E+03  0.24697071307E+03  0.17300000000E+03 0.  1.
         -6    1    1    2    0  503  0.36163248439E+02 -0.10646194067E+03 -0.37631788530E+03  0.42916905311E+03  0.17300000000E+03 0. -1.
</event>
<event>
 4    1  0.5758867E+000  0.1000000E+03  0.7546771E-02  0.1280296E+00
         21   -1    0    0  501  502  0.00000000000E+00  0.00000000000E+00  0.19247057298E+03  0.19247057298E+03  0.00000000000E+00 0.  1.
         21   -1    0    0  502  503 -0.00000000000E+00 -0.00000000000E+00 -0.63613347944E+03  0.63613347944E+03  0.00000000000E+00 0. -1.
          6    1    1    2  501    0 -0.22648729865E+03  0.12393925490E+03 -0.31462741742E+02  0.31237211699E+03  0.17300000000E+03 0.  1.
         -6    1    1    2    0  503  0.22648729865E+03 -0.12393925490E+03 -0.41220016472E+03  0.51623193543E+03  0.17300000000E+03 0. -1.
</event>
<event>
 4    1  0.5758867E+000  0.1000000E+03  0.7546771E-02  0.1280296E+00
         21   -1    0    0  501  502  0.00000000000E+00  0.00000000000E+00  0.19765668422E+03  0.19765668422E+03  0.00000000000E+00 0.  1.
         21   -1    0    0  502  503 -0.00000000000E+00 -0.00000000000E+00 -0.35209842542E+03  0.35209842542E+03  0.00000000000E+00 0. -1.
          6    1    1    2  501    0  0.97659868263E+02  0.51383727763E+02  0.95530709443E+02  0.22634675565E+03  0.17300000000E+03 0.  1.
         -6    1    1    2    0  503 -0.97659868263E+02 -0.51383727763E+02 -0.24997245064E+03  0.32340835398E+03  0.17300000000E+03 0. -1.
</event>
<event>
 4    1  0.5758867E+000  0.1000000E+03  0.7546771E-02  0.1280296E+00
         21   -1    0    0  501  502  0.00000000000E+00  0.00000000000E+00  0.20631077581E+03  0.20631077581E+03  0.00000000000E+00 0. -1.
         21   -1    0    0  502  503 -0.00000000000E+00 -0.00000000000E+00 -0.21517651174E+03  0.21517651174E+03  0.00000000000E+00 0.  1.
          6    1    1    2  501    0 -0.87332830549E+02 -0.27419986011E+02  0.73593075060E+02  0.20910241419E+03  0.17300000000E+03 0. -1.
         -6    1    1    2    0  503  0.87332830549E+02  0.27419986011E+02 -0.82458810991E+02  0.21238487337E+03  0.17300000000E+03 0.  1.
</event>
<event>
 4    1  0.5758867E+000  0.1000000E+03  0.7546771E-02  0.1280296E+00
         21   -1    0    0  501  502  0.00000000000E+00  0.00000000000E+00  0.37013166559E+03  0.37013166559E+03  0.00000000000E+00 0. -1.
         21   -1    0    0  502  503 -0.00000000000E+00 -0.00000000000E+00 -0.98212751103E+02  0.98212751103E+02  0.00000000000E+00 0.  1.
          6    1    1    2  501    0  0.18740290609E+02  0.75732617021E+02  0.15847366890E+03  0.24724387051E+03  0.17300000000E+03 0. -1.
         -6    1    1    2    0  503 -0.18740290609E+02 -0.75732617021E+02  0.11344524559E+03  0.22110054618E+03  0.17300000000E+03 0.  1.
</event>
<event>
 4    1  0.5758867E+000  0.1000000E+03  0.7546771E-02  0.1280296E+00
         21   -1    0    0  501  502  0.00000000000E+00  0.00000000000E+00  0.28244169311E+03  0.28244169311E+03  0.00000000000E+00 0. -1.
         21   -1    0    0  502  503 -0.00000000000E+00 -0.00000000000E+00 -0.50989976498E+03  0.50989976498E+03  0.00000000000E+00 0.  1.
          6    1    1    2  501    0  0.63189450868E+02  0.32148558173E+02  0.23102657387E+03  0.29720147094E+03  0.17300000000E+03 0. -1.
         -6    1    1    2    0  503 -0.63189450868E+02 -0.32148558173E+02 -0.45848464574E+03  0.49513998715E+03  0.17300000000E+03 0.  1.
</event>
<event>
 4    1  0.5758867E+000  0.1000000E+03  0.7546771E-02  0.1280296E+00
         21   -1    0    0  501  502  0.00000000000E+00  0.00000000000E+00  0.77714092776E+03  0.77714092776E+03  0.00000000000E+00 0. -1.
         21   -1    0    0  502  503 -0.00000000000E+00 -0.00000000000E+00 -0.70100396134E+02  0.70100396134E+02  0.00000000000E+00 0.  1.
          6    1    1    2  501    0 -0.53483586584E+02  0.26292077964E+02  0.61651488775E+03  0.64309515176E+03  0.17300000000E+03 0. -1.
         -6    1    1    2    0  503  0.53483586584E+02 -0.26292077964E+02  0.90525643873E+02  0.20414617213E+03  0.17300000000E+03 0.  1.
</event>
<event>
 4    1  0.5758867E+000  0.1000000E+03  0.7546771E-02  0.1280296E+00
         21   -1    0    0  501  502  0.00000000000E+00  0.00000000000E+00  0.33567450860E+03  0.33567450860E+03  0.00000000000E+00 0. -1.
         21   -1    0    0  502  503 -0.00000000000E+00 -0.00000000000E+00 -0.34935387662E+03  0.34935387662E+03  0.00000000000E+00 0.  1.
          6    1    1    2  501    0  0.90202150364E+01  0.73901783797E+02  0.27921972190E+03  0.33680185722E+03  0.17300000000E+03 0. -1.
         -6    1    1    2    0  503 -0.90202150364E+01 -0.73901783797E+02 -0.29289908992E+03  0.34822652800E+03  0.17300000000E+03 0.  1.
</event>
<event>
 4    1  0.5758867E+000  0.1000000E+03  0.7546771E-02  0.1280296E+00
         21   -1    0    0  503  502  0.00000000000E+00  0.00000000000E+00  0.26612179373E+03  0.26612179373E+03  0.00000000000E+00 0.  1.
         21   -1    0    0  501  503 -0.00000000000E+00 -0.00000000000E+00 -0.40201779242E+03  0.40201779242E+03  0.00000000000E+00 0.  1.
          6    1    1    2  501    0 -0.35671903516E+02  0.18390950065E+03 -0.27716640480E+03  0.37662369161E+03  0.17300000000E+03 0.  1.
         -6    1    1    2    0  502  0.35671903516E+02 -0.18390950065E+03  0.14127040611E+03  0.29151589455E+03  0.17300000000E+03 0.  1.
</event>
<event>
 4    1  0.5758867E+000  0.1000000E+03  0.7546771E-02  0.1280296E+00
         21   -1    0    0  503  502  0.00000000000E+00  0.00000000000E+00  0.11166042152E+03  0.11166042152E+03  0.00000000000E+00 0.  1.
         21   -1    0    0  501  503 -0.00000000000E+00 -0.00000000000E+00 -0.47039812130E+03  0.47039812130E+03  0.00000000000E+00 0.  1.
          6    1    1    2  501    0 -0.11435606726E+03  0.96395107663E+02 -0.19848114754E+03  0.30280867364E+03  0.17300000000E+03 0.  1.
         -6    1    1    2    0  502  0.11435606726E+03 -0.96395107663E+02 -0.16025655224E+03  0.27924986918E+03  0.17300000000E+03 0.  1.
</event>
<event>
 4    1  0.5758867E+000  0.1000000E+03  0.7546771E-02  0.1280296E+00
         21   -1    0    0  501  502  0.00000000000E+00  0.00000000000E+00  0.19562158792E+03  0.19562158792E+03  0.00000000000E+00 0.  1.
         21   -1    0    0  502  503 -0.00000000000E+00 -0.00000000000E+00 -0.17431455372E+03  0.17431455372E+03  0.00000000000E+00 0.  1.
          6    1    1    2  501    0 -0.50278165267E+02  0.33266194096E+02  0.33847067206E+02  0.18630393858E+03  0.17300000000E+03 0.  1.
         -6    1    1    2    0  503  0.50278165267E+02 -0.33266194096E+02 -0.12540033009E+02  0.18363220306E+03  0.17300000000E+03 0.  1.
</event>
<event>
 4    1  0.5758867E+000  0.1000000E+03  0.7546771E-02  0.1280296E+00
         21   -1    0    0  501  502  0.00000000000E+00  0.00000000000E+00  0.86259989154E+03  0.86259989154E+03  0.00000000000E+00 0.  1.
         21   -1    0    0  502  503 -0.00000000000E+00 -0.00000000000E+00 -0.33376582279E+03  0.33376582279E+03  0.00000000000E+00 0.  1.
          6    1    1    2  501    0 -0.27462257772E+03 -0.16029531430E+03  0.70595866320E+03  0.79335917599E+03  0.17300000000E+03 0.  1.
         -6    1    1    2    0  503  0.27462257772E+03  0.16029531430E+03 -0.17712459446E+03  0.40300653834E+03  0.17300000000E+03 0.  1.
</event>
<event>
 4    1  0.5758867E+000  0.1000000E+03  0.7546771E-02  0.1280296E+00
         21   -1    0    0  503  502  0.00000000000E+00  0.00000000000E+00  0.64111163292E+03  0.64111163292E+03  0.00000000000E+00 0.  1.
         21   -1    0    0  501  503 -0.00000000000E+00 -0.00000000000E+00 -0.16575650499E+03  0.16575650499E+03  0.00000000000E+00 0.  1.
          6    1    1    2  501    0  0.96104856104E+02 -0.23328454962E+03  0.98311362963E+02  0.32132841229E+03  0.17300000000E+03 0.  1.
         -6    1    1    2    0  502 -0.96104856104E+02  0.23328454962E+03  0.37704376497E+03  0.48553972562E+03  0.17300000000E+03 0.  1.
</event>
<event>
 4    1  0.5758867E+000  0.1000000E+03  0.7546771E-02  0.1280296E+00
         21   -1    0    0  503  502  0.00000000000E+00  0.00000000000E+00  0.15595501745E+03  0.15595501745E+03  0.00000000000E+00 0.  1.
         21   -1    0    0  501  503 -0.00000000000E+00 -0.00000000000E+00 -0.56549680063E+03  0.56549680063E+03  0.00000000000E+00 0.  1.
          6    1    1    2  501    0 -0.99505284536E+02 -0.76593141239E+02 -0.45517000770E+03  0.50286831959E+03  0.17300000000E+03 0.  1.
         -6    1    1    2    0  502  0.99505284536E+02  0.76593141239E+02  0.45628224523E+02  0.21858349848E+03  0.17300000000E+03 0.  1.
</event>
<event>
 4    1  0.5758867E+000  0.1000000E+03  0.7546771E-02  0.1280296E+00
         21   -1    0    0  503  502  0.00000000000E+00  0.00000000000E+00  0.19986870902E+04  0.19986870902E+04  0.00000000000E+00 0.  1.
         21   -1    0    0  501  503 -0.00000000000E+00 -0.00000000000E+00 -0.51278992191E+02  0.51278992191E+02  0.00000000000E+00 0.  1.
          6    1    1    2  501    0 -0.14354505798E+03  0.74533755421E+02  0.28403756679E+03  0.36981996122E+03  0.17300000000E+03 0.  1.
         -6    1    1    2    0  502  0.14354505798E+03 -0.74533755421E+02  0.16633705312E+04  0.16801461212E+04  0.17300000000E+03 0.  1.
</event>
<event>
 4    1  0.5758867E+000  0.1000000E+03  0.7546771E-02  0.1280296E+00
         21   -1    0    0  503  502  0.00000000000E+00  0.00000000000E+00  0.15648094926E+03  0.15648094926E+03  0.00000000000E+00 0.  1.
         21   -1    0    0  501  503 -0.00000000000E+00 -0.00000000000E+00 -0.49500613260E+03  0.49500613260E+03  0.00000000000E+00 0. -1.
          6    1    1    2  501    0  0.52300243083E+02 -0.11350038197E+03 -0.37834590169E+03  0.43438723906E+03  0.17300000000E+03 0.  1.
         -6    1    1    2    0  502 -0.52300243083E+02  0.11350038197E+03  0.39820718357E+02  0.21709984280E+03  0.17300000000E+03 0. -1.
</event>
<event>
 4    1  0.5758867E+000  0.1000000E+03  0.7546771E-02  0.1280296E+00
         21   -1    0    0  501  502  0.00000000000E+00  0.00000000000E+00  0.17704797877E+04  0.17704797877E+04  0.00000000000E+00 0.  1.
         21   -1    0    0  502  503 -0.00000000000E+00 -0.00000000000E+00 -0.99527766354E+02  0.99527766354E+02  0.00000000000E+00 0.  1.
          6    1    1    2  501    0  0.71922932383E+02  0.25784828647E+03  0.14439412102E+04  0.14787000593E+04  0.17300000000E+03 0.  1.
         -6    1    1    2    0  503 -0.71922932383E+02 -0.25784828647E+03  0.22701081119E+03  0.39130749474E+03  0.17300000000E+03 0.  1.
</event>
<event>
 4    1  0.5758867E+000  0.1000000E+03  0.7546771E-02  0.1280296E+00
         21   -1    0    0  501  502  0.00000000000E+00  0.00000000000E+00  0.14512359914E+04  0.14512359914E+04  0.00000000000E+00 0.  1.
         21   -1    0    0  502  503 -0.00000000000E+00 -0.00000000000E+00 -0.28235325347E+03  0.28235325347E+03  0.00000000000E+00 0.  1.
          6    1    1    2  501    0  0.25560497698E+03  0.43993662386E+03  0.10553764322E+04  0.11843253568E+04  0.17300000000E+03 0.  1.
         -6    1    1    2    0  503 -0.25560497698E+03 -0.43993662386E+03  0.11350630580E+03  0.54926388806E+03  0.17300000000E+03 0.  1.
</event>
<event>
 4    1  0.5758867E+000  0.1000000E+03  0.7546771E-02  0.1280296E+00
         21   -1    0    0  501  502  0.00000000000E+00  0.00000000000E+00  0.96333821358E+02  0.96333821358E+02  0.00000000000E+00 0. -1.
         21   -1    0    0  502  503 -0.00000000000E+00 -0.00000000000E+00 -0.93632701044E+03  0.93632701044E+03  0.00000000000E+00 0. -1.
          6    1    1    2  501    0 -0.45341893556E+02 -0.18770107344E+03 -0.15936235077E+03  0.30432374065E+03  0.17300000000E+03 0. -1.
         -6    1    1    2    0  503  0.45341893556E+02  0.18770107344E+03 -0.68063083831E+03  0.72833709114E+03  0.17300000000E+03 0. -1.
</event>
<event>
 4    1  0.5758867E+000  0.1000000E+03  0.7546771E-02  0.1280296E+00
         21   -1    0    0  501  502  0.00000000000E+00  0.00000000000E+00  0.35435580118E+03  0.35435580118E+03  0.00000000000E+00 0. -1.
         21   -1    0    0  502  503 -0.00000000000E+00 -0.00000000000E+00 -0.15152591808E+03  0.15152591808E+03  0.00000000000E+00 0. -1.
          6    1    1    2  501    0 -0.30487132450E+02  0.19749674237E+02  0.26495385396E+03  0.31851068994E+03  0.17300000000E+03 0. -1.
         -6    1    1    2    0  503  0.30487132450E+02 -0.19749674237E+02 -0.62123970853E+02  0.18737102933E+03  0.17300000000E+03 0. -1.
</event>
<event>
 4    1  0.5758867E+000  0.1000000E+03  0.7546771E-02  0.1280296E+00
         21   -1    0    0  501  502  0.00000000000E+00  0.00000000000E+00  0.22840744938E+03  0.22840744938E+03  0.00000000000E+00 0.  1.
         21   -1    0    0  502  503 -0.00000000000E+00 -0.00000000000E+00 -0.14435729480E+03  0.14435729480E+03  0.00000000000E+00 0.  1.
          6    1    1    2  501    0 -0.83550286167E+00  0.39436211737E+02  0.24392572647E+01  0.17745665059E+03  0.17300000000E+03 0.  1.
         -6    1    1    2    0  503  0.83550286167E+00 -0.39436211737E+02  0.81610897318E+02  0.19530809359E+03  0.17300000000E+03 0.  1.
</event>
<event>
 4    1  0.5758867E+000  0.1000000E+03  0.7546771E-02  0.1280296E+00
         21   -1    0    0  501  502  0.00000000000E+00  0.00000000000E+00  0.10532354527E+04  0.10532354527E+04  0.00000000000E+00 0. -1.
         21   -1    0    0  502  503 -0.00000000000E+00 -0.00000000000E+00 -0.57788227188E+02  0.57788227188E+02  0.00000000000E+00 0. -1.
          6    1    1    2  501    0 -0.98153760257E+02  0.71368595230E+02  0.78438899192E+03  0.81235628125E+03  0.17300000000E+03 0. -1.
         -6    1    1    2    0  503  0.98153760257E+02 -0.71368595230E+02  0.21105823356E+03  0.29866739861E+03  0.17300000000E+03 0. -1.
</event>
<event>
 4    1  0.5758867E+000  0.1000000E+03  0.7546771E-02  0.1280296E+00
         21   -1    0    0  501  502  0.00000000000E+00  0.00000000000E+00  0.16365371349E+03  0.16365371349E+03  0.00000000000E+00 0. -1.
         21   -1    0    0  502  503 -0.00000000000E+00 -0.00000000000E+00 -0.15152184324E+04  0.15152184324E+04  0.00000000000E+00 0. -1.
          6    1    1    2  501    0  0.41373395670E+02  0.45154173417E+03 -0.86380265387E+03  0.99080054521E+03  0.17300000000E+03 0. -1.
         -6    1    1    2    0  503 -0.41373395670E+02 -0.45154173417E+03 -0.48776206503E+03  0.68807160067E+03  0.17300000000E+03 0. -1.
</event>
<event>
 4    1  0.5758867E+000  0.1000000E+03  0.7546771E-02  0.1280296E+00
         21   -1    0    0  503  502  0.00000000000E+00  0.00000000000E+00  0.10284577777E+03  0.10284577777E+03  0.00000000000E+00 0.  1.
         21   -1    0    0  501  503 -0.00000000000E+00 -0.00000000000E+00 -0.64790207023E+03  0.64790207023E+03  0.00000000000E+00 0.  1.
          6    1    1    2  501    0  0.48474907010E+02 -0.54826396701E+02 -0.52999996738E+03  0.56230304624E+03  0.17300000000E+03 0.  1.
         -6    1    1    2    0  502 -0.48474907010E+02  0.54826396701E+02 -0.15056325073E+02  0.18844480176E+03  0.17300000000E+03 0.  1.
</event>
<event>
 4    1  0.5758867E+000  0.1000000E+03  0.7546771E-02  0.1280296E+00
         21   -1    0    0  503  502  0.00000000000E+00  0.00000000000E+00  0.16110304619E+03  0.16110304619E+03  0.00000000000E+00 0. -1.
         21   -1    0    0  501  503 -0.00000000000E+00 -0.00000000000E+00 -0.25646640250E+03  0.25646640250E+03  0.00000000000E+00 0. -1.
          6    1    1    2  501    0 -0.19137970048E+02  0.68655491334E+02 -0.12926490224E+03  0.22741647552E+03  0.17300000000E+03 0. -1.
         -6    1    1    2    0  502  0.19137970048E+02 -0.68655491334E+02  0.33901545938E+02  0.19015297317E+03  0.17300000000E+03 0. -1.
</event>
<event>
 4    1  0.5758867E+000  0.1000000E+03  0.7546771E-02  0.1280296E+00
         21   -1    0    0  503  502  0.00000000000E+00  0.00000000000E+00  0.12582170324E+03  0.12582170324E+03  0.00000000000E+00 0. -1.
         21   -1    0    0  501  503 -0.00000000000E+00 -0.00000000000E+00 -0.13556518231E+04  0.13556518231E+04  0.00000000000E+00 0. -1.
          6    1    1    2  501    0  0.22480037649E+03  0.58951634703E+02 -0.11428112088E+04  0.11789643605E+04  0.17300000000E+03 0. -1.
         -6    1    1    2    0  502 -0.22480037649E+03 -0.58951634703E+02 -0.87018911057E+02  0.30250916578E+03  0.17300000000E+03 0. -1.
</event>
<event>
 4    1  0.5758867E+000  0.1000000E+03  0.7546771E-02  0.1280296E+00
         21   -1    0    0  503  502  0.00000000000E+00  0.00000000000E+00  0.10965653970E+04  0.10965653970E+04  0.00000000000E+00 0. -1.
         21   -1    0    0  501  503 -0.00000000000E+00 -0.00000000000E+00 -0.37685119021E+02  0.37685119021E+02  0.00000000000E+00 0. -1.
          6    1    1    2  501    0  0.35921601181E+01 -0.93861174500E+02  0.38794425232E+03  0.43503168460E+03  0.17300000000E+03 0. -1.
         -6    1    1    2    0  502 -0.35921601181E+01  0.93861174500E+02  0.67093602562E+03  0.69921883139E+03  0.17300000000E+03 0. -1.
</event>
<event>
 4    1  0.5758867E+000  0.1000000E+03  0.7546771E-02  0.1280296E+00
         21   -1    0    0  503  502  0.00000000000E+00  0.00000000000E+00  0.10700386017E+03  0.10700386017E+03  0.00000000000E+00 0. -1.
         21   -1    0    0  501  503 -0.00000000000E+00 -0.00000000000E+00 -0.12959315699E+04  0.12959315699E+04  0.00000000000E+00 0. -1.
          6    1    1    2  501    0  0.12046879695E+03  0.28446669182E+02 -0.11702138255E+04  0.11893911642E+04  0.17300000000E+03 0. -1.
         -6    1    1    2    0  502 -0.12046879695E+03 -0.28446669182E+02 -0.18713884211E+02  0.21354426588E+03  0.17300000000E+03 0. -1.
</event>
<event>
 4    1  0.5758867E+000  0.1000000E+03  0.7546771E-02  0.1280296E+00
         21   -1    0    0  503  502  0.00000000000E+00  0.00000000000E+00  0.52199683920E+03  0.52199683920E+03  0.00000000000E+00 0. -1.
         21   -1    0    0  501  503 -0.00000000000E+00 -0.00000000000E+00 -0.82354059699E+02  0.82354059699E+02  0.00000000000E+00 0.  1.
          6    1    1    2  501    0 -0.36205203243E+02  0.10557279928E+03  0.18402931946E+03  0.27613805082E+03  0.17300000000E+03 0.  1.
         -6    1    1    2    0  502  0.36205203243E+02 -0.10557279928E+03  0.25561346004E+03  0.32821284808E+03  0.17300000000E+03 0. -1.
</event>
<event>
 4    1  0.5758867E+000  0.1000000E+03  0.7546771E-02  0.1280296E+00
         21   -1    0    0  503  502  0.00000000000E+00  0.00000000000E+00  0.18268249394E+03  0.18268249394E+03  0.00000000000E+00 0.  1.
         21   -1    0    0  501  503 -0.00000000000E+00 -0.00000000000E+00 -0.23607618443E+03  0.23607618443E+03  0.00000000000E+00 0. -1.
          6    1    1    2  501    0 -0.71852259090E+01  0.22842579356E+02 -0.13998060585E+03  0.22382354862E+03  0.17300000000E+03 0. -1.
         -6    1    1    2    0  502  0.71852259090E+01 -0.22842579356E+02  0.86586915355E+02  0.19493512976E+03  0.17300000000E+03 0.  1.
</event>
<event>
 4    1  0.5758867E+000  0.1000000E+03  0.7546771E-02  0.1280296E+00
         21   -1    0    0  503  502  0.00000000000E+00  0.00000000000E+00  0.20114788517E+04  0.20114788517E+04  0.00000000000E+00 0.  1.
         21   -1    0    0  501  503 -0.00000000000E+00 -0.00000000000E+00 -0.40454806851E+02  0.40454806851E+02  0.00000000000E+00 0. -1.
          6    1    1    2  501    0 -0.18264995808E+03 -0.63382273415E+01  0.50239246543E+03  0.56189711659E+03  0.17300000000E+03 0. -1.
         -6    1    1    2    0  502  0.18264995808E+03  0.63382273415E+01  0.14686315794E+04  0.14900365420E+04  0.17300000000E+03 0.  1.
</event>
<event>
 4    1  0.5758867E+000  0.1000000E+03  0.7546771E-02  0.1280296E+00
         21   -1    0    0  503  502  0.00000000000E+00  0.00000000000E+00  0.45918148188E+03  0.45918148188E+03  0.00000000000E+00 0.  1.
         21   -1    0    0  501  503 -0.00000000000E+00 -0.00000000000E+00 -0.17483129313E+03  0.17483129313E+03  0.00000000000E+00 0. -1.
          6    1    1    2  501    0 -0.62884384426E+02 -0.35706836694E+02 -0.95484291028E+02  0.21041785529E+03  0.17300000000E+03 0. -1.
         -6    1    1    2    0  502  0.62884384426E+02  0.35706836694E+02  0.37983447977E+03  0.42359491972E+03  0.17300000000E+03 0.  1.
</event>
<event>
 4    1  0.5758867E+000  0.1000000E+03  0.7546771E-02  0.1280296E+00
         21   -1    0    0  501  502  0.00000000000E+00  0.00000000000E+00  0.82262036467E+02  0.82262036467E+02  0.00000000000E+00 0. -1.
         21   -1    0    0  502  503 -0.00000000000E+00 -0.00000000000E+00 -0.42239788077E+03  0.42239788077E+03  0.00000000000E+00 0.  1.
          6    1    1    2  501    0  0.54342576895E+02  0.58203440081E+01 -0.11213971579E+03  0.21328691457E+03  0.17300000000E+03 0.  1.
         -6    1    1    2    0  503 -0.54342576895E+02 -0.58203440081E+01 -0.22799612852E+03  0.29137300267E+03  0.17300000000E+03 0. -1.
</event>
<event>
 4    1  0.5758867E+000  0.1000000E+03  0.7546771E-02  0.1280296E+00
         21   -1    0    0  501  502  0.00000000000E+00  0.00000000000E+00  0.56818757158E+03  0.56818757158E+03  0.00000000000E+00 0. -1.
         21   -1    0    0  502  503 -0.00000000000E+00 -0.00000000000E+00 -0.13191966949E+03  0.13191966949E+03  0.00000000000E+00 0.  1.
          6    1    1    2  501    0  0.16590529324E+03  0.12975019835E+03  0.18512640253E+03  0.32948515173E+03  0.17300000000E+03 0.  1.
         -6    1    1    2    0  503 -0.16590529324E+03 -0.12975019835E+03  0.25114149956E+03  0.37062208933E+03  0.17300000000E+03 0. -1.
</event>
<event>
 4    1  0.5758867E+000  0.1000000E+03  0.7546771E-02  0.1280296E+00
         21   -1    0    0  501  502  0.00000000000E+00  0.00000000000E+00  0.42657300954E+02  0.42657300954E+02  0.00000000000E+00 0. -1.
         21   -1    0    0  502  503 -0.00000000000E+00 -0.00000000000E+00 -0.83507990180E+03  0.83507990180E+03  0.00000000000E+00 0.  1.
          6    1    1    2  501    0  0.32551012123E+02  0.62435102942E+02 -0.33314778121E+03  0.38193475175E+03  0.17300000000E+03 0.  1.
         -6    1    1    2    0  503 -0.32551012123E+02 -0.62435102942E+02 -0.45927481963E+03  0.49580245100E+03  0.17300000000E+03 0. -1.
</event>
<event>
 4    1  0.5758867E+000  0.1000000E+03  0.7546771E-02  0.1280296E+00
         21   -1    0    0  501  502  0.00000000000E+00  0.00000000000E+00  0.52350380006E+03  0.52350380006E+03  0.00000000000E+00 0. -1.
         21   -1    0    0  502  503 -0.00000000000E+00 -0.00000000000E+00 -0.87841905170E+02  0.87841905170E+02  0.00000000000E+00 0.  1.
          6    1    1    2  501    0  0.10531739387E+03 -0.64994250167E+02  0.25662165614E+03  0.33331618683E+03  0.17300000000E+03 0. -1.
         -6    1    1    2    0  503 -0.10531739387E+03  0.64994250167E+02  0.17904023875E+03  0.27802951839E+03  0.17300000000E+03 0.  1.
</event>
<event>
 4    1  0.5758867E+000  0.1000000E+03  0.7546771E-02  0.1280296E+00
         21   -1    0    0  503  502  0.00000000000E+00  0.00000000000E+00  0.13577588574E+03  0.13577588574E+03  0.00000000000E+00 0.  1.
         21   -1    0    0  501  503 -0.00000000000E+00 -0.00000000000E+00 -0.59376250613E+03  0.59376250613E+03  0.00000000000E+00 0.  1.
          6    1    1    2  501    0  0.21175340598E+02  0.12790386073E+03 -0.46546759815E+03  0.51322205484E+03  0.17300000000E+03 0.  1.
         -6    1    1    2    0  502 -0.21175340598E+02 -0.12790386073E+03  0.74809777666E+01  0.21631633703E+03  0.17300000000E+03 0.  1.
</event>
<event>
 4    1  0.5758867E+000  0.1000000E+03  0.7546771E-02  0.1280296E+00
         21   -1    0    0  503  502  0.00000000000E+00  0.00000000000E+00  0.21307888481E+03  0.21307888481E+03  0.00000000000E+00 0.  1.
         21   -1    0    0  501  503 -0.00000000000E+00 -0.00000000000E+00 -0.15059500352E+03  0.15059500352E+03  0.00000000000E+00 0.  1.
          6    1    1    2  501    0 -0.11091709195E+02 -0.88345891747E+01 -0.13681477619E+02  0.17411851943E+03  0.17300000000E+03 0.  1.
         -6    1    1    2    0  502  0.11091709195E+02  0.88345891747E+01  0.76165358914E+02  0.18955536890E+03  0.17300000000E+03 0.  1.
</event>
<event>
 4    1  0.5758867E+000  0.1000000E+03  0.7546771E-02  0.1280296E+00
         21   -1    0    0  503  502  0.00000000000E+00  0.00000000000E+00  0.37498250023E+03  0.37498250023E+03  0.00000000000E+00 0.  1.
         21   -1    0    0  501  503 -0.00000000000E+00 -0.00000000000E+00 -0.60904762009E+03  0.60904762009E+03  0.00000000000E+00 0.  1.
          6    1    1    2  501    0 -0.12411278467E+03 -0.36331180069E+02 -0.55592661839E+03  0.59641205806E+03  0.17300000000E+03 0.  1.
         -6    1    1    2    0  502  0.12411278467E+03  0.36331180069E+02  0.32186149852E+03  0.38761806227E+03  0.17300000000E+03 0.  1.
</event>
<event>
 4    1  0.5758867E+000  0.1000000E+03  0.7546771E-02  0.1280296E+00
         21   -1    0    0  503  502  0.00000000000E+00  0.00000000000E+00  0.22531976945E+04  0.22531976945E+04  0.00000000000E+00 0.  1.
         21   -1    0    0  501  503 -0.00000000000E+00 -0.00000000000E+00 -0.24667289322E+02  0.24667289322E+02  0.00000000000E+00 0. -1.
          6    1    1    2  501    0  0.10579497642E+03  0.62513778445E+02  0.16104904677E+04  0.16244103842E+04  0.17300000000E+03 0. -1.
         -6    1    1    2    0  502 -0.10579497642E+03 -0.62513778445E+02  0.61803993744E+03  0.65345459965E+03  0.17300000000E+03 0.  1.
</event>
<event>
 4    1  0.5758867E+000  0.1000000E+03  0.7546771E-02  0.1280296E+00
         21   -1    0    0  503  502  0.00000000000E+00  0.00000000000E+00  0.24431112747E+02  0.24431112747E+02  0.00000000000E+00 0.  1.
         21   -1    0    0  501  503 -0.00000000000E+00 -0.00000000000E+00 -0.13340462834E+04  0.13340462834E+04  0.00000000000E+00 0. -1.
          6    1    1    2  501    0  0.35388511574E+02 -0.37241358045E+02 -0.67322786753E+03  0.69699643264E+03  0.17300000000E+03 0. -1.
         -6    1    1    2    0  502 -0.35388511574E+02  0.37241358045E+02 -0.63638730312E+03  0.66148096350E+03  0.17300000000E+03 0.  1.
</event>
<event>
 4    1  0.5758867E+000  0.1000000E+03  0.7546771E-02  0.1280296E+00
         21   -1    0    0  503  502  0.00000000000E+00  0.00000000000E+00  0.90848397248E+02  0.90848397248E+02  0.00000000000E+00 0.  1.
         21   -1    0    0  501  503 -0.00000000000E+00 -0.00000000000E+00 -0.20539981318E+04  0.20539981318E+04  0.00000000000E+00 0. -1.
          6    1    1    2  501    0 -0.59403291808E+02 -0.59422027958E+01 -0.19529980530E+04  0.19615540920E+04  0.17300000000E+03 0. -1.
         -6    1    1    2    0  502  0.59403291808E+02  0.59422027958E+01 -0.10151681592E+02  0.18329243708E+03  0.17300000000E+03 0.  1.
</event>
<event>
 4    1  0.5758867E+000  0.1000000E+03  0.7546771E-02  0.1280296E+00
         21   -1    0    0  501  502  0.00000000000E+00  0.00000000000E+00  0.26055475022E+03  0.26055475022E+03  0.00000000000E+00 0. -1.
         21   -1    0    0  502  503 -0.00000000000E+00 -0.00000000000E+00 -0.14242035776E+03  0.14242035776E+03  0.00000000000E+00 0.  1.
          6    1    1    2  501    0  0.70852472658E+02 -0.10954929055E+02  0.10630007911E+03  0.21533413610E+03  0.17300000000E+03 0. -1.
         -6    1    1    2    0  503 -0.70852472658E+02  0.10954929055E+02  0.11834313354E+02  0.18764097187E+03  0.17300000000E+03 0. -1.
</event>
<event>
 4    1  0.5758867E+000  0.1000000E+03  0.7546771E-02  0.1280296E+00
         21   -1    0    0  503  502  0.00000000000E+00  0.00000000000E+00  0.24435463619E+04  0.24435463619E+04  0.00000000000E+00 0. -1.
         21   -1    0    0  501  503 -0.00000000000E+00 -0.00000000000E+00 -0.30760660198E+02  0.30760660198E+02  0.00000000000E+00 0. -1.
          6    1    1    2  501    0  0.23513718512E+02 -0.17030831187E+03  0.64137167117E+03  0.68618105237E+03  0.17300000000E+03 0. -1.
         -6    1    1    2    0  502 -0.23513718512E+02  0.17030831187E+03  0.17714140305E+04  0.17881259697E+04  0.17300000000E+03 0. -1.
</event>
<event>
 4    1  0.5758867E+000  0.1000000E+03  0.7546771E-02  0.1280296E+00
         21   -1    0    0  503  502  0.00000000000E+00  0.00000000000E+00  0.55880552588E+03  0.55880552588E+03  0.00000000000E+00 0.  1.
         21   -1    0    0  501  503 -0.00000000000E+00 -0.00000000000E+00 -0.61355838766E+02  0.61355838766E+02  0.00000000000E+00 0. -1.
          6    1    1    2  501    0 -0.22129103420E+00  0.51317783595E+02  0.17920453173E+03  0.25431639364E+03  0.17300000000E+03 0. -1.
         -6    1    1    2    0  502  0.22129103420E+00 -0.51317783595E+02  0.31824515538E+03  0.36584497100E+03  0.17300000000E+03 0.  1.
</event>
<event>
 4    1  0.5758867E+000  0.1000000E+03  0.7546771E-02  0.1280296E+00
         21   -1    0    0  503  502  0.00000000000E+00  0.00000000000E+00  0.11048795152E+04  0.11048795152E+04  0.00000000000E+00 0.  1.
         21   -1    0    0  501  503 -0.00000000000E+00 -0.00000000000E+00 -0.42319818641E+02  0.42319818641E+02  0.00000000000E+00 0. -1.
          6    1    1    2  501    0  0.74973133677E+02 -0.10586041101E+03  0.52762024420E+03  0.57021006610E+03  0.17300000000E+03 0. -1.
         -6    1    1    2    0  502 -0.74973133677E+02  0.10586041101E+03  0.53493945231E+03  0.57698926769E+03  0.17300000000E+03 0.  1.
</event>
<event>
 4    1  0.5758867E+000  0.1000000E+03  0.7546771E-02  0.1280296E+00
         21   -1    0    0  503  502  0.00000000000E+00  0.00000000000E+00  0.37280412278E+03  0.37280412278E+03  0.00000000000E+00 0.  1.
         21   -1    0    0  501  503 -0.00000000000E+00 -0.00000000000E+00 -0.31914631417E+03  0.31914631417E+03  0.00000000000E+00 0. -1.
          6    1    1    2  501    0 -0.82888131613E+02  0.16530114501E+03 -0.20809025016E+03  0.32775823882E+03  0.17300000000E+03 0. -1.
         -6    1    1    2    0  502  0.82888131613E+02 -0.16530114501E+03  0.26174805877E+03  0.36419219812E+03  0.17300000000E+03 0.  1.
</event>
<event>
 4    1  0.5758867E+000  0.1000000E+03  0.7546771E-02  0.1280296E+00
         21   -1    0    0  503  502  0.00000000000E+00  0.00000000000E+00  0.82123179765E+02  0.82123179765E+02  0.00000000000E+00 0.  1.
         21   -1    0    0  501  503 -0.00000000000E+00 -0.00000000000E+00 -0.44011007936E+03  0.44011007936E+03  0.00000000000E+00 0. -1.
          6    1    1    2  501    0  0.33611834457E+02  0.22036272398E+02 -0.27213583146E+03  0.32496501886E+03  0.17300000000E+03 0. -1.
         -6    1    1    2    0  502 -0.33611834457E+02 -0.22036272398E+02 -0.85851068126E+02  0.19726824026E+03  0.17300000000E+03 0.  1.
</event>
<event>
 4    1  0.5758867E+000  0.1000000E+03  0.7546771E-02  0.1280296E+00
         21   -1    0    0  503  502  0.00000000000E+00  0.00000000000E+00  0.15556439489E+03  0.15556439489E+03  0.00000000000E+00 0.  1.
         21   -1    0    0  501  503 -0.00000000000E+00 -0.00000000000E+00 -0.53143740208E+03  0.53143740208E+03  0.00000000000E+00 0. -1.
          6    1    1    2  501    0  0.15703579830E+03 -0.16105161189E+03 -0.24327773902E+03  0.37377924226E+03  0.17300000000E+03 0. -1.
         -6    1    1    2    0  502 -0.15703579830E+03  0.16105161189E+03 -0.13259526817E+03  0.31322255471E+03  0.17300000000E+03 0.  1.
</event>
<event>
 4    1  0.5758867E+000  0.1000000E+03  0.7546771E-02  0.1280296E+00
         21   -1    0    0  501  502  0.00000000000E+00  0.00000000000E+00  0.12141914855E+04  0.12141914855E+04  0.00000000000E+00 0. -1.
         21   -1    0    0  502  503 -0.00000000000E+00 -0.00000000000E+00 -0.38997011816E+02  0.38997011816E+02  0.00000000000E+00 0. -1.
          6    1    1    2  501    0  0.11618949395E+03 -0.54623523952E+02  0.67574734689E+03  0.70925820736E+03  0.17300000000E+03 0. -1.
         -6    1    1    2    0  503 -0.11618949395E+03  0.54623523952E+02  0.49944712678E+03  0.54393028995E+03  0.17300000000E+03 0. -1.
</event>
<event>
 4    1  0.5758867E+000  0.1000000E+03  0.7546771E-02  0.1280296E+00
         21   -1    0    0  503  502  0.00000000000E+00  0.00000000000E+00  0.22169408248E+03  0.22169408248E+03  0.00000000000E+00 0.  1.
         21   -1    0    0  501  503 -0.00000000000E+00 -0.00000000000E+00 -0.18222876798E+03  0.18222876798E+03  0.00000000000E+00 0.  1.
          6    1    1    2  501    0 -0.65735951403E+02 -0.39701843442E+02 -0.48213349112E+02  0.19532275523E+03  0.17300000000E+03 0.  1.
         -6    1    1    2    0  502  0.65735951403E+02  0.39701843442E+02  0.87678663613E+02  0.20860009524E+03  0.17300000000E+03 0.  1.
</event>
<event>
 4    1  0.5758867E+000  0.1000000E+03  0.7546771E-02  0.1280296E+00
         21   -1    0    0  503  502  0.00000000000E+00  0.00000000000E+00  0.24667937775E+03  0.24667937775E+03  0.00000000000E+00 0.  1.
         21   -1    0    0  501  503 -0.00000000000E+00 -0.00000000000E+00 -0.34221933484E+03  0.34221933484E+03  0.00000000000E+00 0.  1.
          6    1    1    2  501    0 -0.13863014380E+03 -0.97169345656E+02 -0.21064251050E+03  0.32087297445E+03  0.17300000000E+03 0.  1.
         -6    1    1    2    0  502  0.13863014380E+03  0.97169345656E+02  0.11510255341E+03  0.26802573814E+03  0.17300000000E+03 0.  1.
</event>
<event>
 4    1  0.5758867E+000  0.1000000E+03  0.7546771E-02  0.1280296E+00
         21   -1    0    0  503  502  0.00000000000E+00  0.00000000000E+00  0.28051329033E+03  0.28051329033E+03  0.00000000000E+00 0.  1.
         21   -1    0    0  501  503 -0.00000000000E+00 -0.00000000000E+00 -0.23713823747E+03  0.23713823747E+03  0.00000000000E+00 0.  1.
          6    1    1    2  501    0 -0.13568784116E+03 -0.71103001216E+02 -0.93279429263E+02  0.24919245362E+03  0.17300000000E+03 0.  1.
         -6    1    1    2    0  502  0.13568784116E+03  0.71103001216E+02  0.13665448213E+03  0.26845907417E+03  0.17300000000E+03 0.  1.
</event>
<event>
 4    1  0.5758867E+000  0.1000000E+03  0.7546771E-02  0.1280296E+00
         21   -1    0    0  503  502  0.00000000000E+00  0.00000000000E+00  0.97546052252E+03  0.97546052252E+03  0.00000000000E+00 0.  1.
         21   -1    0    0  501  503 -0.00000000000E+00 -0.00000000000E+00 -0.56325380200E+02  0.56325380200E+02  0.00000000000E+00 0.  1.
          6    1    1    2  501    0 -0.89027721881E+02 -0.10618769560E+03  0.29177169637E+03  0.36641709125E+03  0.17300000000E+03 0.  1.
         -6    1    1    2    0  502  0.89027721881E+02  0.10618769560E+03  0.62736344595E+03  0.66536881147E+03  0.17300000000E+03 0.  1.
</event>
<event>
 4    1  0.5758867E+000  0.1000000E+03  0.7546771E-02  0.1280296E+00
         21   -1    0    0  501  502  0.00000000000E+00  0.00000000000E+00  0.61755535429E+02  0.61755535429E+02  0.00000000000E+00 0.  1.
         21   -1    0    0  502  503 -0.00000000000E+00 -0.00000000000E+00 -0.54110465104E+03  0.54110465104E+03  0.00000000000E+00 0.  1.
          6    1    1    2  501    0 -0.56131342976E+02  0.61401511848E+01 -0.21117208273E+03  0.27876706700E+03  0.17300000000E+03 0.  1.
         -6    1    1    2    0  503  0.56131342976E+02 -0.61401511848E+01 -0.26817703288E+03  0.32409311947E+03  0.17300000000E+03 0.  1.
</event>
<event>
 4    1  0.5758867E+000  0.1000000E+03  0.7546771E-02  0.1280296E+00
         21   -1    0    0  501  502  0.00000000000E+00  0.00000000000E+00  0.13771411403E+04  0.13771411403E+04  0.00000000000E+00 0.  1.
         21   -1    0    0  502  503 -0.00000000000E+00 -0.00000000000E+00 -0.47211545758E+02  0.47211545758E+02  0.00000000000E+00 0.  1.
          6    1    1    2  501    0  0.17875717316E+02  0.45222906819E+02  0.11702107186E+04  0.11839285360E+04  0.17300000000E+03 0.  1.
         -6    1    1    2    0  503 -0.17875717316E+02 -0.45222906819E+02  0.15971887595E+03  0.24042415000E+03  0.17300000000E+03 0.  1.
</event>
<event>
 4    1  0.5758867E+000  0.1000000E+03  0.7546771E-02  0.1280296E+00
         21   -1    0    0  503  502  0.00000000000E+00  0.00000000000E+00  0.31823883389E+03  0.31823883389E+03  0.00000000000E+00 0. -1.
         21   -1    0    0  501  503 -0.00000000000E+00 -0.00000000000E+00 -0.29855845961E+03  0.29855845961E+03  0.00000000000E+00 0.  1.
          6    1    1    2  501    0  0.10175828686E+03  0.81131471647E+01 -0.22408080865E+03  0.30093484495E+03  0.17300000000E+03 0.  1.
         -6    1    1    2    0  502 -0.10175828686E+03 -0.81131471647E+01  0.24376118292E+03  0.31586244855E+03  0.17300000000E+03 0. -1.
</event>
<event>
 4    1  0.5758867E+000  0.1000000E+03  0.7546771E-02  0.1280296E+00
         21   -1    0    0  503  502  0.00000000000E+00  0.00000000000E+00  0.24794781867E+03  0.24794781867E+03  0.00000000000E+00 0. -1.
         21   -1    0    0  501  503 -0.00000000000E+00 -0.00000000000E+00 -0.12406574749E+03  0.12406574749E+03  0.00000000000E+00 0.  1.
          6    1    1    2  501    0 -0.14412860039E+02 -0.91523045738E+01  0.37266087831E+02  0.17778992242E+03  0.17300000000E+03 0.  1.
         -6    1    1    2    0  502  0.14412860039E+02  0.91523045738E+01  0.86615983351E+02  0.19422364373E+03  0.17300000000E+03 0. -1.
</event>
<event>
 4    1  0.5758867E+000  0.1000000E+03  0.7546771E-02  0.1280296E+00
         21   -1    0    0  503  502  0.00000000000E+00  0.00000000000E+00  0.44417365532E+03  0.44417365532E+03  0.00000000000E+00 0. -1.
         21   -1    0    0  501  503 -0.00000000000E+00 -0.00000000000E+00 -0.83158648990E+02  0.83158648990E+02  0.00000000000E+00 0.  1.
          6    1    1    2  501    0 -0.32746977343E+02  0.11985410513E+02  0.28491544682E+03  0.33514448589E+03  0.17300000000E+03 0.  1.
         -6    1    1    2    0  502  0.32746977343E+02 -0.11985410513E+02  0.76099559516E+02  0.19218781842E+03  0.17300000000E+03 0. -1.
</event>
<event>
 4    1  0.5758867E+000  0.1000000E+03  0.7546771E-02  0.1280296E+00
         21   -1    0    0  503  502  0.00000000000E+00  0.00000000000E+00  0.38731789221E+03  0.38731789221E+03  0.00000000000E+00 0. -1.
         21   -1    0    0  501  503 -0.00000000000E+00 -0.00000000000E+00 -0.92936460717E+02  0.92936460717E+02  0.00000000000E+00 0.  1.
          6    1    1    2  501    0 -0.24404543700E+02 -0.25784346932E+02  0.59444026338E+02  0.18634110273E+03  0.17300000000E+03 0. -1.
         -6    1    1    2    0  502  0.24404543700E+02  0.25784346932E+02  0.23493740515E+03  0.29391325019E+03  0.17300000000E+03 0.  1.
</event>
<event>
 4    1  0.5758867E+000  0.1000000E+03  0.7546771E-02  0.1280296E+00
         21   -1    0    0  501  502  0.00000000000E+00  0.00000000000E+00  0.52812589811E+02  0.52812589811E+02  0.00000000000E+00 0.  1.
         21   -1    0    0  502  503 -0.00000000000E+00 -0.00000000000E+00 -0.62087701670E+03  0.62087701670E+03  0.00000000000E+00 0.  1.
          6    1    1    2  501    0  0.45062166533E+02  0.37874404887E+01 -0.23088858442E+03  0.29203335764E+03  0.17300000000E+03 0.  1.
         -6    1    1    2    0  503 -0.45062166533E+02 -0.37874404887E+01 -0.33717584247E+03  0.38165624887E+03  0.17300000000E+03 0.  1.
</event>
<event>
 4    1  0.5758867E+000  0.1000000E+03  0.7546771E-02  0.1280296E+00
         21   -1    0    0  501  502  0.00000000000E+00  0.00000000000E+00  0.94079113186E+02  0.94079113186E+02  0.00000000000E+00 0.  1.
         21   -1    0    0  502  503 -0.00000000000E+00 -0.00000000000E+00 -0.79433809446E+03  0.79433809446E+03  0.00000000000E+00 0.  1.
          6    1    1    2  501    0  0.64998339816E+02  0.19106449206E+03 -0.45381040988E+03  0.52593090080E+03  0.17300000000E+03 0.  1.
         -6    1    1    2    0  503 -0.64998339816E+02 -0.19106449206E+03 -0.24644857140E+03  0.36248630684E+03  0.17300000000E+03 0.  1.
</event>
<event>
 4    1  0.5758867E+000  0.1000000E+03  0.7546771E-02  0.1280296E+00
         21   -1    0    0  501  502  0.00000000000E+00  0.00000000000E+00  0.31104284010E+03  0.31104284010E+03  0.00000000000E+00 0.  1.
         21   -1    0    0  502  503 -0.00000000000E+00 -0.00000000000E+00 -0.33991335055E+03  0.33991335055E+03  0.00000000000E+00 0. -1.
          6    1    1    2  501    0  0.17120049638E+03  0.79357459987E+02  0.18624012943E+03  0.31657795600E+03  0.17300000000E+03 0. -1.
         -6    1    1    2    0  503 -0.17120049638E+03 -0.79357459987E+02 -0.21511063988E+03  0.33437823465E+03  0.17300000000E+03 0.  1.
</event>
<event>
 4    1  0.5758867E+000  0.1000000E+03  0.7546771E-02  0.1280296E+00
         21   -1    0    0  501  502  0.00000000000E+00  0.00000000000E+00  0.27583082601E+03  0.27583082601E+03  0.00000000000E+00 0.  1.
         21   -1    0    0  502  503 -0.00000000000E+00 -0.00000000000E+00 -0.45346474421E+03  0.45346474421E+03  0.00000000000E+00 0. -1.
          6    1    1    2  501    0 -0.35376129000E+02  0.17623518223E+03  0.16964661830E+03  0.30169402556E+03  0.17300000000E+03 0. -1.
         -6    1    1    2    0  503  0.35376129000E+02 -0.17623518223E+03 -0.34728053650E+03  0.42760154466E+03  0.17300000000E+03 0.  1.
</event>
<event>
 4    1  0.5758867E+000  0.1000000E+03  0.7546771E-02  0.1280296E+00
         21   -1    0    0  501  502  0.00000000000E+00  0.00000000000E+00  0.77861533738E+03  0.77861533738E+03  0.00000000000E+00 0.  1.
         21   -1    0    0  502  503 -0.00000000000E+00 -0.00000000000E+00 -0.11011931265E+03  0.11011931265E+03  0.00000000000E+00 0. -1.
          6    1    1    2  501    0 -0.17670043770E+03 -0.14421471583E+03  0.24081375706E+03  0.37408714832E+03  0.17300000000E+03 0. -1.
         -6    1    1    2    0  503  0.17670043770E+03  0.14421471583E+03  0.42768226766E+03  0.51464750171E+03  0.17300000000E+03 0.  1.
</event>
<event>
 4    1  0.5758867E+000  0.1000000E+03  0.7546771E-02  0.1280296E+00
         21   -1    0    0  503  502  0.00000000000E+00  0.00000000000E+00  0.17436858657E+03  0.17436858657E+03  0.00000000000E+00 0. -1.
         21   -1    0    0  501  503 -0.00000000000E+00 -0.00000000000E+00 -0.22070730316E+03  0.22070730316E+03  0.00000000000E+00 0. -1.
          6    1    1    2  501    0  0.41820968026E+00 -0.50395208770E+02 -0.10126852406E+03  0.20669824850E+03  0.17300000000E+03 0. -1.
         -6    1    1    2    0  502 -0.41820968026E+00  0.50395208770E+02  0.54929807472E+02  0.18837764123E+03  0.17300000000E+03 0. -1.
</event>
<event>
 4    1  0.5758867E+000  0.1000000E+03  0.7546771E-02  0.1280296E+00
         21   -1    0    0  503  502  0.00000000000E+00  0.00000000000E+00  0.96144278599E+03  0.96144278599E+03  0.00000000000E+00 0. -1.
         21   -1    0    0  501  503 -0.00000000000E+00 -0.00000000000E+00 -0.45684723363E+02  0.45684723363E+02  0.00000000000E+00 0. -1.
          6    1    1    2  501    0 -0.29207425294E+02 -0.44848737834E+02  0.20439521748E+03  0.27307670700E+03  0.17300000000E+03 0. -1.
         -6    1    1    2    0  502  0.29207425294E+02  0.44848737834E+02  0.71136284515E+03  0.73405080236E+03  0.17300000000E+03 0. -1.
</event>
<event>
 4    1  0.5758867E+000  0.1000000E+03  0.7546771E-02  0.1280296E+00
         21   -1    0    0  503  502  0.00000000000E+00  0.00000000000E+00  0.14424236228E+03  0.14424236228E+03  0.00000000000E+00 0. -1.
         21   -1    0    0  501  503 -0.00000000000E+00 -0.00000000000E+00 -0.41251788486E+03  0.41251788486E+03  0.00000000000E+00 0. -1.
          6    1    1    2  501    0 -0.16807304666E+03 -0.24184948335E+02 -0.10309118597E+03  0.26342029794E+03  0.17300000000E+03 0. -1.
         -6    1    1    2    0  502  0.16807304666E+03  0.24184948335E+02 -0.16518433661E+03  0.29333994921E+03  0.17300000000E+03 0. -1.
</event>
<event>
 4    1  0.5758867E+000  0.1000000E+03  0.7546771E-02  0.1280296E+00
         21   -1    0    0  503  502  0.00000000000E+00  0.00000000000E+00  0.14734625751E+03  0.14734625751E+03  0.00000000000E+00 0.  1.
         21   -1    0    0  501  503 -0.00000000000E+00 -0.00000000000E+00 -0.38702001799E+03  0.38702001799E+03  0.00000000000E+00 0.  1.
          6    1    1    2  501    0 -0.93574297170E+02 -0.61837955097E+02 -0.25464289263E+03  0.32764627962E+03  0.17300000000E+03 0.  1.
         -6    1    1    2    0  502  0.93574297170E+02  0.61837955097E+02  0.14969132148E+02  0.20671999588E+03  0.17300000000E+03 0.  1.
</event>
<event>
 4    1  0.5758867E+000  0.1000000E+03  0.7546771E-02  0.1280296E+00
         21   -1    0    0  501  502  0.00000000000E+00  0.00000000000E+00  0.16998085936E+03  0.16998085936E+03  0.00000000000E+00 0. -1.
         21   -1    0    0  502  503 -0.00000000000E+00 -0.00000000000E+00 -0.88443622406E+03  0.88443622406E+03  0.00000000000E+00 0. -1.
          6    1    1    2  501    0  0.13541564918E+03  0.35450050661E+02  0.74499963704E+02  0.23467711590E+03  0.17300000000E+03 0. -1.
         -6    1    1    2    0  503 -0.13541564918E+03 -0.35450050661E+02 -0.78895532840E+03  0.81973996752E+03  0.17300000000E+03 0. -1.
</event>
<event>
 4    1  0.5758867E+000  0.1000000E+03  0.7546771E-02  0.1280296E+00
         21   -1    0    0  501  502  0.00000000000E+00  0.00000000000E+00  0.30727561485E+03  0.30727561485E+03  0.00000000000E+00 0. -1.
         21   -1    0    0  502  503 -0.00000000000E+00 -0.00000000000E+00 -0.32834910409E+03  0.32834910409E+03  0.00000000000E+00 0. -1.
          6    1    1    2  501    0  0.25749387505E+02  0.87528400522E+02  0.23988160585E+03  0.30950999448E+03  0.17300000000E+03 0. -1.
         -6    1    1    2    0  503 -0.25749387505E+02 -0.87528400522E+02 -0.26095509509E+03  0.32611472446E+03  0.17300000000E+03 0. -1.
</event>
<event>
 4    1  0.5758867E+000  0.1000000E+03  0.7546771E-02  0.1280296E+00
         21   -1    0    0  501  502  0.00000000000E+00  0.00000000000E+00  0.91676504183E+02  0.91676504183E+02  0.00000000000E+00 0. -1.
         21   -1    0    0  502  503 -0.00000000000E+00 -0.00000000000E+00 -0.10067299734E+04  0.10067299734E+04  0.00000000000E+00 0. -1.
          6    1    1    2  501    0  0.86095388535E+02 -0.67144713972E+02 -0.51503538060E+02  0.21095602142E+03  0.17300000000E+03 0. -1.
         -6    1    1    2    0  503 -0.86095388535E+02  0.67144713972E+02 -0.86354993116E+03  0.88745045617E+03  0.17300000000E+03 0. -1.
</event>
<event>
 4    1  0.5758867E+000  0.1000000E+03  0.7546771E-02  0.1280296E+00
         21   -1    0    0  501  502  0.00000000000E+00  0.00000000000E+00  0.51052058469E+02  0.51052058469E+02  0.00000000000E+00 0.  1.
         21   -1    0    0  502  503 -0.00000000000E+00 -0.00000000000E+00 -0.13627213780E+04  0.13627213780E+04  0.00000000000E+00 0. -1.
          6    1    1    2  501    0 -0.69170366224E+02 -0.12543037854E+03 -0.28522020857E+03  0.36303840954E+03  0.17300000000E+03 0.  1.
         -6    1    1    2    0  503  0.69170366224E+02  0.12543037854E+03 -0.10264491110E+04  0.10507350269E+04  0.17300000000E+03 0. -1.
</event>
<event>
 4    1  0.5758867E+000  0.1000000E+03  0.7546771E-02  0.1280296E+00
         21   -1    0    0  501  502  0.00000000000E+00  0.00000000000E+00  0.77573734615E+02  0.77573734615E+02  0.00000000000E+00 0. -1.
         21   -1    0    0  502  503 -0.00000000000E+00 -0.00000000000E+00 -0.83999025828E+03  0.83999025828E+03  0.00000000000E+00 0. -1.
          6    1    1    2  501    0  0.18250138281E+03 -0.38284619928E+02 -0.41974331874E+03  0.49080130448E+03  0.17300000000E+03 0. -1.
         -6    1    1    2    0  503 -0.18250138281E+03  0.38284619928E+02 -0.34267320493E+03  0.42676268842E+03  0.17300000000E+03 0. -1.
</event>
<event>
 4    1  0.5758867E+000  0.1000000E+03  0.7546771E-02  0.1280296E+00
         21   -1    0    0  501  502  0.00000000000E+00  0.00000000000E+00  0.21198502127E+02  0.21198502127E+02  0.00000000000E+00 0. -1.
         21   -1    0    0  502  503 -0.00000000000E+00 -0.00000000000E+00 -0.36971881398E+04  0.36971881398E+04  0.00000000000E+00 0.  1.
          6    1    1    2  501    0  0.53145665866E+02 -0.14583303860E+03 -0.80160687555E+03  0.83462226179E+03  0.17300000000E+03 0. -1.
         -6    1    1    2    0  503 -0.53145665866E+02  0.14583303860E+03 -0.28743827621E+04  0.28837643801E+04  0.17300000000E+03 0.  1.
</event>
<event>
 4    1  0.5758867E+000  0.1000000E+03  0.7546771E-02  0.1280296E+00
         21   -1    0    0  503  502  0.00000000000E+00  0.00000000000E+00  0.31908558121E+02  0.31908558121E+02  0.00000000000E+00 0. -1.
         21   -1    0    0  501  503 -0.00000000000E+00 -0.00000000000E+00 -0.16984763126E+04  0.16984763126E+04  0.00000000000E+00 0. -1.
          6    1    1    2  501    0 -0.24631152970E+02  0.67221949473E+02 -0.31910202170E+03  0.36997376183E+03  0.17300000000E+03 0. -1.
         -6    1    1    2    0  502  0.24631152970E+02 -0.67221949473E+02 -0.13474657328E+04  0.13604111089E+04  0.17300000000E+03 0. -1.
</event>
<event>
 4    1  0.5758867E+000  0.1000000E+03  0.7546771E-02  0.1280296E+00
         21   -1    0    0  503  502  0.00000000000E+00  0.00000000000E+00  0.16587687112E+03  0.16587687112E+03  0.00000000000E+00 0. -1.
         21   -1    0    0  501  503 -0.00000000000E+00 -0.00000000000E+00 -0.26933026529E+03  0.26933026529E+03  0.00000000000E+00 0. -1.
          6    1    1    2  501    0 -0.33124246938E+02  0.11603240081E+03 -0.65764619418E+02  0.22094053259E+03  0.17300000000E+03 0. -1.
         -6    1    1    2    0  502  0.33124246938E+02 -0.11603240081E+03 -0.37688774757E+02  0.21426660383E+03  0.17300000000E+03 0. -1.
</event>
<event>
 4    1  0.5758867E+000  0.1000000E+03  0.7546771E-02  0.1280296E+00
         21   -1    0    0  501  502  0.00000000000E+00  0.00000000000E+00  0.11592146588E+03  0.11592146588E+03  0.00000000000E+00 0.  1.
         21   -1    0    0  502  503 -0.00000000000E+00 -0.00000000000E+00 -0.83986291816E+03  0.83986291816E+03  0.00000000000E+00 0. -1.
          6    1    1    2  501    0 -0.92036837310E+02 -0.10567009108E+02  0.95686558698E+01  0.19647646240E+03  0.17300000000E+03 0.  1.
         -6    1    1    2    0  503  0.92036837310E+02  0.10567009108E+02 -0.73351010815E+03  0.75930792164E+03  0.17300000000E+03 0. -1.
</event>
<event>
 4    1  0.5758867E+000  0.1000000E+03  0.7546771E-02  0.1280296E+00
         21   -1    0    0  501  502  0.00000000000E+00  0.00000000000E+00  0.44078181808E+02  0.44078181808E+02  0.00000000000E+00 0.  1.
         21   -1    0    0  502  503 -0.00000000000E+00 -0.00000000000E+00 -0.10073960352E+04  0.10073960352E+04  0.00000000000E+00 0. -1.
          6    1    1    2  501    0 -0.18702144951E+02  0.11673172745E+03 -0.53739787928E+03  0.57680286674E+03  0.17300000000E+03 0.  1.
         -6    1    1    2    0  503  0.18702144951E+02 -0.11673172745E+03 -0.42591997409E+03  0.47467135025E+03  0.17300000000E+03 0. -1.
</event>
<event>
 4    1  0.5758867E+000  0.1000000E+03  0.7546771E-02  0.1280296E+00
         21   -1    0    0  501  502  0.00000000000E+00  0.00000000000E+00  0.14781169532E+03  0.14781169532E+03  0.00000000000E+00 0.  1.
         21   -1    0    0  502  503 -0.00000000000E+00 -0.00000000000E+00 -0.26603942166E+03  0.26603942166E+03  0.00000000000E+00 0. -1.
          6    1    1    2  501    0 -0.38930388844E+01 -0.89251102703E+02 -0.19877907274E+02  0.19571675013E+03  0.17300000000E+03 0.  1.
         -6    1    1    2    0  503  0.38930388844E+01  0.89251102703E+02 -0.98349819070E+02  0.21813436684E+03  0.17300000000E+03 0. -1.
</event>
<event>
 4    1  0.5758867E+000  0.1000000E+03  0.7546771E-02  0.1280296E+00
         21   -1    0    0  501  502  0.00000000000E+00  0.00000000000E+00  0.31185030040E+03  0.31185030040E+03  0.00000000000E+00 0.  1.
         21   -1    0    0  502  503 -0.00000000000E+00 -0.00000000000E+00 -0.13198884742E+03  0.13198884742E+03  0.00000000000E+00 0. -1.
          6    1    1    2  501    0  0.98242639057E+02  0.32423024215E+02  0.11508651035E+03  0.23211370811E+03  0.17300000000E+03 0.  1.
         -6    1    1    2    0  503 -0.98242639057E+02 -0.32423024215E+02  0.64774942627E+02  0.21172543971E+03  0.17300000000E+03 0. -1.
</event>
<event>
 4    1  0.5758867E+000  0.1000000E+03  0.7546771E-02  0.1280296E+00
         21   -1    0    0  501  502  0.00000000000E+00  0.00000000000E+00  0.20937086268E+03  0.20937086268E+03  0.00000000000E+00 0.  1.
         21   -1    0    0  502  503 -0.00000000000E+00 -0.00000000000E+00 -0.29222776410E+03  0.29222776410E+03  0.00000000000E+00 0. -1.
          6    1    1    2  501    0 -0.12889839808E+03  0.21414063830E+02  0.79316896610E+02  0.23085391321E+03  0.17300000000E+03 0.  1.
         -6    1    1    2    0  503  0.12889839808E+03 -0.21414063830E+02 -0.16217379803E+03  0.27074471357E+03  0.17300000000E+03 0. -1.
</event>
<event>
 4    1  0.5758867E+000  0.1000000E+03  0.7546771E-02  0.1280296E+00
         21   -1    0    0  501  502  0.00000000000E+00  0.00000000000E+00  0.13752618481E+03  0.13752618481E+03  0.00000000000E+00 0.  1.
         21   -1    0    0  502  503 -0.00000000000E+00 -0.00000000000E+00 -0.33681584679E+03  0.33681584679E+03  0.00000000000E+00 0. -1.
          6    1    1    2  501    0 -0.12639618816E+03  0.20395723206E+02 -0.99786328805E+02  0.23723046458E+03  0.17300000000E+03 0.  1.
         -6    1    1    2    0  503  0.12639618816E+03 -0.20395723206E+02 -0.99503333176E+02  0.23711156703E+03  0.17300000000E+03 0. -1.
</event>
<event>
 4    1  0.5758867E+000  0.1000000E+03  0.7546771E-02  0.1280296E+00
         21   -1    0    0  503  502  0.00000000000E+00  0.00000000000E+00  0.10459737205E+04  0.10459737205E+04  0.00000000000E+00 0. -1.
         21   -1    0    0  501  503 -0.00000000000E+00 -0.00000000000E+00 -0.13468612385E+04  0.13468612385E+04  0.00000000000E+00 0.  1.
          6    1    1    2  501    0 -0.45566061174E+03  0.61667631679E+03 -0.10469052918E+04  0.13091432171E+04  0.17300000000E+03 0. -1.
         -6    1    1    2    0  502  0.45566061174E+03 -0.61667631679E+03  0.74601777384E+03  0.10836917420E+04  0.17300000000E+03 0. -1.
</event>
<event>
 4    1  0.5758867E+000  0.1000000E+03  0.7546771E-02  0.1280296E+00
         21   -1    0    0  503  502  0.00000000000E+00  0.00000000000E+00  0.34363809041E+03  0.34363809041E+03  0.00000000000E+00 0. -1.
         21   -1    0    0  501  503 -0.00000000000E+00 -0.00000000000E+00 -0.27557794429E+03  0.27557794429E+03  0.00000000000E+00 0.  1.
          6    1    1    2  501    0 -0.24575991983E+03 -0.40355936336E+02 -0.18668016405E+02  0.30381579062E+03  0.17300000000E+03 0. -1.
         -6    1    1    2    0  502  0.24575991983E+03  0.40355936336E+02  0.86728162528E+02  0.31540024408E+03  0.17300000000E+03 0. -1.
</event>
<event>
 4    1  0.5758867E+000  0.1000000E+03  0.7546771E-02  0.1280296E+00
         21   -1    0    0  503  502  0.00000000000E+00  0.00000000000E+00  0.26149269722E+03  0.26149269722E+03  0.00000000000E+00 0. -1.
         21   -1    0    0  501  503 -0.00000000000E+00 -0.00000000000E+00 -0.14690320295E+03  0.14690320295E+03  0.00000000000E+00 0.  1.
          6    1    1    2  501    0 -0.70643370061E+02 -0.58994377545E+02  0.53355988589E+02  0.20309279612E+03  0.17300000000E+03 0. -1.
         -6    1    1    2    0  502  0.70643370061E+02  0.58994377545E+02  0.61233505690E+02  0.20530310405E+03  0.17300000000E+03 0. -1.
</event>
<event>
 4    1  0.5758867E+000  0.1000000E+03  0.7546771E-02  0.1280296E+00
         21   -1    0    0  503  502  0.00000000000E+00  0.00000000000E+00  0.44881940893E+02  0.44881940893E+02  0.00000000000E+00 0.  1.
         21   -1    0    0  501  503 -0.00000000000E+00 -0.00000000000E+00 -0.21600756263E+04  0.21600756263E+04  0.00000000000E+00 0.  1.
          6    1    1    2  501    0  0.58322209565E+02  0.73315968655E+02 -0.19121136416E+04  0.19222081807E+04  0.17300000000E+03 0. -1.
         -6    1    1    2    0  502 -0.58322209565E+02 -0.73315968655E+02 -0.20308004377E+03  0.28274938650E+03  0.17300000000E+03 0. -1.
</event>
<event>
 4    1  0.5758867E+000  0.1000000E+03  0.7546771E-02  0.1280296E+00
         21   -1    0    0  503  502  0.00000000000E+00  0.00000000000E+00  0.45527261609E+03  0.45527261609E+03  0.00000000000E+00 0.  1.
         21   -1    0    0  501  503 -0.00000000000E+00 -0.00000000000E+00 -0.86408625934E+03  0.86408625934E+03  0.00000000000E+00 0.  1.
          6    1    1    2  501    0  0.51364251418E+02  0.35829504493E+03 -0.71149729412E+03  0.81680537773E+03  0.17300000000E+03 0. -1.
         -6    1    1    2    0  502 -0.51364251418E+02 -0.35829504493E+03  0.30268365087E+03  0.50255349770E+03  0.17300000000E+03 0. -1.
</event>
<event>
 4    1  0.5758867E+000  0.1000000E+03  0.7546771E-02  0.1280296E+00
         21   -1    0    0  503  502  0.00000000000E+00  0.00000000000E+00  0.17285901602E+03  0.17285901602E+03  0.00000000000E+00 0.  1.
         21   -1    0    0  501  503 -0.00000000000E+00 -0.00000000000E+00 -0.21023477722E+03  0.21023477722E+03  0.00000000000E+00 0.  1.
          6    1    1    2  501    0  0.63628703307E+02 -0.29899788564E+02 -0.57203956564E+02  0.19530463867E+03  0.17300000000E+03 0. -1.
         -6    1    1    2    0  502 -0.63628703307E+02  0.29899788564E+02  0.19828195359E+02  0.18778915456E+03  0.17300000000E+03 0. -1.
</event>
<event>
 4    1  0.5758867E+000  0.1000000E+03  0.7546771E-02  0.1280296E+00
         21   -1    0    0  501  502  0.00000000000E+00  0.00000000000E+00  0.93642239489E+03  0.93642239489E+03  0.00000000000E+00 0. -1.
         21   -1    0    0  502  503 -0.00000000000E+00 -0.00000000000E+00 -0.38282981544E+02  0.38282981544E+02  0.00000000000E+00 0. -1.
          6    1    1    2  501    0 -0.21412676777E+02  0.69466775477E+02  0.51397811077E+03  0.54716234700E+03  0.17300000000E+03 0. -1.
         -6    1    1    2    0  503  0.21412676777E+02 -0.69466775477E+02  0.38416130258E+03  0.42754302944E+03  0.17300000000E+03 0. -1.
</event>
<event>
 4    1  0.5758867E+000  0.1000000E+03  0.7546771E-02  0.1280296E+00
         21   -1    0    0  501  502  0.00000000000E+00  0.00000000000E+00  0.24418064235E+03  0.24418064235E+03  0.00000000000E+00 0. -1.
         21   -1    0    0  502  503 -0.00000000000E+00 -0.00000000000E+00 -0.35876504324E+03  0.35876504324E+03  0.00000000000E+00 0. -1.
          6    1    1    2  501    0 -0.35991667588E+02 -0.76609155030E+02  0.17162409169E+03  0.25796936178E+03  0.17300000000E+03 0. -1.
         -6    1    1    2    0  503  0.35991667588E+02  0.76609155030E+02 -0.28620849257E+03  0.34497632381E+03  0.17300000000E+03 0. -1.
</event>
<event>
 4    1  0.5758867E+000  0.1000000E+03  0.7546771E-02  0.1280296E+00
         21   -1    0    0  501  502  0.00000000000E+00  0.00000000000E+00  0.56049668360E+02  0.56049668360E+02  0.00000000000E+00 0. -1.
         21   -1    0    0  502  503 -0.00000000000E+00 -0.00000000000E+00 -0.91297333552E+03  0.91297333552E+03  0.00000000000E+00 0. -1.
          6    1    1    2  501    0 -0.43056679777E+02 -0.70562598809E+02 -0.17135185996E+03  0.25714474122E+03  0.17300000000E+03 0. -1.
         -6    1    1    2    0  503  0.43056679777E+02  0.70562598809E+02 -0.68557180720E+03  0.71187826266E+03  0.17300000000E+03 0. -1.
</event>
<event>
 4    1  0.5758867E+000  0.1000000E+03  0.7546771E-02  0.1280296E+00
         21   -1    0    0  503  502  0.00000000000E+00  0.00000000000E+00  0.20878810795E+03  0.20878810795E+03  0.00000000000E+00 0.  1.
         21   -1    0    0  501  503 -0.00000000000E+00 -0.00000000000E+00 -0.23197192308E+03  0.23197192308E+03  0.00000000000E+00 0. -1.
          6    1    1    2  501    0 -0.11625263646E+03  0.61122840797E+02 -0.47042985462E+02  0.22224472914E+03  0.17300000000E+03 0.  1.
         -6    1    1    2    0  502  0.11625263646E+03 -0.61122840797E+02  0.23859170332E+02  0.21851530189E+03  0.17300000000E+03 0. -1.
</event>
<event>
 4    1  0.5758867E+000  0.1000000E+03  0.7546771E-02  0.1280296E+00
         21   -1    0    0  503  502  0.00000000000E+00  0.00000000000E+00  0.77298523013E+03  0.77298523013E+03  0.00000000000E+00 0.  1.
         21   -1    0    0  501  503 -0.00000000000E+00 -0.00000000000E+00 -0.90756835133E+02  0.90756835133E+02  0.00000000000E+00 0. -1.
          6    1    1    2  501    0 -0.36556791836E+02 -0.16723589093E+03  0.17072224083E+03  0.29728660541E+03  0.17300000000E+03 0.  1.
         -6    1    1    2    0  502  0.36556791836E+02  0.16723589093E+03  0.51150615417E+03  0.56645545986E+03  0.17300000000E+03 0. -1.
</event>
<event>
 4    1  0.5758867E+000  0.1000000E+03  0.7546771E-02  0.1280296E+00
         21   -1    0    0  503  502  0.00000000000E+00  0.00000000000E+00  0.10759260017E+04  0.10759260017E+04  0.00000000000E+00 0.  1.
         21   -1    0    0  501  503 -0.00000000000E+00 -0.00000000000E+00 -0.72973724485E+02  0.72973724485E+02  0.00000000000E+00 0. -1.
          6    1    1    2  501    0 -0.39355877345E+02  0.91969010513E+02  0.98807009646E+02  0.22293274576E+03  0.17300000000E+03 0.  1.
         -6    1    1    2    0  502  0.39355877345E+02 -0.91969010513E+02  0.90414526761E+03  0.92596698047E+03  0.17300000000E+03 0. -1.
</event>
<event>
 4    1  0.5758867E+000  0.1000000E+03  0.7546771E-02  0.1280296E+00
         21   -1    0    0  501  502  0.00000000000E+00  0.00000000000E+00  0.38778272628E+03  0.38778272628E+03  0.00000000000E+00 0. -1.
         21   -1    0    0  502  503 -0.00000000000E+00 -0.00000000000E+00 -0.72006819799E+03  0.72006819799E+03  0.00000000000E+00 0.  1.
          6    1    1    2  501    0 -0.39074387081E+03  0.70541164218E+02  0.15119573859E+03  0.45874391526E+03  0.17300000000E+03 0. -1.
         -6    1    1    2    0  503  0.39074387081E+03 -0.70541164218E+02 -0.48348121030E+03  0.64910700900E+03  0.17300000000E+03 0.  1.
</event>
<event>
 4    1  0.5758867E+000  0.1000000E+03  0.7546771E-02  0.1280296E+00
         21   -1    0    0  501  502  0.00000000000E+00  0.00000000000E+00  0.86126288116E+02  0.86126288116E+02  0.00000000000E+00 0. -1.
         21   -1    0    0  502  503 -0.00000000000E+00 -0.00000000000E+00 -0.63956227584E+03  0.63956227584E+03  0.00000000000E+00 0.  1.
          6    1    1    2  501    0  0.39902998796E+02 -0.57512236349E+02 -0.56694660083E+02  0.19504663833E+03  0.17300000000E+03 0. -1.
         -6    1    1    2    0  503 -0.39902998796E+02  0.57512236349E+02 -0.49674132765E+03  0.53064192563E+03  0.17300000000E+03 0.  1.
</event>
<event>
 4    1  0.5758867E+000  0.1000000E+03  0.7546771E-02  0.1280296E+00
         21   -1    0    0  503  502  0.00000000000E+00  0.00000000000E+00  0.20232893503E+04  0.20232893503E+04  0.00000000000E+00 0. -1.
         21   -1    0    0  501  503 -0.00000000000E+00 -0.00000000000E+00 -0.27399694744E+02  0.27399694744E+02  0.00000000000E+00 0. -1.
          6    1    1    2  501    0  0.10357028778E+03 -0.56489995017E+02  0.52910914030E+03  0.56903726275E+03  0.17300000000E+03 0. -1.
         -6    1    1    2    0  502 -0.10357028778E+03  0.56489995017E+02  0.14667805152E+04  0.14816517823E+04  0.17300000000E+03 0. -1.
</event>
<event>
 4    1  0.5758867E+000  0.1000000E+03  0.7546771E-02  0.1280296E+00
         21   -1    0    0  503  502  0.00000000000E+00  0.00000000000E+00  0.27911946487E+04  0.27911946487E+04  0.00000000000E+00 0. -1.
         21   -1    0    0  501  503 -0.00000000000E+00 -0.00000000000E+00 -0.46182814412E+02  0.46182814412E+02  0.00000000000E+00 0. -1.
          6    1    1    2  501    0  0.16963981809E+03  0.23365930029E+03  0.87894537018E+03  0.94119514462E+03  0.17300000000E+03 0. -1.
         -6    1    1    2    0  502 -0.16963981809E+03 -0.23365930029E+03  0.18660664641E+04  0.18961823185E+04  0.17300000000E+03 0. -1.
</event>
<event>
 4    1  0.5758867E+000  0.1000000E+03  0.7546771E-02  0.1280296E+00
         21   -1    0    0  503  502  0.00000000000E+00  0.00000000000E+00  0.88064530104E+02  0.88064530104E+02  0.00000000000E+00 0. -1.
         21   -1    0    0  501  503 -0.00000000000E+00 -0.00000000000E+00 -0.35938032109E+03  0.35938032109E+03  0.00000000000E+00 0. -1.
          6    1    1    2  501    0 -0.88011439187E+01 -0.33783588573E+02 -0.16380239659E+03  0.24078832222E+03  0.17300000000E+03 0. -1.
         -6    1    1    2    0  502  0.88011439187E+01  0.33783588573E+02 -0.10751339440E+03  0.20665652897E+03  0.17300000000E+03 0. -1.
</event>
<event>
 4    1  0.5758867E+000  0.1000000E+03  0.7546771E-02  0.1280296E+00
         21   -1    0    0  501  502  0.00000000000E+00  0.00000000000E+00  0.31829442358E+03  0.31829442358E+03  0.00000000000E+00 0.  1.
         21   -1    0    0  502  503 -0.00000000000E+00 -0.00000000000E+00 -0.21985793507E+03  0.21985793507E+03  0.00000000000E+00 0. -1.
          6    1    1    2  501    0 -0.16117883303E+03  0.86028934141E+01  0.16956144382E+03  0.29108883391E+03  0.17300000000E+03 0.  1.
         -6    1    1    2    0  503  0.16117883303E+03 -0.86028934141E+01 -0.71124955317E+02  0.24706352475E+03  0.17300000000E+03 0. -1.
</event>
<event>
 4    1  0.5758867E+000  0.1000000E+03  0.7546771E-02  0.1280296E+00
         21   -1    0    0  501  502  0.00000000000E+00  0.00000000000E+00  0.88177943032E+02  0.88177943032E+02  0.00000000000E+00 0. -1.
         21   -1    0    0  502  503 -0.00000000000E+00 -0.00000000000E+00 -0.42065732213E+03  0.42065732213E+03  0.00000000000E+00 0. -1.
          6    1    1    2  501    0 -0.66228441646E+02  0.48905762184E+02 -0.14029565138E+03  0.23746547087E+03  0.17300000000E+03 0. -1.
         -6    1    1    2    0  503  0.66228441646E+02 -0.48905762184E+02 -0.19218372772E+03  0.27136979430E+03  0.17300000000E+03 0. -1.
</event>
<event>
 4    1  0.5758867E+000  0.1000000E+03  0.7546771E-02  0.1280296E+00
         21   -1    0    0  503  502  0.00000000000E+00  0.00000000000E+00  0.17438002839E+04  0.17438002839E+04  0.00000000000E+00 0.  1.
         21   -1    0    0  501  503 -0.00000000000E+00 -0.00000000000E+00 -0.28481645496E+02  0.28481645496E+02  0.00000000000E+00 0. -1.
          6    1    1    2  501    0  0.10154512287E+03  0.82212424924E+02  0.65231440194E+03  0.68739608216E+03  0.17300000000E+03 0. -1.
         -6    1    1    2    0  502 -0.10154512287E+03 -0.82212424924E+02  0.10630042365E+04  0.10848858473E+04  0.17300000000E+03 0.  1.
</event>
<event>
 4    1  0.5758867E+000  0.1000000E+03  0.7546771E-02  0.1280296E+00
         21   -1    0    0  503  502  0.00000000000E+00  0.00000000000E+00  0.78808191833E+02  0.78808191833E+02  0.00000000000E+00 0.  1.
         21   -1    0    0  501  503 -0.00000000000E+00 -0.00000000000E+00 -0.77870103192E+03  0.77870103192E+03  0.00000000000E+00 0. -1.
          6    1    1    2  501    0  0.54151098867E+00 -0.57353227242E+02 -0.64032983808E+03  0.66576346209E+03  0.17300000000E+03 0. -1.
         -6    1    1    2    0  502 -0.54151098867E+00  0.57353227242E+02 -0.59563002002E+02  0.19174576167E+03  0.17300000000E+03 0.  1.
</event>
<event>
 4    1  0.5758867E+000  0.1000000E+03  0.7546771E-02  0.1280296E+00
         21   -1    0    0  503  502  0.00000000000E+00  0.00000000000E+00  0.11044789563E+04  0.11044789563E+04  0.00000000000E+00 0.  1.
         21   -1    0    0  501  503 -0.00000000000E+00 -0.00000000000E+00 -0.15704263025E+03  0.15704263025E+03  0.00000000000E+00 0. -1.
          6    1    1    2  501    0 -0.50600947612E+02 -0.89693720741E+02 -0.78442663354E+02  0.21607329977E+03  0.17300000000E+03 0. -1.
         -6    1    1    2    0  502  0.50600947612E+02  0.89693720741E+02  0.10258789894E+04  0.10454482868E+04  0.17300000000E+03 0.  1.
</event>
<event>
 4    1  0.5758867E+000  0.1000000E+03  0.7546771E-02  0.1280296E+00
         21   -1    0    0  501  502  0.00000000000E+00  0.00000000000E+00  0.11193828331E+03  0.11193828331E+03  0.00000000000E+00 0. -1.
         21   -1    0    0  502  503 -0.00000000000E+00 -0.00000000000E+00 -0.34377511303E+03  0.34377511303E+03  0.00000000000E+00 0.  1.
          6    1    1    2  501    0 -0.65763183206E+02  0.63603842843E+02 -0.13160358474E+03  0.23583627500E+03  0.17300000000E+03 0. -1.
         -6    1    1    2    0  503  0.65763183206E+02 -0.63603842843E+02 -0.10023324498E+03  0.21987712134E+03  0.17300000000E+03 0.  1.
</event>
<event>
 4    1  0.5758867E+000  0.1000000E+03  0.7546771E-02  0.1280296E+00
         21   -1    0    0  501  502  0.00000000000E+00  0.00000000000E+00  0.30216768329E+03  0.30216768329E+03  0.00000000000E+00 0. -1.
         21   -1    0    0  502  503 -0.00000000000E+00 -0.00000000000E+00 -0.10303321662E+03  0.10303321662E+03  0.00000000000E+00 0.  1.
          6    1    1    2  501    0 -0.23253181330E+02 -0.23953482507E+02  0.11044989414E+03  0.20794869291E+03  0.17300000000E+03 0. -1.
         -6    1    1    2    0  503  0.23253181330E+02  0.23953482507E+02  0.88684572527E+02  0.19725220701E+03  0.17300000000E+03 0.  1.
</event>
<event>
 4    1  0.5758867E+000  0.1000000E+03  0.7546771E-02  0.1280296E+00
         21   -1    0    0  503  502  0.00000000000E+00  0.00000000000E+00  0.53819781799E+02  0.53819781799E+02  0.00000000000E+00 0.  1.
         21   -1    0    0  501  503 -0.00000000000E+00 -0.00000000000E+00 -0.76414060394E+03  0.76414060394E+03  0.00000000000E+00 0. -1.
          6    1    1    2  501    0 -0.53274389508E+02 -0.14134667466E+02 -0.53732388716E+03  0.56717185148E+03  0.17300000000E+03 0. -1.
         -6    1    1    2    0  502  0.53274389508E+02  0.14134667466E+02 -0.17299693498E+03  0.25078853426E+03  0.17300000000E+03 0.  1.
</event>
<event>
 4    1  0.5758867E+000  0.1000000E+03  0.7546771E-02  0.1280296E+00
         21   -1    0    0  503  502  0.00000000000E+00  0.00000000000E+00  0.23385924386E+03  0.23385924386E+03  0.00000000000E+00 0.  1.
         21   -1    0    0  501  503 -0.00000000000E+00 -0.00000000000E+00 -0.49440342673E+03  0.49440342673E+03  0.00000000000E+00 0. -1.
          6    1    1    2  501    0 -0.39233997856E+02 -0.24152878105E+03 -0.30233509168E+03  0.42568881395E+03  0.17300000000E+03 0. -1.
         -6    1    1    2    0  502  0.39233997856E+02  0.24152878105E+03  0.41790908808E+02  0.30257385664E+03  0.17300000000E+03 0.  1.
</event>
<event>
 4    1  0.5758867E+000  0.1000000E+03  0.7546771E-02  0.1280296E+00
         21   -1    0    0  503  502  0.00000000000E+00  0.00000000000E+00  0.60180693813E+03  0.60180693813E+03  0.00000000000E+00 0.  1.
         21   -1    0    0  501  503 -0.00000000000E+00 -0.00000000000E+00 -0.18845414080E+03  0.18845414080E+03  0.00000000000E+00 0. -1.
          6    1    1    2  501    0 -0.16447736512E+03 -0.11229836717E+02 -0.71732436914E+02  0.24950642352E+03  0.17300000000E+03 0. -1.
         -6    1    1    2    0  502  0.16447736512E+03  0.11229836717E+02  0.48508523425E+03  0.54075465542E+03  0.17300000000E+03 0.  1.
</event>
<event>
 4    1  0.5758867E+000  0.1000000E+03  0.7546771E-02  0.1280296E+00
         21   -1    0    0  501  502  0.00000000000E+00  0.00000000000E+00  0.38897745118E+02  0.38897745118E+02  0.00000000000E+00 0.  1.
         21   -1    0    0  502  503 -0.00000000000E+00 -0.00000000000E+00 -0.11166131518E+04  0.11166131518E+04  0.00000000000E+00 0.  1.
          6    1    1    2  501    0  0.76807162883E+02 -0.63874504127E+02 -0.37425490788E+03  0.42423463864E+03  0.17300000000E+03 0.  1.
         -6    1    1    2    0  503 -0.76807162883E+02  0.63874504127E+02 -0.70346049877E+03  0.73127625825E+03  0.17300000000E+03 0.  1.
</event>
<event>
 4    1  0.5758867E+000  0.1000000E+03  0.7546771E-02  0.1280296E+00
         21   -1    0    0  501  502  0.00000000000E+00  0.00000000000E+00  0.20783745328E+03  0.20783745328E+03  0.00000000000E+00 0.  1.
         21   -1    0    0  502  503 -0.00000000000E+00 -0.00000000000E+00 -0.32272401536E+03  0.32272401536E+03  0.00000000000E+00 0.  1.
          6    1    1    2  501    0 -0.13479770912E+02 -0.19973993097E+02  0.13842216278E+03  0.22286848089E+03  0.17300000000E+03 0.  1.
         -6    1    1    2    0  503  0.13479770912E+02  0.19973993097E+02 -0.25330872486E+03  0.30769298776E+03  0.17300000000E+03 0.  1.
</event>
<event>
 4    1  0.5758867E+000  0.1000000E+03  0.7546771E-02  0.1280296E+00
         21   -1    0    0  501  502  0.00000000000E+00  0.00000000000E+00  0.69716761209E+02  0.69716761209E+02  0.00000000000E+00 0.  1.
         21   -1    0    0  502  503 -0.00000000000E+00 -0.00000000000E+00 -0.75010297496E+03  0.75010297496E+03  0.00000000000E+00 0.  1.
          6    1    1    2  501    0 -0.18876847875E+02  0.36150446790E+02 -0.82281224063E+02  0.19586319211E+03  0.17300000000E+03 0.  1.
         -6    1    1    2    0  503  0.18876847875E+02 -0.36150446790E+02 -0.59810498969E+03  0.62395654407E+03  0.17300000000E+03 0.  1.
</event>
<event>
 4    1  0.5758867E+000  0.1000000E+03  0.7546771E-02  0.1280296E+00
         21   -1    0    0  501  502  0.00000000000E+00  0.00000000000E+00  0.24515331105E+03  0.24515331105E+03  0.00000000000E+00 0. -1.
         21   -1    0    0  502  503 -0.00000000000E+00 -0.00000000000E+00 -0.13598527957E+03  0.13598527957E+03  0.00000000000E+00 0.  1.
          6    1    1    2  501    0 -0.57622486155E+02 -0.26290818193E+01  0.63976340885E+02  0.19325950216E+03  0.17300000000E+03 0. -1.
         -6    1    1    2    0  503  0.57622486155E+02  0.26290818193E+01  0.45191690602E+02  0.18787908846E+03  0.17300000000E+03 0.  1.
</event>
<event>
 4    1  0.5758867E+000  0.1000000E+03  0.7546771E-02  0.1280296E+00
         21   -1    0    0  501  502  0.00000000000E+00  0.00000000000E+00  0.46635140372E+03  0.46635140372E+03  0.00000000000E+00 0.  1.
         21   -1    0    0  502  503 -0.00000000000E+00 -0.00000000000E+00 -0.18524222441E+03  0.18524222441E+03  0.00000000000E+00 0.  1.
          6    1    1    2  501    0 -0.32981379842E+02  0.64989005588E+01  0.40128786807E+03  0.43828182735E+03  0.17300000000E+03 0.  1.
         -6    1    1    2    0  503  0.32981379842E+02 -0.64989005588E+01 -0.12017868876E+03  0.21331180079E+03  0.17300000000E+03 0.  1.
</event>
<event>
 4    1  0.5758867E+000  0.1000000E+03  0.7546771E-02  0.1280296E+00
         21   -1    0    0  501  502  0.00000000000E+00  0.00000000000E+00  0.46126986520E+02  0.46126986520E+02  0.00000000000E+00 0. -1.
         21   -1    0    0  502  503 -0.00000000000E+00 -0.00000000000E+00 -0.19763817154E+04  0.19763817154E+04  0.00000000000E+00 0. -1.
          6    1    1    2  501    0  0.37397309934E+02 -0.16858788805E+02 -0.14779560014E+03  0.23120405916E+03  0.17300000000E+03 0. -1.
         -6    1    1    2    0  503 -0.37397309934E+02  0.16858788805E+02 -0.17824591287E+04  0.17913046427E+04  0.17300000000E+03 0. -1.
</event>
<event>
 4    1  0.5758867E+000  0.1000000E+03  0.7546771E-02  0.1280296E+00
         21   -1    0    0  501  502  0.00000000000E+00  0.00000000000E+00  0.15584351212E+03  0.15584351212E+03  0.00000000000E+00 0.  1.
         21   -1    0    0  502  503 -0.00000000000E+00 -0.00000000000E+00 -0.38272960592E+03  0.38272960592E+03  0.00000000000E+00 0.  1.
          6    1    1    2  501    0  0.28675121239E+02 -0.52600305018E+02  0.64785102808E+02  0.19420392430E+03  0.17300000000E+03 0.  1.
         -6    1    1    2    0  503 -0.28675121239E+02  0.52600305018E+02 -0.29167119661E+03  0.34436919374E+03  0.17300000000E+03 0.  1.
</event>
<event>
 4    1  0.5758867E+000  0.1000000E+03  0.7546771E-02  0.1280296E+00
         21   -1    0    0  501  502  0.00000000000E+00  0.00000000000E+00  0.72887133347E+02  0.72887133347E+02  0.00000000000E+00 0.  1.
         21   -1    0    0  502  503 -0.00000000000E+00 -0.00000000000E+00 -0.13239922850E+04  0.13239922850E+04  0.00000000000E+00 0. -1.
          6    1    1    2  501    0 -0.23124086248E+03 -0.97670790644E+02 -0.49138370261E+03  0.57827230870E+03  0.17300000000E+03 0.  1.
         -6    1    1    2    0  503  0.23124086248E+03  0.97670790644E+02 -0.75972144908E+03  0.81860710967E+03  0.17300000000E+03 0. -1.
</event>
<event>
 4    1  0.5758867E+000  0.1000000E+03  0.7546771E-02  0.1280296E+00
         21   -1    0    0  501  502  0.00000000000E+00  0.00000000000E+00  0.30298941453E+03  0.30298941453E+03  0.00000000000E+00 0.  1.
         21   -1    0    0  502  503 -0.00000000000E+00 -0.00000000000E+00 -0.10667153668E+03  0.10667153668E+03  0.00000000000E+00 0. -1.
          6    1    1    2  501    0  0.18699295722E+01 -0.44062507268E+02  0.12222982257E+03  0.21636573368E+03  0.17300000000E+03 0.  1.
         -6    1    1    2    0  503 -0.18699295722E+01  0.44062507268E+02  0.74088055281E+02  0.19329521753E+03  0.17300000000E+03 0. -1.
</event>
<event>
 4    1  0.5758867E+000  0.1000000E+03  0.7546771E-02  0.1280296E+00
         21   -1    0    0  501  502  0.00000000000E+00  0.00000000000E+00  0.18414586215E+04  0.18414586215E+04  0.00000000000E+00 0.  1.
         21   -1    0    0  502  503 -0.00000000000E+00 -0.00000000000E+00 -0.38539953615E+02  0.38539953615E+02  0.00000000000E+00 0. -1.
          6    1    1    2  501    0  0.12025116613E+03 -0.31444057630E+02  0.14659284188E+04  0.14813251502E+04  0.17300000000E+03 0.  1.
         -6    1    1    2    0  503 -0.12025116613E+03  0.31444057630E+02  0.33699024908E+03  0.39867342486E+03  0.17300000000E+03 0. -1.
</event>
<event>
 4    1  0.5758867E+000  0.1000000E+03  0.7546771E-02  0.1280296E+00
         21   -1    0    0  501  502  0.00000000000E+00  0.00000000000E+00  0.17209031735E+03  0.17209031735E+03  0.00000000000E+00 0.  1.
         21   -1    0    0  502  503 -0.00000000000E+00 -0.00000000000E+00 -0.57770483489E+03  0.57770483489E+03  0.00000000000E+00 0. -1.
          6    1    1    2  501    0 -0.20192160745E+03 -0.10597726120E+03 -0.45585408785E+02  0.28984572610E+03  0.17300000000E+03 0.  1.
         -6    1    1    2    0  503  0.20192160745E+03  0.10597726120E+03 -0.36002910876E+03  0.45994942613E+03  0.17300000000E+03 0. -1.
</event>
<event>
 4    1  0.5758867E+000  0.1000000E+03  0.7546771E-02  0.1280296E+00
         21   -1    0    0  501  502  0.00000000000E+00  0.00000000000E+00  0.97208811992E+02  0.97208811992E+02  0.00000000000E+00 0.  1.
         21   -1    0    0  502  503 -0.00000000000E+00 -0.00000000000E+00 -0.15369002081E+04  0.15369002081E+04  0.00000000000E+00 0. -1.
          6    1    1    2  501    0 -0.57080736012E+02  0.15639743603E+03 -0.79543165296E+02  0.25293177651E+03  0.17300000000E+03 0.  1.
         -6    1    1    2    0  503  0.57080736012E+02 -0.15639743603E+03 -0.13601482308E+04  0.13811772436E+04  0.17300000000E+03 0. -1.
</event>
<event>
 4    1  0.5758867E+000  0.1000000E+03  0.7546771E-02  0.1280296E+00
         21   -1    0    0  501  502  0.00000000000E+00  0.00000000000E+00  0.17300368867E+03  0.17300368867E+03  0.00000000000E+00 0.  1.
         21   -1    0    0  502  503 -0.00000000000E+00 -0.00000000000E+00 -0.74831790104E+03  0.74831790104E+03  0.00000000000E+00 0. -1.
          6    1    1    2  501    0  0.97086273570E+02  0.23429165676E+03 -0.47402983246E+02  0.31063542581E+03  0.17300000000E+03 0.  1.
         -6    1    1    2    0  503 -0.97086273570E+02 -0.23429165676E+03 -0.52791122913E+03  0.61068616391E+03  0.17300000000E+03 0. -1.
</event>
<event>
 4    1  0.5758867E+000  0.1000000E+03  0.7546771E-02  0.1280296E+00
         21   -1    0    0  503  502  0.00000000000E+00  0.00000000000E+00  0.13858347843E+03  0.13858347843E+03  0.00000000000E+00 0.  1.
         21   -1    0    0  501  503 -0.00000000000E+00 -0.00000000000E+00 -0.33573723129E+03  0.33573723129E+03  0.00000000000E+00 0. -1.
          6    1    1    2  501    0 -0.10622417660E+03  0.67622531013E+02 -0.12853137079E+03  0.24961108884E+03  0.17300000000E+03 0.  1.
         -6    1    1    2    0  502  0.10622417660E+03 -0.67622531013E+02 -0.68622382075E+02  0.22470962088E+03  0.17300000000E+03 0. -1.
</event>
<event>
 4    1  0.5758867E+000  0.1000000E+03  0.7546771E-02  0.1280296E+00
         21   -1    0    0  503  502  0.00000000000E+00  0.00000000000E+00  0.15238406974E+03  0.15238406974E+03  0.00000000000E+00 0.  1.
         21   -1    0    0  501  503 -0.00000000000E+00 -0.00000000000E+00 -0.39909774800E+03  0.39909774800E+03  0.00000000000E+00 0. -1.
          6    1    1    2  501    0 -0.13190269898E+03  0.28820743987E+02 -0.24915591309E+03  0.33201901499E+03  0.17300000000E+03 0.  1.
         -6    1    1    2    0  502  0.13190269898E+03 -0.28820743987E+02  0.24422348322E+01  0.21946280276E+03  0.17300000000E+03 0. -1.
</event>
<event>
 4    1  0.5758867E+000  0.1000000E+03  0.7546771E-02  0.1280296E+00
         21   -1    0    0  503  502  0.00000000000E+00  0.00000000000E+00  0.25535074361E+03  0.25535074361E+03  0.00000000000E+00 0. -1.
         21   -1    0    0  501  503 -0.00000000000E+00 -0.00000000000E+00 -0.26269588627E+03  0.26269588627E+03  0.00000000000E+00 0. -1.
          6    1    1    2  501    0 -0.87598173384E+02 -0.90261779377E+02 -0.14973505779E+03  0.26109426713E+03  0.17300000000E+03 0. -1.
         -6    1    1    2    0  502  0.87598173384E+02  0.90261779377E+02  0.14238991513E+03  0.25695236276E+03  0.17300000000E+03 0. -1.
</event>
<event>
 4    1  0.5758867E+000  0.1000000E+03  0.7546771E-02  0.1280296E+00
         21   -1    0    0  501  502  0.00000000000E+00  0.00000000000E+00  0.43624575527E+02  0.43624575527E+02  0.00000000000E+00 0.  1.
         21   -1    0    0  502  503 -0.00000000000E+00 -0.00000000000E+00 -0.14449743160E+04  0.14449743160E+04  0.00000000000E+00 0.  1.
          6    1    1    2  501    0  0.13766005797E+03 -0.84957833197E+02 -0.45372500204E+03  0.51182370252E+03  0.17300000000E+03 0.  1.
         -6    1    1    2    0  503 -0.13766005797E+03  0.84957833197E+02 -0.94762473845E+03  0.97677518903E+03  0.17300000000E+03 0.  1.
</event>
<event>
 4    1  0.5758867E+000  0.1000000E+03  0.7546771E-02  0.1280296E+00
         21   -1    0    0  501  502  0.00000000000E+00  0.00000000000E+00  0.25018674328E+03  0.25018674328E+03  0.00000000000E+00 0.  1.
         21   -1    0    0  502  503 -0.00000000000E+00 -0.00000000000E+00 -0.16410118606E+03  0.16410118606E+03  0.00000000000E+00 0.  1.
          6    1    1    2  501    0  0.38199084328E+01 -0.21662334000E+02  0.14851016982E+03  0.22905920404E+03  0.17300000000E+03 0.  1.
         -6    1    1    2    0  503 -0.38199084328E+01  0.21662334000E+02 -0.62424612602E+02  0.18522872529E+03  0.17300000000E+03 0.  1.
</event>
<event>
 4    1  0.5758867E+000  0.1000000E+03  0.7546771E-02  0.1280296E+00
         21   -1    0    0  501  502  0.00000000000E+00  0.00000000000E+00  0.82207645985E+03  0.82207645985E+03  0.00000000000E+00 0. -1.
         21   -1    0    0  502  503 -0.00000000000E+00 -0.00000000000E+00 -0.13516486655E+03  0.13516486655E+03  0.00000000000E+00 0. -1.
          6    1    1    2  501    0  0.28037417372E+02 -0.71469207721E+02  0.73744150743E+03  0.76134284084E+03  0.17300000000E+03 0. -1.
         -6    1    1    2    0  503 -0.28037417372E+02  0.71469207721E+02 -0.50529914126E+02  0.19589848557E+03  0.17300000000E+03 0. -1.
</event>
<event>
 4    1  0.5758867E+000  0.1000000E+03  0.7546771E-02  0.1280296E+00
         21   -1    0    0  501  502  0.00000000000E+00  0.00000000000E+00  0.12099192612E+04  0.12099192612E+04  0.00000000000E+00 0. -1.
         21   -1    0    0  502  503 -0.00000000000E+00 -0.00000000000E+00 -0.41350925519E+02  0.41350925519E+02  0.00000000000E+00 0. -1.
          6    1    1    2  501    0 -0.21241765419E+02 -0.64622916923E+02  0.93223259499E+03  0.95058610612E+03  0.17300000000E+03 0. -1.
         -6    1    1    2    0  503  0.21241765419E+02  0.64622916923E+02  0.23633574064E+03  0.30068408055E+03  0.17300000000E+03 0. -1.
</event>
<event>
 4    1  0.5758867E+000  0.1000000E+03  0.7546771E-02  0.1280296E+00
         21   -1    0    0  503  502  0.00000000000E+00  0.00000000000E+00  0.65928340990E+03  0.65928340990E+03  0.00000000000E+00 0. -1.
         21   -1    0    0  501  503 -0.00000000000E+00 -0.00000000000E+00 -0.92178070353E+02  0.92178070353E+02  0.00000000000E+00 0.  1.
          6    1    1    2  501    0  0.15138168018E+03 -0.52631918491E+02  0.39299385832E+03  0.45832270794E+03  0.17300000000E+03 0.  1.
         -6    1    1    2    0  502 -0.15138168018E+03  0.52631918491E+02  0.17411148123E+03  0.29313877231E+03  0.17300000000E+03 0. -1.
</event>
<event>
 4    1  0.5758867E+000  0.1000000E+03  0.7546771E-02  0.1280296E+00
         21   -1    0    0  503  502  0.00000000000E+00  0.00000000000E+00  0.30452897990E+03  0.30452897990E+03  0.00000000000E+00 0.  1.
         21   -1    0    0  501  503 -0.00000000000E+00 -0.00000000000E+00 -0.63627386441E+03  0.63627386441E+03  0.00000000000E+00 0. -1.
          6    1    1    2  501    0 -0.50176703767E+02 -0.13641718711E+03 -0.56956955102E+03  0.61275266135E+03  0.17300000000E+03 0. -1.
         -6    1    1    2    0  502  0.50176703767E+02  0.13641718711E+03  0.23782466651E+03  0.32805018296E+03  0.17300000000E+03 0.  1.
</event>
<event>
 4    1  0.5758867E+000  0.1000000E+03  0.7546771E-02  0.1280296E+00
         21   -1    0    0  503  502  0.00000000000E+00  0.00000000000E+00  0.66892019271E+03  0.66892019271E+03  0.00000000000E+00 0.  1.
         21   -1    0    0  501  503 -0.00000000000E+00 -0.00000000000E+00 -0.19402443308E+03  0.19402443308E+03  0.00000000000E+00 0. -1.
          6    1    1    2  501    0  0.87826845910E+02 -0.18965250339E+03 -0.46418448011E+02  0.27525497129E+03  0.17300000000E+03 0. -1.
         -6    1    1    2    0  502 -0.87826845910E+02  0.18965250339E+03  0.52131420764E+03  0.58768965449E+03  0.17300000000E+03 0.  1.
</event>
<event>
 4    1  0.5758867E+000  0.1000000E+03  0.7546771E-02  0.1280296E+00
         21   -1    0    0  503  502  0.00000000000E+00  0.00000000000E+00  0.37880850296E+02  0.37880850296E+02  0.00000000000E+00 0.  1.
         21   -1    0    0  501  503 -0.00000000000E+00 -0.00000000000E+00 -0.23892117364E+04  0.23892117364E+04  0.00000000000E+00 0. -1.
          6    1    1    2  501    0 -0.18750237940E+03 -0.11470049396E+03 -0.16223675517E+04  0.16463045947E+04  0.17300000000E+03 0. -1.
         -6    1    1    2    0  502  0.18750237940E+03  0.11470049396E+03 -0.72896333434E+03  0.78078799197E+03  0.17300000000E+03 0.  1.
</event>
<event>
 4    1  0.5758867E+000  0.1000000E+03  0.7546771E-02  0.1280296E+00
         21   -1    0    0  501  502  0.00000000000E+00  0.00000000000E+00  0.34132753430E+02  0.34132753430E+02  0.00000000000E+00 0.  1.
         21   -1    0    0  502  503 -0.00000000000E+00 -0.00000000000E+00 -0.19436754334E+04  0.19436754334E+04  0.00000000000E+00 0.  1.
          6    1    1    2  501    0  0.11239381977E+03 -0.88807385092E+02 -0.47072698819E+03  0.52156688908E+03  0.17300000000E+03 0.  1.
         -6    1    1    2    0  503 -0.11239381977E+03  0.88807385092E+02 -0.14388156918E+04  0.14562412977E+04  0.17300000000E+03 0.  1.
</event>
<event>
 4    1  0.5758867E+000  0.1000000E+03  0.7546771E-02  0.1280296E+00
         21   -1    0    0  501  502  0.00000000000E+00  0.00000000000E+00  0.20289608755E+04  0.20289608755E+04  0.00000000000E+00 0.  1.
         21   -1    0    0  502  503 -0.00000000000E+00 -0.00000000000E+00 -0.92505041319E+02  0.92505041319E+02  0.00000000000E+00 0.  1.
          6    1    1    2  501    0  0.11598053934E+03 -0.19437272295E+03  0.17673592244E+04  0.17901731394E+04  0.17300000000E+03 0.  1.
         -6    1    1    2    0  503 -0.11598053934E+03  0.19437272295E+03  0.16909660977E+03  0.33129277741E+03  0.17300000000E+03 0.  1.
</event>
<event>
 4    1  0.5758867E+000  0.1000000E+03  0.7546771E-02  0.1280296E+00
         21   -1    0    0  503  502  0.00000000000E+00  0.00000000000E+00  0.15698831714E+04  0.15698831714E+04  0.00000000000E+00 0. -1.
         21   -1    0    0  501  503 -0.00000000000E+00 -0.00000000000E+00 -0.45942295668E+02  0.45942295668E+02  0.00000000000E+00 0. -1.
          6    1    1    2  501    0  0.17071075103E+03 -0.36757495166E+02  0.10873948179E+04  0.11148317200E+04  0.17300000000E+03 0. -1.
         -6    1    1    2    0  502 -0.17071075103E+03  0.36757495166E+02  0.43654605780E+03  0.50099374702E+03  0.17300000000E+03 0. -1.
</event>
<event>
 4    1  0.5758867E+000  0.1000000E+03  0.7546771E-02  0.1280296E+00
         21   -1    0    0  503  502  0.00000000000E+00  0.00000000000E+00  0.10271987993E+03  0.10271987993E+03  0.00000000000E+00 0. -1.
         21   -1    0    0  501  503 -0.00000000000E+00 -0.00000000000E+00 -0.39358258217E+03  0.39358258217E+03  0.00000000000E+00 0. -1.
          6    1    1    2  501    0 -0.22649867039E+02  0.85862824650E+02 -0.20853437323E+03  0.28513334766E+03  0.17300000000E+03 0. -1.
         -6    1    1    2    0  502  0.22649867039E+02 -0.85862824650E+02 -0.82328329007E+02  0.21116911443E+03  0.17300000000E+03 0. -1.
</event>
<event>
 4    1  0.5758867E+000  0.1000000E+03  0.7546771E-02  0.1280296E+00
         21   -1    0    0  503  502  0.00000000000E+00  0.00000000000E+00  0.25694717216E+03  0.25694717216E+03  0.00000000000E+00 0. -1.
         21   -1    0    0  501  503 -0.00000000000E+00 -0.00000000000E+00 -0.17469418528E+03  0.17469418528E+03  0.00000000000E+00 0. -1.
          6    1    1    2  501    0  0.11250142867E+01 -0.11083704958E+03 -0.11530369870E+02  0.20578645885E+03  0.17300000000E+03 0. -1.
         -6    1    1    2    0  502 -0.11250142867E+01  0.11083704958E+03  0.93783356747E+02  0.22585489859E+03  0.17300000000E+03 0. -1.
</event>
<event>
 4    1  0.5758867E+000  0.1000000E+03  0.7546771E-02  0.1280296E+00
         21   -1    0    0  503  502  0.00000000000E+00  0.00000000000E+00  0.89004980395E+02  0.89004980395E+02  0.00000000000E+00 0.  1.
         21   -1    0    0  501  503 -0.00000000000E+00 -0.00000000000E+00 -0.56146864992E+03  0.56146864992E+03  0.00000000000E+00 0.  1.
          6    1    1    2  501    0  0.45656434563E+02  0.10169104489E+03 -0.36322393656E+03  0.41747599538E+03  0.17300000000E+03 0.  1.
         -6    1    1    2    0  502 -0.45656434563E+02 -0.10169104489E+03 -0.10923973296E+03  0.23299763493E+03  0.17300000000E+03 0.  1.
</event>
<event>
 4    1  0.5758867E+000  0.1000000E+03  0.7546771E-02  0.1280296E+00
         21   -1    0    0  503  502  0.00000000000E+00  0.00000000000E+00  0.67737117596E+03  0.67737117596E+03  0.00000000000E+00 0. -1.
         21   -1    0    0  501  503 -0.00000000000E+00 -0.00000000000E+00 -0.30658388101E+03  0.30658388101E+03  0.00000000000E+00 0. -1.
          6    1    1    2  501    0 -0.49382017706E+02 -0.93227214568E+02 -0.25527345892E+03  0.32591937045E+03  0.17300000000E+03 0. -1.
         -6    1    1    2    0  502  0.49382017706E+02  0.93227214568E+02  0.62606075386E+03  0.65803568652E+03  0.17300000000E+03 0. -1.
</event>
<event>
 4    1  0.5758867E+000  0.1000000E+03  0.7546771E-02  0.1280296E+00
         21   -1    0    0  501  502  0.00000000000E+00  0.00000000000E+00  0.17767784781E+03  0.17767784781E+03  0.00000000000E+00 0. -1.
         21   -1    0    0  502  503 -0.00000000000E+00 -0.00000000000E+00 -0.24501229055E+03  0.24501229055E+03  0.00000000000E+00 0.  1.
          6    1    1    2  501    0  0.81648166770E+02 -0.28420210010E+02  0.45640634242E+02  0.19871134585E+03  0.17300000000E+03 0. -1.
         -6    1    1    2    0  503 -0.81648166770E+02  0.28420210010E+02 -0.11297507699E+03  0.22397879251E+03  0.17300000000E+03 0.  1.
</event>
<event>
 4    1  0.5758867E+000  0.1000000E+03  0.7546771E-02  0.1280296E+00
         21   -1    0    0  501  502  0.00000000000E+00  0.00000000000E+00  0.21633050142E+03  0.21633050142E+03  0.00000000000E+00 0. -1.
         21   -1    0    0  502  503 -0.00000000000E+00 -0.00000000000E+00 -0.15153321751E+03  0.15153321751E+03  0.00000000000E+00 0.  1.
          6    1    1    2  501    0  0.13271546294E+02  0.51019891772E+02  0.41083923940E+02  0.18546172679E+03  0.17300000000E+03 0. -1.
         -6    1    1    2    0  503 -0.13271546294E+02 -0.51019891772E+02  0.23713359975E+02  0.18240199215E+03  0.17300000000E+03 0.  1.
</event>
<event>
 4    1  0.5758867E+000  0.1000000E+03  0.7546771E-02  0.1280296E+00
         21   -1    0    0  501  502  0.00000000000E+00  0.00000000000E+00  0.21105351451E+03  0.21105351451E+03  0.00000000000E+00 0. -1.
         21   -1    0    0  502  503 -0.00000000000E+00 -0.00000000000E+00 -0.68181786539E+03  0.68181786539E+03  0.00000000000E+00 0.  1.
          6    1    1    2  501    0 -0.78655170423E+02 -0.88586001054E+01  0.15084983441E+03  0.24279576432E+03  0.17300000000E+03 0. -1.
         -6    1    1    2    0  503  0.78655170423E+02  0.88586001054E+01 -0.62161418529E+03  0.65007561558E+03  0.17300000000E+03 0.  1.
</event>
<event>
 4    1  0.5758867E+000  0.1000000E+03  0.7546771E-02  0.1280296E+00
         21   -1    0    0  501  502  0.00000000000E+00  0.00000000000E+00  0.58742662235E+03  0.58742662235E+03  0.00000000000E+00 0. -1.
         21   -1    0    0  502  503 -0.00000000000E+00 -0.00000000000E+00 -0.10970519985E+03  0.10970519985E+03  0.00000000000E+00 0. -1.
          6    1    1    2  501    0  0.18544749397E+03 -0.10467832185E+02  0.24407233784E+03  0.35213726674E+03  0.17300000000E+03 0. -1.
         -6    1    1    2    0  503 -0.18544749397E+03  0.10467832185E+02  0.23364908466E+03  0.34499455545E+03  0.17300000000E+03 0. -1.
</event>
<event>
 4    1  0.5758867E+000  0.1000000E+03  0.7546771E-02  0.1280296E+00
         21   -1    0    0  501  502  0.00000000000E+00  0.00000000000E+00  0.57314520316E+02  0.57314520316E+02  0.00000000000E+00 0. -1.
         21   -1    0    0  502  503 -0.00000000000E+00 -0.00000000000E+00 -0.24196595983E+04  0.24196595983E+04  0.00000000000E+00 0. -1.
          6    1    1    2  501    0 -0.30327395084E+03  0.85419043427E+02 -0.85734633654E+03  0.92964683779E+03  0.17300000000E+03 0. -1.
         -6    1    1    2    0  503  0.30327395084E+03 -0.85419043427E+02 -0.15049987415E+04  0.15473272808E+04  0.17300000000E+03 0. -1.
</event>
<event>
 4    1  0.5758867E+000  0.1000000E+03  0.7546771E-02  0.1280296E+00
         21   -1    0    0  501  502  0.00000000000E+00  0.00000000000E+00  0.31313335269E+03  0.31313335269E+03  0.00000000000E+00 0. -1.
         21   -1    0    0  502  503 -0.00000000000E+00 -0.00000000000E+00 -0.12936311402E+03  0.12936311402E+03  0.00000000000E+00 0. -1.
          6    1    1    2  501    0 -0.43411115284E+02  0.23094649386E+01  0.19435494358E+03  0.26380428854E+03  0.17300000000E+03 0. -1.
         -6    1    1    2    0  503  0.43411115284E+02 -0.23094649386E+01 -0.10584704909E+02  0.17869217816E+03  0.17300000000E+03 0. -1.
</event>
<event>
 4    1  0.5758867E+000  0.1000000E+03  0.7546771E-02  0.1280296E+00
         21   -1    0    0  503  502  0.00000000000E+00  0.00000000000E+00  0.29363082285E+02  0.29363082285E+02  0.00000000000E+00 0. -1.
         21   -1    0    0  501  503 -0.00000000000E+00 -0.00000000000E+00 -0.12456531818E+04  0.12456531818E+04  0.00000000000E+00 0. -1.
          6    1    1    2  501    0 -0.47076999295E+01 -0.67507589081E+02 -0.75972385747E+03  0.78210534880E+03  0.17300000000E+03 0. -1.
         -6    1    1    2    0  502  0.47076999295E+01  0.67507589081E+02 -0.45656624201E+03  0.49291091524E+03  0.17300000000E+03 0. -1.
</event>
<event>
 4    1  0.5758867E+000  0.1000000E+03  0.7546771E-02  0.1280296E+00
         21   -1    0    0  503  502  0.00000000000E+00  0.00000000000E+00  0.49933433857E+02  0.49933433857E+02  0.00000000000E+00 0. -1.
         21   -1    0    0  501  503 -0.00000000000E+00 -0.00000000000E+00 -0.63670793340E+03  0.63670793340E+03  0.00000000000E+00 0. -1.
          6    1    1    2  501    0  0.22560152973E+02 -0.11730238416E+02 -0.36057041919E+03  0.40073256193E+03  0.17300000000E+03 0. -1.
         -6    1    1    2    0  502 -0.22560152973E+02  0.11730238416E+02 -0.22620408035E+03  0.28590880533E+03  0.17300000000E+03 0. -1.
</event>
<event>
 4    1  0.5758867E+000  0.1000000E+03  0.7546771E-02  0.1280296E+00
         21   -1    0    0  501  502  0.00000000000E+00  0.00000000000E+00  0.52891067834E+03  0.52891067834E+03  0.00000000000E+00 0. -1.
         21   -1    0    0  502  503 -0.00000000000E+00 -0.00000000000E+00 -0.63520540883E+02  0.63520540883E+02  0.00000000000E+00 0. -1.
          6    1    1    2  501    0  0.84416830231E+01  0.42790184508E+02  0.30059744731E+03  0.34955698710E+03  0.17300000000E+03 0. -1.
         -6    1    1    2    0  503 -0.84416830231E+01 -0.42790184508E+02  0.16479269015E+03  0.24287423212E+03  0.17300000000E+03 0. -1.
</event>
<event>
 4    1  0.5758867E+000  0.1000000E+03  0.7546771E-02  0.1280296E+00
         21   -1    0    0  503  502  0.00000000000E+00  0.00000000000E+00  0.92579129345E+02  0.92579129345E+02  0.00000000000E+00 0. -1.
         21   -1    0    0  501  503 -0.00000000000E+00 -0.00000000000E+00 -0.72525900251E+03  0.72525900251E+03  0.00000000000E+00 0.  1.
          6    1    1    2  501    0 -0.43871173491E+02 -0.45703158219E+02 -0.60388927510E+03  0.63136733770E+03  0.17300000000E+03 0. -1.
         -6    1    1    2    0  502  0.43871173491E+02  0.45703158219E+02 -0.28790598061E+02  0.18647079415E+03  0.17300000000E+03 0. -1.
</event>
<event>
 4    1  0.5758867E+000  0.1000000E+03  0.7546771E-02  0.1280296E+00
         21   -1    0    0  501  502  0.00000000000E+00  0.00000000000E+00  0.56213443741E+03  0.56213443741E+03  0.00000000000E+00 0. -1.
         21   -1    0    0  502  503 -0.00000000000E+00 -0.00000000000E+00 -0.64172577516E+02  0.64172577516E+02  0.00000000000E+00 0.  1.
          6    1    1    2  501    0 -0.36937342822E+02  0.21542659305E+02  0.35730159707E+03  0.39927670196E+03  0.17300000000E+03 0. -1.
         -6    1    1    2    0  503  0.36937342822E+02 -0.21542659305E+02  0.14066026283E+03  0.22703031296E+03  0.17300000000E+03 0.  1.
</event>
<event>
 4    1  0.5758867E+000  0.1000000E+03  0.7546771E-02  0.1280296E+00
         21   -1    0    0  501  502  0.00000000000E+00  0.00000000000E+00  0.51329029974E+02  0.51329029974E+02  0.00000000000E+00 0. -1.
         21   -1    0    0  502  503 -0.00000000000E+00 -0.00000000000E+00 -0.93854057422E+03  0.93854057422E+03  0.00000000000E+00 0.  1.
          6    1    1    2  501    0 -0.62242479797E+02  0.82484218640E+02 -0.24744184109E+03  0.31911477142E+03  0.17300000000E+03 0. -1.
         -6    1    1    2    0  503  0.62242479797E+02 -0.82484218640E+02 -0.63976970315E+03  0.67075483277E+03  0.17300000000E+03 0.  1.
</event>
<event>
 4    1  0.5758867E+000  0.1000000E+03  0.7546771E-02  0.1280296E+00
         21   -1    0    0  501  502  0.00000000000E+00  0.00000000000E+00  0.66177558913E+03  0.66177558913E+03  0.00000000000E+00 0. -1.
         21   -1    0    0  502  503 -0.00000000000E+00 -0.00000000000E+00 -0.20730247568E+03  0.20730247568E+03  0.00000000000E+00 0.  1.
          6    1    1    2  501    0 -0.17855985104E+03  0.15795919819E+03  0.49068144600E+03  0.57230412382E+03  0.17300000000E+03 0. -1.
         -6    1    1    2    0  503  0.17855985104E+03 -0.15795919819E+03 -0.36208332548E+02  0.29677394098E+03  0.17300000000E+03 0.  1.
</event>
<event>
 4    1  0.5758867E+000  0.1000000E+03  0.7546771E-02  0.1280296E+00
         21   -1    0    0  503  502  0.00000000000E+00  0.00000000000E+00  0.75061913302E+02  0.75061913302E+02  0.00000000000E+00 0.  1.
         21   -1    0    0  501  503 -0.00000000000E+00 -0.00000000000E+00 -0.62793913824E+03  0.62793913824E+03  0.00000000000E+00 0.  1.
          6    1    1    2  501    0  0.11559108315E+03  0.14887925203E+02 -0.37388224201E+03  0.42813535209E+03  0.17300000000E+03 0.  1.
         -6    1    1    2    0  502 -0.11559108315E+03 -0.14887925203E+02 -0.17899498293E+03  0.27486569945E+03  0.17300000000E+03 0.  1.
</event>
<event>
 4    1  0.5758867E+000  0.1000000E+03  0.7546771E-02  0.1280296E+00
         21   -1    0    0  503  502  0.00000000000E+00  0.00000000000E+00  0.58942646189E+02  0.58942646189E+02  0.00000000000E+00 0.  1.
         21   -1    0    0  501  503 -0.00000000000E+00 -0.00000000000E+00 -0.64003703096E+03  0.64003703096E+03  0.00000000000E+00 0.  1.
          6    1    1    2  501    0  0.51536738111E+02  0.70865314933E+02 -0.31013854196E+03  0.36577704062E+03  0.17300000000E+03 0.  1.
         -6    1    1    2    0  502 -0.51536738111E+02 -0.70865314933E+02 -0.27095584281E+03  0.33320263653E+03  0.17300000000E+03 0.  1.
</event>
<event>
 4    1  0.5758867E+000  0.1000000E+03  0.7546771E-02  0.1280296E+00
         21   -1    0    0  503  502  0.00000000000E+00  0.00000000000E+00  0.35957163444E+03  0.35957163444E+03  0.00000000000E+00 0.  1.
         21   -1    0    0  501  503 -0.00000000000E+00 -0.00000000000E+00 -0.88232323949E+02  0.88232323949E+02  0.00000000000E+00 0.  1.
          6    1    1    2  501    0 -0.61201013157E+01  0.26382235344E+02  0.94678314477E+02  0.19906396262E+03  0.17300000000E+03 0.  1.
         -6    1    1    2    0  502  0.61201013157E+01 -0.26382235344E+02  0.17666099601E+03  0.24873999576E+03  0.17300000000E+03 0.  1.
</event>
<event>
 4    1  0.5758867E+000  0.1000000E+03  0.7546771E-02  0.1280296E+00
         21   -1    0    0  503  502  0.00000000000E+00  0.00000000000E+00  0.10676310064E+03  0.10676310064E+03  0.00000000000E+00 0.  1.
         21   -1    0    0  501  503 -0.00000000000E+00 -0.00000000000E+00 -0.61389283763E+03  0.61389283763E+03  0.00000000000E+00 0.  1.
          6    1    1    2  501    0  0.13106135691E+03 -0.39159490345E+02 -0.43654522513E+03  0.48909230064E+03  0.17300000000E+03 0.  1.
         -6    1    1    2    0  502 -0.13106135691E+03  0.39159490345E+02 -0.70584511861E+02  0.23156363763E+03  0.17300000000E+03 0.  1.
</event>
<event>
 4    1  0.5758867E+000  0.1000000E+03  0.7546771E-02  0.1280296E+00
         21   -1    0    0  501  502  0.00000000000E+00  0.00000000000E+00  0.19634776526E+03  0.19634776526E+03  0.00000000000E+00 0.  1.
         21   -1    0    0  502  503 -0.00000000000E+00 -0.00000000000E+00 -0.26676635888E+03  0.26676635888E+03  0.00000000000E+00 0. -1.
          6    1    1    2  501    0  0.27611240317E+02 -0.14596097695E+03 -0.55009690290E+02  0.23456780130E+03  0.17300000000E+03 0.  1.
         -6    1    1    2    0  503 -0.27611240317E+02  0.14596097695E+03 -0.15408903331E+02  0.22854632284E+03  0.17300000000E+03 0. -1.
</event>
<event>
 4    1  0.5758867E+000  0.1000000E+03  0.7546771E-02  0.1280296E+00
         21   -1    0    0  501  502  0.00000000000E+00  0.00000000000E+00  0.66099077760E+03  0.66099077760E+03  0.00000000000E+00 0.  1.
         21   -1    0    0  502  503 -0.00000000000E+00 -0.00000000000E+00 -0.89126505890E+02  0.89126505890E+02  0.00000000000E+00 0. -1.
          6    1    1    2  501    0  0.30104743494E+02  0.16728579915E+02  0.54356088431E+03  0.57146616341E+03  0.17300000000E+03 0.  1.
         -6    1    1    2    0  503 -0.30104743494E+02 -0.16728579915E+02  0.28303387393E+02  0.17865112008E+03  0.17300000000E+03 0. -1.
</event>
<event>
 4    1  0.5758867E+000  0.1000000E+03  0.7546771E-02  0.1280296E+00
         21   -1    0    0  503  502  0.00000000000E+00  0.00000000000E+00  0.12853354961E+03  0.12853354961E+03  0.00000000000E+00 0. -1.
         21   -1    0    0  501  503 -0.00000000000E+00 -0.00000000000E+00 -0.12946521053E+04  0.12946521053E+04  0.00000000000E+00 0. -1.
          6    1    1    2  501    0  0.82243182455E+02  0.84896862641E+02 -0.11936147351E+04  0.12118649076E+04  0.17300000000E+03 0. -1.
         -6    1    1    2    0  502 -0.82243182455E+02 -0.84896862641E+02  0.27496179464E+02  0.21132074728E+03  0.17300000000E+03 0. -1.
</event>
<event>
 4    1  0.5758867E+000  0.1000000E+03  0.7546771E-02  0.1280296E+00
         21   -1    0    0  501  502  0.00000000000E+00  0.00000000000E+00  0.58047777645E+03  0.58047777645E+03  0.00000000000E+00 0.  1.
         21   -1    0    0  502  503 -0.00000000000E+00 -0.00000000000E+00 -0.14866013329E+03  0.14866013329E+03  0.00000000000E+00 0.  1.
          6    1    1    2  501    0 -0.62397934777E+01  0.23556960668E+03  0.25172618536E+03  0.38578108690E+03  0.17300000000E+03 0.  1.
         -6    1    1    2    0  503  0.62397934777E+01 -0.23556960668E+03  0.18009145780E+03  0.34335682284E+03  0.17300000000E+03 0.  1.
</event>
<event>
 4    1  0.5758867E+000  0.1000000E+03  0.7546771E-02  0.1280296E+00
         21   -1    0    0  501  502  0.00000000000E+00  0.00000000000E+00  0.12803958576E+03  0.12803958576E+03  0.00000000000E+00 0.  1.
         21   -1    0    0  502  503 -0.00000000000E+00 -0.00000000000E+00 -0.64491843216E+03  0.64491843216E+03  0.00000000000E+00 0.  1.
          6    1    1    2  501    0 -0.36864332911E+02 -0.93491531959E+02  0.18977541917E+02  0.20096963125E+03  0.17300000000E+03 0.  1.
         -6    1    1    2    0  503  0.36864332911E+02  0.93491531959E+02 -0.53585638831E+03  0.57198838667E+03  0.17300000000E+03 0.  1.
</event>
<event>
 4    1  0.5758867E+000  0.1000000E+03  0.7546771E-02  0.1280296E+00
         21   -1    0    0  503  502  0.00000000000E+00  0.00000000000E+00  0.27289628071E+03  0.27289628071E+03  0.00000000000E+00 0. -1.
         21   -1    0    0  501  503 -0.00000000000E+00 -0.00000000000E+00 -0.27598545320E+03  0.27598545320E+03  0.00000000000E+00 0. -1.
          6    1    1    2  501    0 -0.20686340377E+03  0.43921874979E+02  0.24239630761E+02  0.27429575027E+03  0.17300000000E+03 0. -1.
         -6    1    1    2    0  502  0.20686340377E+03 -0.43921874979E+02 -0.27328803246E+02  0.27458598363E+03  0.17300000000E+03 0. -1.
</event>
<event>
 4    1  0.5758867E+000  0.1000000E+03  0.7546771E-02  0.1280296E+00
         21   -1    0    0  503  502  0.00000000000E+00  0.00000000000E+00  0.82465398950E+03  0.82465398950E+03  0.00000000000E+00 0. -1.
         21   -1    0    0  501  503 -0.00000000000E+00 -0.00000000000E+00 -0.67472768944E+02  0.67472768944E+02  0.00000000000E+00 0. -1.
          6    1    1    2  501    0  0.12498935232E+03  0.61816980005E+02  0.22886505472E+03  0.31898572144E+03  0.17300000000E+03 0. -1.
         -6    1    1    2    0  502 -0.12498935232E+03 -0.61816980005E+02  0.52831616584E+03  0.57314103700E+03  0.17300000000E+03 0. -1.
</event>
<event>
 4    1  0.5758867E+000  0.1000000E+03  0.7546771E-02  0.1280296E+00
         21   -1    0    0  503  502  0.00000000000E+00  0.00000000000E+00  0.13533172575E+04  0.13533172575E+04  0.00000000000E+00 0. -1.
         21   -1    0    0  501  503 -0.00000000000E+00 -0.00000000000E+00 -0.39939614565E+02  0.39939614565E+02  0.00000000000E+00 0. -1.
          6    1    1    2  501    0  0.58980928519E+02 -0.11792620700E+03  0.41075357059E+03  0.46479332609E+03  0.17300000000E+03 0. -1.
         -6    1    1    2    0  502 -0.58980928519E+02  0.11792620700E+03  0.90262407237E+03  0.92846354600E+03  0.17300000000E+03 0. -1.
</event>
<event>
 4    1  0.5758867E+000  0.1000000E+03  0.7546771E-02  0.1280296E+00
         21   -1    0    0  503  502  0.00000000000E+00  0.00000000000E+00  0.13149891553E+04  0.13149891553E+04  0.00000000000E+00 0. -1.
         21   -1    0    0  501  503 -0.00000000000E+00 -0.00000000000E+00 -0.28127530287E+02  0.28127530287E+02  0.00000000000E+00 0. -1.
          6    1    1    2  501    0 -0.64564510292E+02  0.52327368508E+02  0.60042733572E+03  0.63035602239E+03  0.17300000000E+03 0. -1.
         -6    1    1    2    0  502  0.64564510292E+02 -0.52327368508E+02  0.68643428929E+03  0.71276066320E+03  0.17300000000E+03 0. -1.
</event>
<event>
 4    1  0.5758867E+000  0.1000000E+03  0.7546771E-02  0.1280296E+00
         21   -1    0    0  503  502  0.00000000000E+00  0.00000000000E+00  0.31189534763E+03  0.31189534763E+03  0.00000000000E+00 0. -1.
         21   -1    0    0  501  503 -0.00000000000E+00 -0.00000000000E+00 -0.21564949850E+03  0.21564949850E+03  0.00000000000E+00 0.  1.
          6    1    1    2  501    0  0.96843676391E+02  0.13698815229E+03 -0.49360029149E+02  0.24598752814E+03  0.17300000000E+03 0.  1.
         -6    1    1    2    0  502 -0.96843676391E+02 -0.13698815229E+03  0.14560587828E+03  0.28155731799E+03  0.17300000000E+03 0. -1.
</event>
<event>
 4    1  0.5758867E+000  0.1000000E+03  0.7546771E-02  0.1280296E+00
         21   -1    0    0  503  502  0.00000000000E+00  0.00000000000E+00  0.24814734790E+04  0.24814734790E+04  0.00000000000E+00 0. -1.
         21   -1    0    0  501  503 -0.00000000000E+00 -0.00000000000E+00 -0.41883715858E+02  0.41883715858E+02  0.00000000000E+00 0.  1.
          6    1    1    2  501    0  0.33619069003E+02  0.64434456418E+02  0.19385922681E+03  0.26980074276E+03  0.17300000000E+03 0.  1.
         -6    1    1    2    0  502 -0.33619069003E+02 -0.64434456418E+02  0.22457305364E+04  0.22535564521E+04  0.17300000000E+03 0. -1.
</event>
<event>
 4    1  0.5758867E+000  0.1000000E+03  0.7546771E-02  0.1280296E+00
         21   -1    0    0  503  502  0.00000000000E+00  0.00000000000E+00  0.26955825961E+03  0.26955825961E+03  0.00000000000E+00 0. -1.
         21   -1    0    0  501  503 -0.00000000000E+00 -0.00000000000E+00 -0.15565218670E+03  0.15565218670E+03  0.00000000000E+00 0.  1.
          6    1    1    2  501    0 -0.63708141371E+02  0.88122174343E+02  0.42125180115E+02  0.20863311263E+03  0.17300000000E+03 0.  1.
         -6    1    1    2    0  502  0.63708141371E+02 -0.88122174343E+02  0.71780892796E+02  0.21657733367E+03  0.17300000000E+03 0. -1.
</event>
<event>
 4    1  0.5758867E+000  0.1000000E+03  0.7546771E-02  0.1280296E+00
         21   -1    0    0  501  502  0.00000000000E+00  0.00000000000E+00  0.63347293845E+03  0.63347293845E+03  0.00000000000E+00 0.  1.
         21   -1    0    0  502  503 -0.00000000000E+00 -0.00000000000E+00 -0.75270449299E+02  0.75270449299E+02  0.00000000000E+00 0.  1.
          6    1    1    2  501    0  0.31045182602E+02 -0.10789764912E+03  0.39553086364E+03  0.44607103710E+03  0.17300000000E+03 0.  1.
         -6    1    1    2    0  503 -0.31045182602E+02  0.10789764912E+03  0.16267162551E+03  0.26267235065E+03  0.17300000000E+03 0.  1.
</event>
<event>
 4    1  0.5758867E+000  0.1000000E+03  0.7546771E-02  0.1280296E+00
         21   -1    0    0  503  502  0.00000000000E+00  0.00000000000E+00  0.54124203947E+02  0.54124203947E+02  0.00000000000E+00 0.  1.
         21   -1    0    0  501  503 -0.00000000000E+00 -0.00000000000E+00 -0.64310520908E+03  0.64310520908E+03  0.00000000000E+00 0.  1.
          6    1    1    2  501    0  0.12803338295E+02  0.62372889824E+02 -0.34813678474E+03  0.39393213089E+03  0.17300000000E+03 0.  1.
         -6    1    1    2    0  502 -0.12803338295E+02 -0.62372889824E+02 -0.24084422039E+03  0.30329728214E+03  0.17300000000E+03 0.  1.
</event>
<event>
 4    1  0.5758867E+000  0.1000000E+03  0.7546771E-02  0.1280296E+00
         21   -1    0    0  503  502  0.00000000000E+00  0.00000000000E+00  0.12328026845E+04  0.12328026845E+04  0.00000000000E+00 0.  1.
         21   -1    0    0  501  503 -0.00000000000E+00 -0.00000000000E+00 -0.87737896467E+02  0.87737896467E+02  0.00000000000E+00 0.  1.
          6    1    1    2  501    0 -0.22816436549E+03 -0.15928974093E+03  0.62939854455E+03  0.70957996528E+03  0.17300000000E+03 0.  1.
         -6    1    1    2    0  502  0.22816436549E+03  0.15928974093E+03  0.51566624345E+03  0.61096061566E+03  0.17300000000E+03 0.  1.
</event>
<event>
 4    1  0.5758867E+000  0.1000000E+03  0.7546771E-02  0.1280296E+00
         21   -1    0    0  501  502  0.00000000000E+00  0.00000000000E+00  0.13881213497E+03  0.13881213497E+03  0.00000000000E+00 0.  1.
         21   -1    0    0  502  503 -0.00000000000E+00 -0.00000000000E+00 -0.51676158676E+03  0.51676158676E+03  0.00000000000E+00 0.  1.
          6    1    1    2  501    0 -0.82398476426E+02  0.10744952363E+03 -0.14844262723E+01  0.21969549965E+03  0.17300000000E+03 0.  1.
         -6    1    1    2    0  503  0.82398476426E+02 -0.10744952363E+03 -0.37646502551E+03  0.43587822208E+03  0.17300000000E+03 0.  1.
</event>
<event>
 4    1  0.5758867E+000  0.1000000E+03  0.7546771E-02  0.1280296E+00
         21   -1    0    0  501  502  0.00000000000E+00  0.00000000000E+00  0.15425076591E+03  0.15425076591E+03  0.00000000000E+00 0.  1.
         21   -1    0    0  502  503 -0.00000000000E+00 -0.00000000000E+00 -0.39431106525E+03  0.39431106525E+03  0.00000000000E+00 0.  1.
          6    1    1    2  501    0 -0.87354885889E+00 -0.12822317225E+02  0.74924632973E+02  0.18896527600E+03  0.17300000000E+03 0.  1.
         -6    1    1    2    0  503  0.87354885889E+00  0.12822317225E+02 -0.31498493231E+03  0.35959655517E+03  0.17300000000E+03 0.  1.
</event>
<event>
 4    1  0.5758867E+000  0.1000000E+03  0.7546771E-02  0.1280296E+00
         21   -1    0    0  501  502  0.00000000000E+00  0.00000000000E+00  0.14107308194E+04  0.14107308194E+04  0.00000000000E+00 0.  1.
         21   -1    0    0  502  503 -0.00000000000E+00 -0.00000000000E+00 -0.32564053971E+02  0.32564053971E+02  0.00000000000E+00 0.  1.
          6    1    1    2  501    0  0.53157042815E+02  0.11100631964E+03  0.78793813630E+03  0.81604140878E+03  0.17300000000E+03 0.  1.
         -6    1    1    2    0  503 -0.53157042815E+02 -0.11100631964E+03  0.59022862910E+03  0.62725346457E+03  0.17300000000E+03 0.  1.
</event>
<event>
 4    1  0.5758867E+000  0.1000000E+03  0.7546771E-02  0.1280296E+00
         21   -1    0    0  501  502  0.00000000000E+00  0.00000000000E+00  0.90530295666E+02  0.90530295666E+02  0.00000000000E+00 0. -1.
         21   -1    0    0  502  503 -0.00000000000E+00 -0.00000000000E+00 -0.95643794218E+03  0.95643794218E+03  0.00000000000E+00 0. -1.
          6    1    1    2  501    0  0.78509813949E+02  0.10922466022E+03 -0.83597980060E+02  0.23454517594E+03  0.17300000000E+03 0. -1.
         -6    1    1    2    0  503 -0.78509813949E+02 -0.10922466022E+03 -0.78230966645E+03  0.81242306190E+03  0.17300000000E+03 0. -1.
</event>
<event>
 4    1  0.5758867E+000  0.1000000E+03  0.7546771E-02  0.1280296E+00
         21   -1    0    0  501  502  0.00000000000E+00  0.00000000000E+00  0.10028353326E+03  0.10028353326E+03  0.00000000000E+00 0. -1.
         21   -1    0    0  502  503 -0.00000000000E+00 -0.00000000000E+00 -0.83880215612E+03  0.83880215612E+03  0.00000000000E+00 0. -1.
          6    1    1    2  501    0 -0.13253088439E+03  0.53715528239E+02 -0.71888484579E+02  0.23568357496E+03  0.17300000000E+03 0. -1.
         -6    1    1    2    0  503  0.13253088439E+03 -0.53715528239E+02 -0.66663013829E+03  0.70340211442E+03  0.17300000000E+03 0. -1.
</event>
<event>
 4    1  0.5758867E+000  0.1000000E+03  0.7546771E-02  0.1280296E+00
         21   -1    0    0  501  502  0.00000000000E+00  0.00000000000E+00  0.31820618102E+03  0.31820618102E+03  0.00000000000E+00 0.  1.
         21   -1    0    0  502  503 -0.00000000000E+00 -0.00000000000E+00 -0.10459863787E+04  0.10459863787E+04  0.00000000000E+00 0.  1.
          6    1    1    2  501    0 -0.17638131115E+03  0.24089975638E+03  0.18274682987E+03  0.39047210319E+03  0.17300000000E+03 0.  1.
         -6    1    1    2    0  503  0.17638131115E+03 -0.24089975638E+03 -0.91052702757E+03  0.97372045654E+03  0.17300000000E+03 0.  1.
</event>
<event>
 4    1  0.5758867E+000  0.1000000E+03  0.7546771E-02  0.1280296E+00
         21   -1    0    0  501  502  0.00000000000E+00  0.00000000000E+00  0.43295716817E+03  0.43295716817E+03  0.00000000000E+00 0.  1.
         21   -1    0    0  502  503 -0.00000000000E+00 -0.00000000000E+00 -0.32187274521E+03  0.32187274521E+03  0.00000000000E+00 0.  1.
          6    1    1    2  501    0  0.82872860885E+02 -0.10849147199E+03  0.36017249279E+03  0.42224582311E+03  0.17300000000E+03 0.  1.
         -6    1    1    2    0  503 -0.82872860885E+02  0.10849147199E+03 -0.24908806984E+03  0.33258409027E+03  0.17300000000E+03 0.  1.
</event>
<event>
 4    1  0.5758867E+000  0.1000000E+03  0.7546771E-02  0.1280296E+00
         21   -1    0    0  503  502  0.00000000000E+00  0.00000000000E+00  0.63991547408E+02  0.63991547408E+02  0.00000000000E+00 0. -1.
         21   -1    0    0  501  503 -0.00000000000E+00 -0.00000000000E+00 -0.15102440752E+04  0.15102440752E+04  0.00000000000E+00 0. -1.
          6    1    1    2  501    0  0.21741547608E+02  0.64640057897E+02 -0.13538956803E+04  0.13666065802E+04  0.17300000000E+03 0. -1.
         -6    1    1    2    0  502 -0.21741547608E+02 -0.64640057897E+02 -0.92356847556E+02  0.20762904245E+03  0.17300000000E+03 0. -1.
</event>
<event>
 4    1  0.5758867E+000  0.1000000E+03  0.7546771E-02  0.1280296E+00
         21   -1    0    0  503  502  0.00000000000E+00  0.00000000000E+00  0.16375367716E+03  0.16375367716E+03  0.00000000000E+00 0.  1.
         21   -1    0    0  501  503 -0.00000000000E+00 -0.00000000000E+00 -0.44304312340E+03  0.44304312340E+03  0.00000000000E+00 0.  1.
          6    1    1    2  501    0  0.11758064204E+03 -0.16546969396E+03 -0.18202382786E+03  0.32290416676E+03  0.17300000000E+03 0.  1.
         -6    1    1    2    0  502 -0.11758064204E+03  0.16546969396E+03 -0.97265618384E+02  0.28389263379E+03  0.17300000000E+03 0.  1.
</event>
<event>
 4    1  0.5758867E+000  0.1000000E+03  0.7546771E-02  0.1280296E+00
         21   -1    0    0  503  502  0.00000000000E+00  0.00000000000E+00  0.67768908483E+02  0.67768908483E+02  0.00000000000E+00 0.  1.
         21   -1    0    0  501  503 -0.00000000000E+00 -0.00000000000E+00 -0.14634047928E+04  0.14634047928E+04  0.00000000000E+00 0.  1.
          6    1    1    2  501    0  0.47983126011E+00 -0.20854026178E+02 -0.13355236679E+04  0.13468435648E+04  0.17300000000E+03 0.  1.
         -6    1    1    2    0  502 -0.47983126011E+00  0.20854026178E+02 -0.60112216457E+02  0.18433013648E+03  0.17300000000E+03 0.  1.
</event>
<event>
 4    1  0.5758867E+000  0.1000000E+03  0.7546771E-02  0.1280296E+00
         21   -1    0    0  503  502  0.00000000000E+00  0.00000000000E+00  0.48476898481E+02  0.48476898481E+02  0.00000000000E+00 0.  1.
         21   -1    0    0  501  503 -0.00000000000E+00 -0.00000000000E+00 -0.78159490359E+03  0.78159490359E+03  0.00000000000E+00 0.  1.
          6    1    1    2  501    0  0.26241173795E+02 -0.34313573232E+02 -0.53301078964E+03  0.56204583655E+03  0.17300000000E+03 0.  1.
         -6    1    1    2    0  502 -0.26241173795E+02  0.34313573232E+02 -0.20010721546E+03  0.26802596552E+03  0.17300000000E+03 0.  1.
</event>
<event>
 4    1  0.5758867E+000  0.1000000E+03  0.7546771E-02  0.1280296E+00
         21   -1    0    0  503  502  0.00000000000E+00  0.00000000000E+00  0.74877855536E+02  0.74877855536E+02  0.00000000000E+00 0.  1.
         21   -1    0    0  501  503 -0.00000000000E+00 -0.00000000000E+00 -0.26160166635E+04  0.26160166635E+04  0.00000000000E+00 0.  1.
          6    1    1    2  501    0 -0.14026821157E+03  0.49076592692E+02 -0.24236333458E+04  0.24343400087E+04  0.17300000000E+03 0.  1.
         -6    1    1    2    0  502  0.14026821157E+03 -0.49076592692E+02 -0.11750546215E+03  0.25655451032E+03  0.17300000000E+03 0.  1.
</event>
<event>
 4    1  0.5758867E+000  0.1000000E+03  0.7546771E-02  0.1280296E+00
         21   -1    0    0  503  502  0.00000000000E+00  0.00000000000E+00  0.11467479646E+03  0.11467479646E+03  0.00000000000E+00 0. -1.
         21   -1    0    0  501  503 -0.00000000000E+00 -0.00000000000E+00 -0.47811497007E+03  0.47811497007E+03  0.00000000000E+00 0. -1.
          6    1    1    2  501    0 -0.14916524030E+03  0.13585146736E+02 -0.24455240978E+03  0.33491746185E+03  0.17300000000E+03 0. -1.
         -6    1    1    2    0  502  0.14916524030E+03 -0.13585146736E+02 -0.11888776384E+03  0.25787230467E+03  0.17300000000E+03 0. -1.
</event>
<event>
 4    1  0.5758867E+000  0.1000000E+03  0.7546771E-02  0.1280296E+00
         21   -1    0    0  503  502  0.00000000000E+00  0.00000000000E+00  0.12105117201E+03  0.12105117201E+03  0.00000000000E+00 0. -1.
         21   -1    0    0  501  503 -0.00000000000E+00 -0.00000000000E+00 -0.54640425550E+03  0.54640425550E+03  0.00000000000E+00 0. -1.
          6    1    1    2  501    0  0.64576379916E+01  0.12354247530E+03 -0.40031499624E+03  0.45330512958E+03  0.17300000000E+03 0. -1.
         -6    1    1    2    0  502 -0.64576379916E+01 -0.12354247530E+03 -0.25038087256E+02  0.21415029793E+03  0.17300000000E+03 0. -1.
</event>
<event>
 4    1  0.5758867E+000  0.1000000E+03  0.7546771E-02  0.1280296E+00
         21   -1    0    0  503  502  0.00000000000E+00  0.00000000000E+00  0.35664722039E+03  0.35664722039E+03  0.00000000000E+00 0. -1.
         21   -1    0    0  501  503 -0.00000000000E+00 -0.00000000000E+00 -0.21943745192E+03  0.21943745192E+03  0.00000000000E+00 0.  1.
          6    1    1    2  501    0  0.14436849195E+02  0.21202856468E+03  0.10650091294E+02  0.27423887270E+03  0.17300000000E+03 0.  1.
         -6    1    1    2    0  502 -0.14436849195E+02 -0.21202856468E+03  0.12655967717E+03  0.30184579961E+03  0.17300000000E+03 0.  1.
</event>
<event>
 4    1  0.5758867E+000  0.1000000E+03  0.7546771E-02  0.1280296E+00
         21   -1    0    0  503  502  0.00000000000E+00  0.00000000000E+00  0.12082260222E+04  0.12082260222E+04  0.00000000000E+00 0. -1.
         21   -1    0    0  501  503 -0.00000000000E+00 -0.00000000000E+00 -0.89526221319E+02  0.89526221319E+02  0.00000000000E+00 0.  1.
          6    1    1    2  501    0  0.13494827354E+03 -0.93859275304E+02  0.11284606288E+03  0.26397695733E+03  0.17300000000E+03 0.  1.
         -6    1    1    2    0  502 -0.13494827354E+03  0.93859275304E+02  0.10058537380E+04  0.10337752862E+04  0.17300000000E+03 0.  1.
</event>
<event>
 4    1  0.5758867E+000  0.1000000E+03  0.7546771E-02  0.1280296E+00
         21   -1    0    0  503  502  0.00000000000E+00  0.00000000000E+00  0.21241033180E+03  0.21241033180E+03  0.00000000000E+00 0.  1.
         21   -1    0    0  501  503 -0.00000000000E+00 -0.00000000000E+00 -0.21060849650E+03  0.21060849650E+03  0.00000000000E+00 0. -1.
          6    1    1    2  501    0 -0.68994148460E+02  0.62402792147E+01 -0.99136418296E+02  0.21108330829E+03  0.17300000000E+03 0. -1.
         -6    1    1    2    0  502  0.68994148460E+02 -0.62402792147E+01  0.10093825359E+03  0.21193552002E+03  0.17300000000E+03 0.  1.
</event>
<event>
 4    1  0.5758867E+000  0.1000000E+03  0.7546771E-02  0.1280296E+00
         21   -1    0    0  503  502  0.00000000000E+00  0.00000000000E+00  0.39685485254E+02  0.39685485254E+02  0.00000000000E+00 0.  1.
         21   -1    0    0  501  503 -0.00000000000E+00 -0.00000000000E+00 -0.17369864047E+04  0.17369864047E+04  0.00000000000E+00 0. -1.
          6    1    1    2  501    0  0.51518824626E+02  0.13411341076E+02 -0.14921348304E+04  0.15030733201E+04  0.17300000000E+03 0. -1.
         -6    1    1    2    0  502 -0.51518824626E+02 -0.13411341076E+02 -0.20516608906E+03  0.27359856992E+03  0.17300000000E+03 0.  1.
</event>
<event>
 4    1  0.5758867E+000  0.1000000E+03  0.7546771E-02  0.1280296E+00
         21   -1    0    0  503  502  0.00000000000E+00  0.00000000000E+00  0.37567405815E+02  0.37567405815E+02  0.00000000000E+00 0. -1.
         21   -1    0    0  501  503 -0.00000000000E+00 -0.00000000000E+00 -0.98715262622E+03  0.98715262622E+03  0.00000000000E+00 0.  1.
          6    1    1    2  501    0  0.68340121325E+02 -0.41100050461E+02 -0.54986535296E+03  0.58192825393E+03  0.17300000000E+03 0.  1.
         -6    1    1    2    0  502 -0.68340121325E+02  0.41100050461E+02 -0.39971986744E+03  0.44279177811E+03  0.17300000000E+03 0.  1.
</event>
<event>
 4    1  0.5758867E+000  0.1000000E+03  0.7546771E-02  0.1280296E+00
         21   -1    0    0  503  502  0.00000000000E+00  0.00000000000E+00  0.65970432054E+03  0.65970432054E+03  0.00000000000E+00 0. -1.
         21   -1    0    0  501  503 -0.00000000000E+00 -0.00000000000E+00 -0.76321321863E+02  0.76321321863E+02  0.00000000000E+00 0.  1.
          6    1    1    2  501    0 -0.23080196820E+01  0.24777695326E+02  0.60904368475E+02  0.18508809589E+03  0.17300000000E+03 0.  1.
         -6    1    1    2    0  502  0.23080196820E+01 -0.24777695326E+02  0.52247863020E+03  0.55093754651E+03  0.17300000000E+03 0.  1.
</event>
<event>
 4    1  0.5758867E+000  0.1000000E+03  0.7546771E-02  0.1280296E+00
         21   -1    0    0  503  502  0.00000000000E+00  0.00000000000E+00  0.19675490655E+03  0.19675490655E+03  0.00000000000E+00 0.  1.
         21   -1    0    0  501  503 -0.00000000000E+00 -0.00000000000E+00 -0.21905185835E+03  0.21905185835E+03  0.00000000000E+00 0.  1.
          6    1    1    2  501    0  0.29994893814E+02 -0.11070418109E+03 -0.15080780280E+02  0.20811424579E+03  0.17300000000E+03 0.  1.
         -6    1    1    2    0  502 -0.29994893814E+02  0.11070418109E+03 -0.72161715239E+01  0.20769251912E+03  0.17300000000E+03 0.  1.
</event>
<event>
 4    1  0.5758867E+000  0.1000000E+03  0.7546771E-02  0.1280296E+00
         21   -1    0    0  503  502  0.00000000000E+00  0.00000000000E+00  0.17060815420E+03  0.17060815420E+03  0.00000000000E+00 0.  1.
         21   -1    0    0  501  503 -0.00000000000E+00 -0.00000000000E+00 -0.33203596973E+03  0.33203596973E+03  0.00000000000E+00 0.  1.
          6    1    1    2  501    0 -0.60244310109E+02 -0.14820580131E+03 -0.11612651865E+03  0.26269507947E+03  0.17300000000E+03 0.  1.
         -6    1    1    2    0  502  0.60244310109E+02  0.14820580131E+03 -0.45301296881E+02  0.23994904447E+03  0.17300000000E+03 0.  1.
</event>
<event>
 4    1  0.5758867E+000  0.1000000E+03  0.7546771E-02  0.1280296E+00
         21   -1    0    0  501  502  0.00000000000E+00  0.00000000000E+00  0.26109346902E+03  0.26109346902E+03  0.00000000000E+00 0.  1.
         21   -1    0    0  502  503 -0.00000000000E+00 -0.00000000000E+00 -0.16472316492E+03  0.16472316492E+03  0.00000000000E+00 0.  1.
          6    1    1    2  501    0  0.94602082436E+02  0.46038206116E+02  0.94213258096E+02  0.22332534210E+03  0.17300000000E+03 0.  1.
         -6    1    1    2    0  503 -0.94602082436E+02 -0.46038206116E+02  0.21570460054E+01  0.20249129184E+03  0.17300000000E+03 0.  1.
</event>
<event>
 4    1  0.5758867E+000  0.1000000E+03  0.7546771E-02  0.1280296E+00
         21   -1    0    0  503  502  0.00000000000E+00  0.00000000000E+00  0.19822577004E+02  0.19822577004E+02  0.00000000000E+00 0.  1.
         21   -1    0    0  501  503 -0.00000000000E+00 -0.00000000000E+00 -0.18383518625E+04  0.18383518625E+04  0.00000000000E+00 0.  1.
          6    1    1    2  501    0 -0.72347342593E+02 -0.31770249776E+02 -0.82953112795E+03  0.85105486250E+03  0.17300000000E+03 0.  1.
         -6    1    1    2    0  502  0.72347342593E+02  0.31770249776E+02 -0.98899815753E+03  0.10071195770E+04  0.17300000000E+03 0.  1.
</event>
<event>
 4    1  0.5758867E+000  0.1000000E+03  0.7546771E-02  0.1280296E+00
         21   -1    0    0  503  502  0.00000000000E+00  0.00000000000E+00  0.77149369831E+02  0.77149369831E+02  0.00000000000E+00 0.  1.
         21   -1    0    0  501  503 -0.00000000000E+00 -0.00000000000E+00 -0.51556615676E+03  0.51556615676E+03  0.00000000000E+00 0.  1.
          6    1    1    2  501    0  0.46799131423E+02 -0.75045616606E+02 -0.15234666168E+03  0.24690181975E+03  0.17300000000E+03 0.  1.
         -6    1    1    2    0  502 -0.46799131423E+02  0.75045616606E+02 -0.28607012525E+03  0.34581370683E+03  0.17300000000E+03 0.  1.
</event>
<event>
 4    1  0.5758867E+000  0.1000000E+03  0.7546771E-02  0.1280296E+00
         21   -1    0    0  503  502  0.00000000000E+00  0.00000000000E+00  0.42517948100E+03  0.42517948100E+03  0.00000000000E+00 0.  1.
         21   -1    0    0  501  503 -0.00000000000E+00 -0.00000000000E+00 -0.96844747362E+02  0.96844747362E+02  0.00000000000E+00 0.  1.
          6    1    1    2  501    0 -0.10341648659E+03 -0.21989012983E+02  0.15348943478E+03  0.25429607347E+03  0.17300000000E+03 0.  1.
         -6    1    1    2    0  502  0.10341648659E+03  0.21989012983E+02  0.17484529885E+03  0.26772815489E+03  0.17300000000E+03 0.  1.
</event>
<event>
 4    1  0.5758867E+000  0.1000000E+03  0.7546771E-02  0.1280296E+00
         21   -1    0    0  503  502  0.00000000000E+00  0.00000000000E+00  0.30153667900E+03  0.30153667900E+03  0.00000000000E+00 0.  1.
         21   -1    0    0  501  503 -0.00000000000E+00 -0.00000000000E+00 -0.17682702258E+03  0.17682702258E+03  0.00000000000E+00 0.  1.
          6    1    1    2  501    0 -0.73954755594E+02 -0.11194081774E+03 -0.13697000160E+02  0.21935510107E+03  0.17300000000E+03 0.  1.
         -6    1    1    2    0  502  0.73954755594E+02  0.11194081774E+03  0.13840665659E+03  0.25900860051E+03  0.17300000000E+03 0.  1.
</event>
<event>
 4    1  0.5758867E+000  0.1000000E+03  0.7546771E-02  0.1280296E+00
         21   -1    0    0  503  502  0.00000000000E+00  0.00000000000E+00  0.67637528815E+03  0.67637528815E+03  0.00000000000E+00 0.  1.
         21   -1    0    0  501  503 -0.00000000000E+00 -0.00000000000E+00 -0.19846153446E+04  0.19846153446E+04  0.00000000000E+00 0.  1.
          6    1    1    2  501    0  0.40917694326E+03 -0.59712033347E+03 -0.16738023641E+04  0.18318083463E+04  0.17300000000E+03 0.  1.
         -6    1    1    2    0  502 -0.40917694326E+03  0.59712033347E+03  0.36556230758E+03  0.82918228651E+03  0.17300000000E+03 0.  1.
</event>
<event>
 4    1  0.5758867E+000  0.1000000E+03  0.7546771E-02  0.1280296E+00
         21   -1    0    0  503  502  0.00000000000E+00  0.00000000000E+00  0.17150519708E+04  0.17150519708E+04  0.00000000000E+00 0. -1.
         21   -1    0    0  501  503 -0.00000000000E+00 -0.00000000000E+00 -0.23789368020E+03  0.23789368020E+03  0.00000000000E+00 0.  1.
          6    1    1    2  501    0 -0.17405780117E+03 -0.14690581724E+03 -0.13452847083E+03  0.31607648877E+03  0.17300000000E+03 0.  1.
         -6    1    1    2    0  502  0.17405780117E+03  0.14690581724E+03  0.16116867614E+04  0.16368691622E+04  0.17300000000E+03 0.  1.
</event>
<event>
 4    1  0.5758867E+000  0.1000000E+03  0.7546771E-02  0.1280296E+00
         21   -1    0    0  503  502  0.00000000000E+00  0.00000000000E+00  0.81918301135E+03  0.81918301135E+03  0.00000000000E+00 0. -1.
         21   -1    0    0  501  503 -0.00000000000E+00 -0.00000000000E+00 -0.76289637226E+02  0.76289637226E+02  0.00000000000E+00 0.  1.
          6    1    1    2  501    0 -0.64369657474E+02 -0.10379926266E+03  0.13351505349E+03  0.25034577935E+03  0.17300000000E+03 0.  1.
         -6    1    1    2    0  502  0.64369657474E+02  0.10379926266E+03  0.60937832064E+03  0.64512686922E+03  0.17300000000E+03 0.  1.
</event>
<event>
 4    1  0.5758867E+000  0.1000000E+03  0.7546771E-02  0.1280296E+00
         21   -1    0    0  503  502  0.00000000000E+00  0.00000000000E+00  0.19951739773E+03  0.19951739773E+03  0.00000000000E+00 0. -1.
         21   -1    0    0  501  503 -0.00000000000E+00 -0.00000000000E+00 -0.26424924737E+03  0.26424924737E+03  0.00000000000E+00 0.  1.
          6    1    1    2  501    0  0.14275287211E+03  0.41221290972E+02 -0.59383811052E+02  0.23565443840E+03  0.17300000000E+03 0.  1.
         -6    1    1    2    0  502 -0.14275287211E+03 -0.41221290972E+02 -0.53480385876E+01  0.22811220669E+03  0.17300000000E+03 0.  1.
</event>
<event>
 4    1  0.5758867E+000  0.1000000E+03  0.7546771E-02  0.1280296E+00
         21   -1    0    0  501  502  0.00000000000E+00  0.00000000000E+00  0.26976909918E+03  0.26976909918E+03  0.00000000000E+00 0. -1.
         21   -1    0    0  502  503 -0.00000000000E+00 -0.00000000000E+00 -0.43243372110E+03  0.43243372110E+03  0.00000000000E+00 0.  1.
          6    1    1    2  501    0 -0.68194440280E+01  0.13127621121E+02  0.22101658489E+03  0.28106257320E+03  0.17300000000E+03 0.  1.
         -6    1    1    2    0  503  0.68194440280E+01 -0.13127621121E+02 -0.38368120682E+03  0.42114024709E+03  0.17300000000E+03 0.  1.
</event>
<event>
 4    1  0.5758867E+000  0.1000000E+03  0.7546771E-02  0.1280296E+00
         21   -1    0    0  501  502  0.00000000000E+00  0.00000000000E+00  0.20229565857E+03  0.20229565857E+03  0.00000000000E+00 0. -1.
         21   -1    0    0  502  503 -0.00000000000E+00 -0.00000000000E+00 -0.17657218897E+03  0.17657218897E+03  0.00000000000E+00 0.  1.
          6    1    1    2  501    0 -0.14984241564E+02 -0.38503461925E+02  0.76913711066E+02  0.19378277278E+03  0.17300000000E+03 0.  1.
         -6    1    1    2    0  503  0.14984241564E+02  0.38503461925E+02 -0.51190241468E+02  0.18508507475E+03  0.17300000000E+03 0.  1.
</event>
<event>
 4    1  0.5758867E+000  0.1000000E+03  0.7546771E-02  0.1280296E+00
         21   -1    0    0  501  502  0.00000000000E+00  0.00000000000E+00  0.40185454888E+03  0.40185454888E+03  0.00000000000E+00 0. -1.
         21   -1    0    0  502  503 -0.00000000000E+00 -0.00000000000E+00 -0.18246693297E+03  0.18246693297E+03  0.00000000000E+00 0.  1.
          6    1    1    2  501    0 -0.12004348744E+02 -0.68978598034E+02  0.32137971021E+03  0.37163970389E+03  0.17300000000E+03 0.  1.
         -6    1    1    2    0  503  0.12004348744E+02  0.68978598034E+02 -0.10199209430E+03  0.21268177796E+03  0.17300000000E+03 0.  1.
</event>
<event>
 4    1  0.5758867E+000  0.1000000E+03  0.7546771E-02  0.1280296E+00
         21   -1    0    0  501  502  0.00000000000E+00  0.00000000000E+00  0.15198011389E+03  0.15198011389E+03  0.00000000000E+00 0. -1.
         21   -1    0    0  502  503 -0.00000000000E+00 -0.00000000000E+00 -0.40196015196E+03  0.40196015196E+03  0.00000000000E+00 0.  1.
          6    1    1    2  501    0  0.16006771523E+03 -0.23080556469E+02 -0.45700104910E+02  0.24118848466E+03  0.17300000000E+03 0.  1.
         -6    1    1    2    0  503 -0.16006771523E+03  0.23080556469E+02 -0.20427993316E+03  0.31275178119E+03  0.17300000000E+03 0.  1.
</event>
<event>
 4    1  0.5758867E+000  0.1000000E+03  0.7546771E-02  0.1280296E+00
         21   -1    0    0  503  502  0.00000000000E+00  0.00000000000E+00  0.15917288211E+03  0.15917288211E+03  0.00000000000E+00 0. -1.
         21   -1    0    0  501  503 -0.00000000000E+00 -0.00000000000E+00 -0.54606561919E+03  0.54606561919E+03  0.00000000000E+00 0.  1.
          6    1    1    2  501    0  0.50266678122E+00  0.78685857410E+02 -0.46301719364E+03  0.50050538303E+03  0.17300000000E+03 0.  1.
         -6    1    1    2    0  502 -0.50266678122E+00 -0.78685857410E+02  0.76124456568E+02  0.20473311827E+03  0.17300000000E+03 0. -1.
</event>
<event>
 4    1  0.5758867E+000  0.1000000E+03  0.7546771E-02  0.1280296E+00
         21   -1    0    0  501  502  0.00000000000E+00  0.00000000000E+00  0.10432499682E+03  0.10432499682E+03  0.00000000000E+00 0. -1.
         21   -1    0    0  502  503 -0.00000000000E+00 -0.00000000000E+00 -0.61055481840E+03  0.61055481840E+03  0.00000000000E+00 0.  1.
          6    1    1    2  501    0  0.72498339788E+02  0.17898302933E+02 -0.15321402541E+02  0.18905053265E+03  0.17300000000E+03 0. -1.
         -6    1    1    2    0  503 -0.72498339788E+02 -0.17898302933E+02 -0.49090841904E+03  0.52582928256E+03  0.17300000000E+03 0. -1.
</event>
<event>
 4    1  0.5758867E+000  0.1000000E+03  0.7546771E-02  0.1280296E+00
         21   -1    0    0  501  502  0.00000000000E+00  0.00000000000E+00  0.22742278378E+03  0.22742278378E+03  0.00000000000E+00 0. -1.
         21   -1    0    0  502  503 -0.00000000000E+00 -0.00000000000E+00 -0.47326032261E+03  0.47326032261E+03  0.00000000000E+00 0. -1.
          6    1    1    2  501    0 -0.18771062064E+02  0.12536458843E+03  0.14219340774E+03  0.25732585958E+03  0.17300000000E+03 0. -1.
         -6    1    1    2    0  503  0.18771062064E+02 -0.12536458843E+03 -0.38803094657E+03  0.44335724681E+03  0.17300000000E+03 0. -1.
</event>
<event>
 4    1  0.5758867E+000  0.1000000E+03  0.7546771E-02  0.1280296E+00
         21   -1    0    0  503  502  0.00000000000E+00  0.00000000000E+00  0.89256633539E+02  0.89256633539E+02  0.00000000000E+00 0.  1.
         21   -1    0    0  501  503 -0.00000000000E+00 -0.00000000000E+00 -0.59314620651E+03  0.59314620651E+03  0.00000000000E+00 0. -1.
          6    1    1    2  501    0 -0.97549987075E+02 -0.11525366383E+03 -0.27362884395E+03  0.35721303342E+03  0.17300000000E+03 0. -1.
         -6    1    1    2    0  502  0.97549987075E+02  0.11525366383E+03 -0.23026072902E+03  0.32518980662E+03  0.17300000000E+03 0.  1.
</event>
<event>
 4    1  0.5758867E+000  0.1000000E+03  0.7546771E-02  0.1280296E+00
         21   -1    0    0  503  502  0.00000000000E+00  0.00000000000E+00  0.19843731228E+04  0.19843731228E+04  0.00000000000E+00 0.  1.
         21   -1    0    0  501  503 -0.00000000000E+00 -0.00000000000E+00 -0.22766856636E+02  0.22766856636E+02  0.00000000000E+00 0.  1.
          6    1    1    2  501    0 -0.74945492344E+02  0.88063744644E+02  0.77625115057E+03  0.80365844654E+03  0.17300000000E+03 0.  1.
         -6    1    1    2    0  502  0.74945492344E+02 -0.88063744644E+02  0.11853551156E+04  0.12034815329E+04  0.17300000000E+03 0.  1.
</event>
<event>
 4    1  0.5758867E+000  0.1000000E+03  0.7546771E-02  0.1280296E+00
         21   -1    0    0  503  502  0.00000000000E+00  0.00000000000E+00  0.14239351724E+03  0.14239351724E+03  0.00000000000E+00 0. -1.
         21   -1    0    0  501  503 -0.00000000000E+00 -0.00000000000E+00 -0.44666956616E+03  0.44666956616E+03  0.00000000000E+00 0. -1.
          6    1    1    2  501    0  0.13494921706E+03 -0.27577339850E+02 -0.29374428812E+03  0.36767717860E+03  0.17300000000E+03 0. -1.
         -6    1    1    2    0  502 -0.13494921706E+03  0.27577339850E+02 -0.10531760801E+02  0.22138590480E+03  0.17300000000E+03 0. -1.
</event>
<event>
 4    1  0.5758867E+000  0.1000000E+03  0.7546771E-02  0.1280296E+00
         21   -1    0    0  503  502  0.00000000000E+00  0.00000000000E+00  0.39919644640E+03  0.39919644640E+03  0.00000000000E+00 0. -1.
         21   -1    0    0  501  503 -0.00000000000E+00 -0.00000000000E+00 -0.16880954444E+03  0.16880954444E+03  0.00000000000E+00 0.  1.
          6    1    1    2  501    0 -0.14493983971E+03  0.57996378711E+01 -0.24988117229E+02  0.22714444510E+03  0.17300000000E+03 0.  1.
         -6    1    1    2    0  502  0.14493983971E+03 -0.57996378711E+01  0.25537501919E+03  0.34086154574E+03  0.17300000000E+03 0. -1.
</event>
<event>
 4    1  0.5758867E+000  0.1000000E+03  0.7546771E-02  0.1280296E+00
         21   -1    0    0  503  502  0.00000000000E+00  0.00000000000E+00  0.25054691125E+03  0.25054691125E+03  0.00000000000E+00 0. -1.
         21   -1    0    0  501  503 -0.00000000000E+00 -0.00000000000E+00 -0.15699908567E+03  0.15699908567E+03  0.00000000000E+00 0.  1.
          6    1    1    2  501    0  0.56279702614E+01 -0.46161476275E+02 -0.40673138170E+02  0.18370046301E+03  0.17300000000E+03 0.  1.
         -6    1    1    2    0  502 -0.56279702614E+01  0.46161476275E+02  0.13422096375E+03  0.22384553391E+03  0.17300000000E+03 0. -1.
</event>
<event>
 4    1  0.5758867E+000  0.1000000E+03  0.7546771E-02  0.1280296E+00
         21   -1    0    0  501  502  0.00000000000E+00  0.00000000000E+00  0.45715411277E+03  0.45715411277E+03  0.00000000000E+00 0. -1.
         21   -1    0    0  502  503 -0.00000000000E+00 -0.00000000000E+00 -0.86208893199E+02  0.86208893199E+02  0.00000000000E+00 0. -1.
          6    1    1    2  501    0 -0.18505112359E+02  0.62565763020E+02  0.28439373793E+03  0.33921337247E+03  0.17300000000E+03 0. -1.
         -6    1    1    2    0  503  0.18505112359E+02 -0.62565763020E+02  0.86551481640E+02  0.20414963350E+03  0.17300000000E+03 0. -1.
</event>
<event>
 4    1  0.5758867E+000  0.1000000E+03  0.7546771E-02  0.1280296E+00
         21   -1    0    0  501  502  0.00000000000E+00  0.00000000000E+00  0.14847086839E+03  0.14847086839E+03  0.00000000000E+00 0. -1.
         21   -1    0    0  502  503 -0.00000000000E+00 -0.00000000000E+00 -0.22964682331E+03  0.22964682331E+03  0.00000000000E+00 0. -1.
          6    1    1    2  501    0  0.40812706779E+02  0.38610001883E+02 -0.73134487840E+02  0.19604607262E+03  0.17300000000E+03 0. -1.
         -6    1    1    2    0  503 -0.40812706779E+02 -0.38610001883E+02 -0.80414670836E+01  0.18207161908E+03  0.17300000000E+03 0. -1.
</event>
<event>
 4    1  0.5758867E+000  0.1000000E+03  0.7546771E-02  0.1280296E+00
         21   -1    0    0  503  502  0.00000000000E+00  0.00000000000E+00  0.37749641730E+03  0.37749641730E+03  0.00000000000E+00 0. -1.
         21   -1    0    0  501  503 -0.00000000000E+00 -0.00000000000E+00 -0.19953179411E+03  0.19953179411E+03  0.00000000000E+00 0. -1.
          6    1    1    2  501    0 -0.19349553965E+02 -0.71053416410E+02 -0.12118956921E+03  0.22369377485E+03  0.17300000000E+03 0. -1.
         -6    1    1    2    0  502  0.19349553965E+02  0.71053416410E+02  0.29915419240E+03  0.35333443655E+03  0.17300000000E+03 0. -1.
</event>
<event>
 4    1  0.5758867E+000  0.1000000E+03  0.7546771E-02  0.1280296E+00
         21   -1    0    0  501  502  0.00000000000E+00  0.00000000000E+00  0.30531779376E+03  0.30531779376E+03  0.00000000000E+00 0. -1.
         21   -1    0    0  502  503 -0.00000000000E+00 -0.00000000000E+00 -0.11082263358E+03  0.11082263358E+03  0.00000000000E+00 0. -1.
          6    1    1    2  501    0 -0.34148305002E+01 -0.51504697130E+02  0.13712320525E+03  0.22670723039E+03  0.17300000000E+03 0. -1.
         -6    1    1    2    0  503  0.34148305002E+01  0.51504697130E+02  0.57371954934E+02  0.18943319695E+03  0.17300000000E+03 0. -1.
</event>
<event>
 4    1  0.5758867E+000  0.1000000E+03  0.7546771E-02  0.1280296E+00
         21   -1    0    0  501  502  0.00000000000E+00  0.00000000000E+00  0.39125887813E+02  0.39125887813E+02  0.00000000000E+00 0. -1.
         21   -1    0    0  502  503 -0.00000000000E+00 -0.00000000000E+00 -0.16536383566E+04  0.16536383566E+04  0.00000000000E+00 0. -1.
          6    1    1    2  501    0  0.41073495058E+02  0.50507807207E+02 -0.22582435995E+03  0.29182822368E+03  0.17300000000E+03 0. -1.
         -6    1    1    2    0  503 -0.41073495058E+02 -0.50507807207E+02 -0.13886881088E+04  0.14009360207E+04  0.17300000000E+03 0. -1.
</event>
<event>
 4    1  0.5758867E+000  0.1000000E+03  0.7546771E-02  0.1280296E+00
         21   -1    0    0  501  502  0.00000000000E+00  0.00000000000E+00  0.58590560223E+03  0.58590560223E+03  0.00000000000E+00 0. -1.
         21   -1    0    0  502  503 -0.00000000000E+00 -0.00000000000E+00 -0.61799909296E+02  0.61799909296E+02  0.00000000000E+00 0. -1.
          6    1    1    2  501    0 -0.73650514696E+02  0.96360556556E+01  0.21505200035E+03  0.28582094874E+03  0.17300000000E+03 0. -1.
         -6    1    1    2    0  503  0.73650514696E+02 -0.96360556556E+01  0.30905369258E+03  0.36188456278E+03  0.17300000000E+03 0. -1.
</event>
<event>
 4    1  0.5758867E+000  0.1000000E+03  0.7546771E-02  0.1280296E+00
         21   -1    0    0  501  502  0.00000000000E+00  0.00000000000E+00  0.77208695210E+03  0.77208695210E+03  0.00000000000E+00 0. -1.
         21   -1    0    0  502  503 -0.00000000000E+00 -0.00000000000E+00 -0.64055539690E+02  0.64055539690E+02  0.00000000000E+00 0. -1.
          6    1    1    2  501    0 -0.30700720405E+02 -0.94996479559E+01  0.60967531775E+03  0.63455950912E+03  0.17300000000E+03 0. -1.
         -6    1    1    2    0  503  0.30700720405E+02  0.94996479559E+01  0.98356094664E+02  0.20158298267E+03  0.17300000000E+03 0. -1.
</event>
<event>
 4    1  0.5758867E+000  0.1000000E+03  0.7546771E-02  0.1280296E+00
         21   -1    0    0  503  502  0.00000000000E+00  0.00000000000E+00  0.92634404700E+03  0.92634404700E+03  0.00000000000E+00 0. -1.
         21   -1    0    0  501  503 -0.00000000000E+00 -0.00000000000E+00 -0.41998256508E+02  0.41998256508E+02  0.00000000000E+00 0. -1.
          6    1    1    2  501    0  0.70216631898E+02  0.40609831742E+02  0.32201071157E+03  0.37443214632E+03  0.17300000000E+03 0. -1.
         -6    1    1    2    0  502 -0.70216631898E+02 -0.40609831742E+02  0.56233507892E+03  0.59391015719E+03  0.17300000000E+03 0. -1.
</event>
<event>
 4    1  0.5758867E+000  0.1000000E+03  0.7546771E-02  0.1280296E+00
         21   -1    0    0  503  502  0.00000000000E+00  0.00000000000E+00  0.26480047902E+03  0.26480047902E+03  0.00000000000E+00 0.  1.
         21   -1    0    0  501  503 -0.00000000000E+00 -0.00000000000E+00 -0.17680762164E+03  0.17680762164E+03  0.00000000000E+00 0. -1.
          6    1    1    2  501    0  0.58663671562E+02 -0.10333568246E+03 -0.97118485505E+01  0.21010237893E+03  0.17300000000E+03 0. -1.
         -6    1    1    2    0  502 -0.58663671562E+02  0.10333568246E+03  0.97704705938E+02  0.23150572173E+03  0.17300000000E+03 0.  1.
</event>
<event>
 4    1  0.5758867E+000  0.1000000E+03  0.7546771E-02  0.1280296E+00
         21   -1    0    0  501  502  0.00000000000E+00  0.00000000000E+00  0.12237511972E+03  0.12237511972E+03  0.00000000000E+00 0. -1.
         21   -1    0    0  502  503 -0.00000000000E+00 -0.00000000000E+00 -0.27110255701E+03  0.27110255701E+03  0.00000000000E+00 0. -1.
          6    1    1    2  501    0 -0.92366492590E+01  0.30503890563E+02 -0.23340727311E+02  0.17745307149E+03  0.17300000000E+03 0. -1.
         -6    1    1    2    0  503  0.92366492590E+01 -0.30503890563E+02 -0.12538670998E+03  0.21602460524E+03  0.17300000000E+03 0. -1.
</event>
<event>
 4    1  0.5758867E+000  0.1000000E+03  0.7546771E-02  0.1280296E+00
         21   -1    0    0  501  502  0.00000000000E+00  0.00000000000E+00  0.66580468334E+03  0.66580468334E+03  0.00000000000E+00 0. -1.
         21   -1    0    0  502  503 -0.00000000000E+00 -0.00000000000E+00 -0.75611209524E+02  0.75611209524E+02  0.00000000000E+00 0. -1.
          6    1    1    2  501    0 -0.86242742513E+02 -0.11126203804E+03  0.33544064810E+03  0.40282313754E+03  0.17300000000E+03 0. -1.
         -6    1    1    2    0  503  0.86242742513E+02  0.11126203804E+03  0.25475282572E+03  0.33859275532E+03  0.17300000000E+03 0. -1.
</event>
<event>
 4    1  0.5758867E+000  0.1000000E+03  0.7546771E-02  0.1280296E+00
         21   -1    0    0  503  502  0.00000000000E+00  0.00000000000E+00  0.18770924529E+03  0.18770924529E+03  0.00000000000E+00 0.  1.
         21   -1    0    0  501  503 -0.00000000000E+00 -0.00000000000E+00 -0.32737707337E+03  0.32737707337E+03  0.00000000000E+00 0.  1.
          6    1    1    2  501    0 -0.12338706466E+02 -0.10080916989E+03 -0.22113171513E+03  0.29856819631E+03  0.17300000000E+03 0.  1.
         -6    1    1    2    0  502  0.12338706466E+02  0.10080916989E+03  0.81463887056E+02  0.21651812235E+03  0.17300000000E+03 0.  1.
</event>
<event>
 4    1  0.5758867E+000  0.1000000E+03  0.7546771E-02  0.1280296E+00
         21   -1    0    0  503  502  0.00000000000E+00  0.00000000000E+00  0.41034318501E+03  0.41034318501E+03  0.00000000000E+00 0.  1.
         21   -1    0    0  501  503 -0.00000000000E+00 -0.00000000000E+00 -0.14510303490E+03  0.14510303490E+03  0.00000000000E+00 0.  1.
          6    1    1    2  501    0 -0.95627423446E+02  0.76129080452E+02 -0.52457631078E+01  0.21188855334E+03  0.17300000000E+03 0.  1.
         -6    1    1    2    0  502  0.95627423446E+02 -0.76129080452E+02  0.27048591322E+03  0.34355766656E+03  0.17300000000E+03 0.  1.
</event>
<event>
 4    1  0.5758867E+000  0.1000000E+03  0.7546771E-02  0.1280296E+00
         21   -1    0    0  503  502  0.00000000000E+00  0.00000000000E+00  0.36071732761E+03  0.36071732761E+03  0.00000000000E+00 0.  1.
         21   -1    0    0  501  503 -0.00000000000E+00 -0.00000000000E+00 -0.21220274748E+03  0.21220274748E+03  0.00000000000E+00 0.  1.
          6    1    1    2  501    0  0.15852926997E+03 -0.10022131852E+03  0.18500251190E+03  0.31516784660E+03  0.17300000000E+03 0.  1.
         -6    1    1    2    0  502 -0.15852926997E+03  0.10022131852E+03 -0.36487931773E+02  0.25775222848E+03  0.17300000000E+03 0.  1.
</event>
<event>
 4    1  0.5758867E+000  0.1000000E+03  0.7546771E-02  0.1280296E+00
         21   -1    0    0  503  502  0.00000000000E+00  0.00000000000E+00  0.14865118674E+03  0.14865118674E+03  0.00000000000E+00 0. -1.
         21   -1    0    0  501  503 -0.00000000000E+00 -0.00000000000E+00 -0.31238206387E+03  0.31238206387E+03  0.00000000000E+00 0. -1.
          6    1    1    2  501    0 -0.63108229588E+02  0.40953006797E+02 -0.19327774963E+03  0.27008347952E+03  0.17300000000E+03 0. -1.
         -6    1    1    2    0  502  0.63108229588E+02 -0.40953006797E+02  0.29546872499E+02  0.19094977110E+03  0.17300000000E+03 0. -1.
</event>
<event>
 4    1  0.5758867E+000  0.1000000E+03  0.7546771E-02  0.1280296E+00
         21   -1    0    0  503  502  0.00000000000E+00  0.00000000000E+00  0.96906975954E+03  0.96906975954E+03  0.00000000000E+00 0. -1.
         21   -1    0    0  501  503 -0.00000000000E+00 -0.00000000000E+00 -0.37908519053E+02  0.37908519053E+02  0.00000000000E+00 0. -1.
          6    1    1    2  501    0 -0.24997453883E+01 -0.65886347201E+02  0.33529731257E+03  0.38301507449E+03  0.17300000000E+03 0. -1.
         -6    1    1    2    0  502  0.24997453883E+01  0.65886347201E+02  0.59586392792E+03  0.62396320410E+03  0.17300000000E+03 0. -1.
</event>
<event>
 4    1  0.5758867E+000  0.1000000E+03  0.7546771E-02  0.1280296E+00
         21   -1    0    0  501  502  0.00000000000E+00  0.00000000000E+00  0.54717633157E+03  0.54717633157E+03  0.00000000000E+00 0. -1.
         21   -1    0    0  502  503 -0.00000000000E+00 -0.00000000000E+00 -0.95938497615E+02  0.95938497615E+02  0.00000000000E+00 0.  1.
          6    1    1    2  501    0 -0.33469084149E+02  0.71839399023E+02  0.40471864208E+03  0.44722171022E+03  0.17300000000E+03 0. -1.
         -6    1    1    2    0  503  0.33469084149E+02 -0.71839399023E+02  0.46519191878E+02  0.19589311897E+03  0.17300000000E+03 0. -1.
</event>
<event>
 4    1  0.5758867E+000  0.1000000E+03  0.7546771E-02  0.1280296E+00
         21   -1    0    0  503  502  0.00000000000E+00  0.00000000000E+00  0.38966694983E+02  0.38966694983E+02  0.00000000000E+00 0.  1.
         21   -1    0    0  501  503 -0.00000000000E+00 -0.00000000000E+00 -0.11020936146E+04  0.11020936146E+04  0.00000000000E+00 0.  1.
          6    1    1    2  501    0  0.73836341678E+02  0.52958830407E+02 -0.72149774253E+03  0.74749209731E+03  0.17300000000E+03 0.  1.
         -6    1    1    2    0  502 -0.73836341678E+02 -0.52958830407E+02 -0.34162917708E+03  0.39356821226E+03  0.17300000000E+03 0.  1.
</event>
<event>
 4    1  0.5758867E+000  0.1000000E+03  0.7546771E-02  0.1280296E+00
         21   -1    0    0  503  502  0.00000000000E+00  0.00000000000E+00  0.19931968394E+03  0.19931968394E+03  0.00000000000E+00 0.  1.
         21   -1    0    0  501  503 -0.00000000000E+00 -0.00000000000E+00 -0.27037978965E+03  0.27037978965E+03  0.00000000000E+00 0.  1.
          6    1    1    2  501    0 -0.12102691673E+03  0.87386424221E+02 -0.76984179319E+02  0.24112126737E+03  0.17300000000E+03 0.  1.
         -6    1    1    2    0  502  0.12102691673E+03 -0.87386424221E+02  0.59240736093E+01  0.22857820622E+03  0.17300000000E+03 0.  1.
</event>
<event>
 4    1  0.5758867E+000  0.1000000E+03  0.7546771E-02  0.1280296E+00
         21   -1    0    0  503  502  0.00000000000E+00  0.00000000000E+00  0.28891482085E+03  0.28891482085E+03  0.00000000000E+00 0.  1.
         21   -1    0    0  501  503 -0.00000000000E+00 -0.00000000000E+00 -0.15941934091E+03  0.15941934091E+03  0.00000000000E+00 0.  1.
          6    1    1    2  501    0 -0.89647036681E+01  0.11101929702E+02 -0.67068725401E+02  0.18609361268E+03  0.17300000000E+03 0.  1.
         -6    1    1    2    0  502  0.89647036681E+01 -0.11101929702E+02  0.19656420534E+03  0.26224054907E+03  0.17300000000E+03 0.  1.
</event>
<event>
 4    1  0.5758867E+000  0.1000000E+03  0.7546771E-02  0.1280296E+00
         21   -1    0    0  503  502  0.00000000000E+00  0.00000000000E+00  0.10324234443E+03  0.10324234443E+03  0.00000000000E+00 0. -1.
         21   -1    0    0  501  503 -0.00000000000E+00 -0.00000000000E+00 -0.68505668789E+03  0.68505668789E+03  0.00000000000E+00 0. -1.
          6    1    1    2  501    0 -0.10377785911E+03 -0.52613508999E+02 -0.53560516637E+03  0.57475205055E+03  0.17300000000E+03 0. -1.
         -6    1    1    2    0  502  0.10377785911E+03  0.52613508999E+02 -0.46209177090E+02  0.21354698176E+03  0.17300000000E+03 0. -1.
</event>
<event>
 4    1  0.5758867E+000  0.1000000E+03  0.7546771E-02  0.1280296E+00
         21   -1    0    0  503  502  0.00000000000E+00  0.00000000000E+00  0.14388138041E+03  0.14388138041E+03  0.00000000000E+00 0. -1.
         21   -1    0    0  501  503 -0.00000000000E+00 -0.00000000000E+00 -0.59590280535E+03  0.59590280535E+03  0.00000000000E+00 0. -1.
          6    1    1    2  501    0  0.17158175741E+03 -0.93732274594E+02 -0.39352325217E+03  0.47224526337E+03  0.17300000000E+03 0. -1.
         -6    1    1    2    0  502 -0.17158175741E+03  0.93732274594E+02 -0.58498172769E+02  0.26753892239E+03  0.17300000000E+03 0. -1.
</event>
<event>
 4    1  0.5758867E+000  0.1000000E+03  0.7546771E-02  0.1280296E+00
         21   -1    0    0  503  502  0.00000000000E+00  0.00000000000E+00  0.19497679614E+03  0.19497679614E+03  0.00000000000E+00 0.  1.
         21   -1    0    0  501  503 -0.00000000000E+00 -0.00000000000E+00 -0.39725600817E+03  0.39725600817E+03  0.00000000000E+00 0.  1.
          6    1    1    2  501    0 -0.11927087314E+03  0.25434172554E+02 -0.29340703598E+03  0.36178602388E+03  0.17300000000E+03 0.  1.
         -6    1    1    2    0  502  0.11927087314E+03 -0.25434172554E+02  0.91127823943E+02  0.23044678043E+03  0.17300000000E+03 0.  1.
</event>
<event>
 4    1  0.5758867E+000  0.1000000E+03  0.7546771E-02  0.1280296E+00
         21   -1    0    0  503  502  0.00000000000E+00  0.00000000000E+00  0.56726680961E+03  0.56726680961E+03  0.00000000000E+00 0.  1.
         21   -1    0    0  501  503 -0.00000000000E+00 -0.00000000000E+00 -0.22216165949E+03  0.22216165949E+03  0.00000000000E+00 0.  1.
          6    1    1    2  501    0 -0.15452548248E+02  0.10426384022E+03 -0.15158454375E+03  0.25301502629E+03  0.17300000000E+03 0.  1.
         -6    1    1    2    0  502  0.15452548248E+02 -0.10426384022E+03  0.49668969388E+03  0.53641344281E+03  0.17300000000E+03 0.  1.
</event>
<event>
 4    1  0.5758867E+000  0.1000000E+03  0.7546771E-02  0.1280296E+00
         21   -1    0    0  503  502  0.00000000000E+00  0.00000000000E+00  0.79564009078E+03  0.79564009078E+03  0.00000000000E+00 0.  1.
         21   -1    0    0  501  503 -0.00000000000E+00 -0.00000000000E+00 -0.40203463973E+02  0.40203463973E+02  0.00000000000E+00 0.  1.
          6    1    1    2  501    0  0.20480092740E+02  0.40303371230E+02  0.36876173043E+03  0.40982680459E+03  0.17300000000E+03 0.  1.
         -6    1    1    2    0  502 -0.20480092740E+02 -0.40303371230E+02  0.38667489637E+03  0.42601675016E+03  0.17300000000E+03 0.  1.
</event>
<event>
 4    1  0.5758867E+000  0.1000000E+03  0.7546771E-02  0.1280296E+00
         21   -1    0    0  501  502  0.00000000000E+00  0.00000000000E+00  0.23209040705E+03  0.23209040705E+03  0.00000000000E+00 0.  1.
         21   -1    0    0  502  503 -0.00000000000E+00 -0.00000000000E+00 -0.39075536299E+03  0.39075536299E+03  0.00000000000E+00 0.  1.
          6    1    1    2  501    0  0.22685737578E+02 -0.19709490857E+03  0.71947577357E+02  0.27288550632E+03  0.17300000000E+03 0.  1.
         -6    1    1    2    0  503 -0.22685737578E+02  0.19709490857E+03 -0.23061253329E+03  0.34996026372E+03  0.17300000000E+03 0.  1.
</event>
<event>
 4    1  0.5758867E+000  0.1000000E+03  0.7546771E-02  0.1280296E+00
         21   -1    0    0  501  502  0.00000000000E+00  0.00000000000E+00  0.68113162156E+03  0.68113162156E+03  0.00000000000E+00 0. -1.
         21   -1    0    0  502  503 -0.00000000000E+00 -0.00000000000E+00 -0.24230891812E+03  0.24230891812E+03  0.00000000000E+00 0.  1.
          6    1    1    2  501    0  0.26720217215E+03  0.78022054329E+02  0.49225015549E+03  0.59137438002E+03  0.17300000000E+03 0. -1.
         -6    1    1    2    0  503 -0.26720217215E+03 -0.78022054329E+02 -0.53427452049E+02  0.33206615966E+03  0.17300000000E+03 0.  1.
</event>
<event>
 4    1  0.5758867E+000  0.1000000E+03  0.7546771E-02  0.1280296E+00
         21   -1    0    0  501  502  0.00000000000E+00  0.00000000000E+00  0.21873206391E+03  0.21873206391E+03  0.00000000000E+00 0. -1.
         21   -1    0    0  502  503 -0.00000000000E+00 -0.00000000000E+00 -0.29620652300E+03  0.29620652300E+03  0.00000000000E+00 0.  1.
          6    1    1    2  501    0  0.12952715336E+02  0.13598357619E+03  0.90013678460E+02  0.23809823212E+03  0.17300000000E+03 0. -1.
         -6    1    1    2    0  503 -0.12952715336E+02 -0.13598357619E+03 -0.16748813755E+03  0.27684035480E+03  0.17300000000E+03 0.  1.
</event>
<event>
 4    1  0.5758867E+000  0.1000000E+03  0.7546771E-02  0.1280296E+00
         21   -1    0    0  501  502  0.00000000000E+00  0.00000000000E+00  0.73492404642E+03  0.73492404642E+03  0.00000000000E+00 0. -1.
         21   -1    0    0  502  503 -0.00000000000E+00 -0.00000000000E+00 -0.70667500600E+02  0.70667500600E+02  0.00000000000E+00 0.  1.
          6    1    1    2  501    0 -0.35141280332E+02 -0.51211451361E+02  0.94018704163E+02  0.20646074461E+03  0.17300000000E+03 0. -1.
         -6    1    1    2    0  503  0.35141280332E+02  0.51211451361E+02  0.57023784166E+03  0.59913080240E+03  0.17300000000E+03 0.  1.
</event>
<event>
 4    1  0.5758867E+000  0.1000000E+03  0.7546771E-02  0.1280296E+00
         21   -1    0    0  501  502  0.00000000000E+00  0.00000000000E+00  0.92708874221E+02  0.92708874221E+02  0.00000000000E+00 0. -1.
         21   -1    0    0  502  503 -0.00000000000E+00 -0.00000000000E+00 -0.50736791897E+03  0.50736791897E+03  0.00000000000E+00 0. -1.
          6    1    1    2  501    0 -0.87234848436E+02 -0.54234108361E+01 -0.72709150926E+02  0.20701437823E+03  0.17300000000E+03 0. -1.
         -6    1    1    2    0  503  0.87234848436E+02  0.54234108361E+01 -0.34194989382E+03  0.39306241496E+03  0.17300000000E+03 0. -1.
</event>
<event>
 4    1  0.5758867E+000  0.1000000E+03  0.7546771E-02  0.1280296E+00
         21   -1    0    0  501  502  0.00000000000E+00  0.00000000000E+00  0.12893491593E+04  0.12893491593E+04  0.00000000000E+00 0. -1.
         21   -1    0    0  502  503 -0.00000000000E+00 -0.00000000000E+00 -0.10590220589E+03  0.10590220589E+03  0.00000000000E+00 0. -1.
          6    1    1    2  501    0  0.92301572008E+02 -0.25125828351E+02  0.11811220809E+04  0.11975513590E+04  0.17300000000E+03 0. -1.
         -6    1    1    2    0  503 -0.92301572008E+02  0.25125828351E+02  0.23248725944E+01  0.19770000627E+03  0.17300000000E+03 0. -1.
</event>
<event>
 4    1  0.5758867E+000  0.1000000E+03  0.7546771E-02  0.1280296E+00
         21   -1    0    0  501  502  0.00000000000E+00  0.00000000000E+00  0.44754099842E+03  0.44754099842E+03  0.00000000000E+00 0. -1.
         21   -1    0    0  502  503 -0.00000000000E+00 -0.00000000000E+00 -0.10018721049E+04  0.10018721049E+04  0.00000000000E+00 0. -1.
          6    1    1    2  501    0 -0.22796990683E+03  0.86790347553E+02  0.37125204843E+03  0.47671786867E+03  0.17300000000E+03 0. -1.
         -6    1    1    2    0  503  0.22796990683E+03 -0.86790347553E+02 -0.92558315487E+03  0.97269523461E+03  0.17300000000E+03 0. -1.
</event>
<event>
 4    1  0.5758867E+000  0.1000000E+03  0.7546771E-02  0.1280296E+00
         21   -1    0    0  501  502  0.00000000000E+00  0.00000000000E+00  0.70341497118E+03  0.70341497118E+03  0.00000000000E+00 0. -1.
         21   -1    0    0  502  503 -0.00000000000E+00 -0.00000000000E+00 -0.53118628546E+02  0.53118628546E+02  0.00000000000E+00 0. -1.
          6    1    1    2  501    0  0.84159419465E+02 -0.18165482285E+02  0.33446062527E+03  0.38627153983E+03  0.17300000000E+03 0. -1.
         -6    1    1    2    0  503 -0.84159419465E+02  0.18165482285E+02  0.31583571737E+03  0.37026205989E+03  0.17300000000E+03 0. -1.
</event>
<event>
 4    1  0.5758867E+000  0.1000000E+03  0.7546771E-02  0.1280296E+00
         21   -1    0    0  501  502  0.00000000000E+00  0.00000000000E+00  0.41824113016E+03  0.41824113016E+03  0.00000000000E+00 0. -1.
         21   -1    0    0  502  503 -0.00000000000E+00 -0.00000000000E+00 -0.16452499277E+03  0.16452499277E+03  0.00000000000E+00 0. -1.
          6    1    1    2  501    0 -0.17838232296E+01  0.18521316184E+03  0.51724924253E+02  0.25867269886E+03  0.17300000000E+03 0. -1.
         -6    1    1    2    0  503  0.17838232296E+01 -0.18521316184E+03  0.20199121314E+03  0.32409342408E+03  0.17300000000E+03 0. -1.
</event>
<event>
 4    1  0.5758867E+000  0.1000000E+03  0.7546771E-02  0.1280296E+00
         21   -1    0    0  501  502  0.00000000000E+00  0.00000000000E+00  0.17194646499E+03  0.17194646499E+03  0.00000000000E+00 0. -1.
         21   -1    0    0  502  503 -0.00000000000E+00 -0.00000000000E+00 -0.24652528817E+03  0.24652528817E+03  0.00000000000E+00 0. -1.
          6    1    1    2  501    0  0.49073287244E+02 -0.84037757305E+02  0.18277564008E+02  0.19933289121E+03  0.17300000000E+03 0. -1.
         -6    1    1    2    0  503 -0.49073287244E+02  0.84037757305E+02 -0.92856387181E+02  0.21913886194E+03  0.17300000000E+03 0. -1.
</event>
<event>
 4    1  0.5758867E+000  0.1000000E+03  0.7546771E-02  0.1280296E+00
         21   -1    0    0  501  502  0.00000000000E+00  0.00000000000E+00  0.40188606160E+03  0.40188606160E+03  0.00000000000E+00 0. -1.
         21   -1    0    0  502  503 -0.00000000000E+00 -0.00000000000E+00 -0.25754669997E+03  0.25754669997E+03  0.00000000000E+00 0. -1.
          6    1    1    2  501    0 -0.13844677772E+02 -0.11529720558E+03  0.32339492271E+03  0.38470559751E+03  0.17300000000E+03 0. -1.
         -6    1    1    2    0  503  0.13844677772E+02  0.11529720558E+03 -0.17905556108E+03  0.27472716406E+03  0.17300000000E+03 0. -1.
</event>
<event>
 4    1  0.5758867E+000  0.1000000E+03  0.7546771E-02  0.1280296E+00
         21   -1    0    0  501  502  0.00000000000E+00  0.00000000000E+00  0.87177676121E+03  0.87177676121E+03  0.00000000000E+00 0. -1.
         21   -1    0    0  502  503 -0.00000000000E+00 -0.00000000000E+00 -0.82153198660E+02  0.82153198660E+02  0.00000000000E+00 0. -1.
          6    1    1    2  501    0 -0.42616737514E+02  0.12917074586E+02  0.74995727580E+03  0.77093965566E+03  0.17300000000E+03 0. -1.
         -6    1    1    2    0  503  0.42616737514E+02 -0.12917074586E+02  0.39666286746E+02  0.18299030421E+03  0.17300000000E+03 0. -1.
</event>
<event>
 4    1  0.5758867E+000  0.1000000E+03  0.7546771E-02  0.1280296E+00
         21   -1    0    0  501  502  0.00000000000E+00  0.00000000000E+00  0.93996224320E+03  0.93996224320E+03  0.00000000000E+00 0. -1.
         21   -1    0    0  502  503 -0.00000000000E+00 -0.00000000000E+00 -0.55286936455E+02  0.55286936455E+02  0.00000000000E+00 0. -1.
          6    1    1    2  501    0 -0.10212900139E+03  0.41817909863E+02  0.65909018720E+03  0.69029554929E+03  0.17300000000E+03 0. -1.
         -6    1    1    2    0  503  0.10212900139E+03 -0.41817909863E+02  0.22558511954E+03  0.30495363036E+03  0.17300000000E+03 0. -1.
</event>
<event>
 4    1  0.5758867E+000  0.1000000E+03  0.7546771E-02  0.1280296E+00
         21   -1    0    0  503  502  0.00000000000E+00  0.00000000000E+00  0.57428722162E+03  0.57428722162E+03  0.00000000000E+00 0.  1.
         21   -1    0    0  501  503 -0.00000000000E+00 -0.00000000000E+00 -0.13675847683E+03  0.13675847683E+03  0.00000000000E+00 0. -1.
          6    1    1    2  501    0 -0.74454369469E+02 -0.52813351524E+01 -0.44415921928E+02  0.19357975037E+03  0.17300000000E+03 0. -1.
         -6    1    1    2    0  502  0.74454369469E+02  0.52813351524E+01  0.48194466673E+03  0.51746594808E+03  0.17300000000E+03 0.  1.
</event>
<event>
 4    1  0.5758867E+000  0.1000000E+03  0.7546771E-02  0.1280296E+00
         21   -1    0    0  503  502  0.00000000000E+00  0.00000000000E+00  0.11844710770E+04  0.11844710770E+04  0.00000000000E+00 0.  1.
         21   -1    0    0  501  503 -0.00000000000E+00 -0.00000000000E+00 -0.56550759798E+02  0.56550759798E+02  0.00000000000E+00 0. -1.
          6    1    1    2  501    0 -0.11412255008E+03 -0.36227212990E+02  0.92532593503E+03  0.94894333521E+03  0.17300000000E+03 0. -1.
         -6    1    1    2    0  502  0.11412255008E+03  0.36227212990E+02  0.20259438214E+03  0.29207850156E+03  0.17300000000E+03 0.  1.
</event>
<event>
 4    1  0.5758867E+000  0.1000000E+03  0.7546771E-02  0.1280296E+00
         21   -1    0    0  503  502  0.00000000000E+00  0.00000000000E+00  0.15160931102E+04  0.15160931102E+04  0.00000000000E+00 0.  1.
         21   -1    0    0  501  503 -0.00000000000E+00 -0.00000000000E+00 -0.57952980309E+02  0.57952980309E+02  0.00000000000E+00 0. -1.
          6    1    1    2  501    0  0.16374706081E+03  0.13447877512E+02  0.26204418654E+03  0.35438693688E+03  0.17300000000E+03 0. -1.
         -6    1    1    2    0  502 -0.16374706081E+03 -0.13447877512E+02  0.11960959434E+04  0.12196591537E+04  0.17300000000E+03 0.  1.
</event>
<event>
 4    1  0.5758867E+000  0.1000000E+03  0.7546771E-02  0.1280296E+00
         21   -1    0    0  503  502  0.00000000000E+00  0.00000000000E+00  0.11755534937E+04  0.11755534937E+04  0.00000000000E+00 0.  1.
         21   -1    0    0  501  503 -0.00000000000E+00 -0.00000000000E+00 -0.56128181060E+02  0.56128181060E+02  0.00000000000E+00 0.  1.
          6    1    1    2  501    0  0.95671249928E+02  0.24040680153E+02  0.17074447671E+03  0.26232350007E+03  0.17300000000E+03 0.  1.
         -6    1    1    2    0  502 -0.95671249928E+02 -0.24040680153E+02  0.94868083597E+03  0.96935817473E+03  0.17300000000E+03 0.  1.
</event>
<event>
 4    1  0.5758867E+000  0.1000000E+03  0.7546771E-02  0.1280296E+00
         21   -1    0    0  503  502  0.00000000000E+00  0.00000000000E+00  0.38939165700E+03  0.38939165700E+03  0.00000000000E+00 0.  1.
         21   -1    0    0  501  503 -0.00000000000E+00 -0.00000000000E+00 -0.14550103273E+03  0.14550103273E+03  0.00000000000E+00 0.  1.
          6    1    1    2  501    0  0.46792108678E+02 -0.20072141831E+02 -0.52612150834E+02  0.18785481289E+03  0.17300000000E+03 0.  1.
         -6    1    1    2    0  502 -0.46792108678E+02  0.20072141831E+02  0.29650277511E+03  0.34703787683E+03  0.17300000000E+03 0.  1.
</event>
<event>
 4    1  0.5758867E+000  0.1000000E+03  0.7546771E-02  0.1280296E+00
         21   -1    0    0  503  502  0.00000000000E+00  0.00000000000E+00  0.24644740220E+03  0.24644740220E+03  0.00000000000E+00 0.  1.
         21   -1    0    0  501  503 -0.00000000000E+00 -0.00000000000E+00 -0.13073780454E+03  0.13073780454E+03  0.00000000000E+00 0.  1.
          6    1    1    2  501    0 -0.31324625231E+02  0.34194468373E+02  0.45401117195E+02  0.18477217122E+03  0.17300000000E+03 0.  1.
         -6    1    1    2    0  502  0.31324625231E+02 -0.34194468373E+02  0.70308480461E+02  0.19241303552E+03  0.17300000000E+03 0.  1.
</event>
<event>
 4    1  0.5758867E+000  0.1000000E+03  0.7546771E-02  0.1280296E+00
         21   -1    0    0  503  502  0.00000000000E+00  0.00000000000E+00  0.11709676403E+04  0.11709676403E+04  0.00000000000E+00 0.  1.
         21   -1    0    0  501  503 -0.00000000000E+00 -0.00000000000E+00 -0.79803132403E+02  0.79803132403E+02  0.00000000000E+00 0.  1.
          6    1    1    2  501    0 -0.12243901828E+03 -0.65242383055E+02  0.11513485012E+03  0.24986579489E+03  0.17300000000E+03 0.  1.
         -6    1    1    2    0  502  0.12243901828E+03  0.65242383055E+02  0.97602965777E+03  0.10009049778E+04  0.17300000000E+03 0.  1.
</event>
<event>
 4    1  0.5758867E+000  0.1000000E+03  0.7546771E-02  0.1280296E+00
         21   -1    0    0  503  502  0.00000000000E+00  0.00000000000E+00  0.97571575580E+03  0.97571575580E+03  0.00000000000E+00 0.  1.
         21   -1    0    0  501  503 -0.00000000000E+00 -0.00000000000E+00 -0.52032187362E+02  0.52032187362E+02  0.00000000000E+00 0.  1.
          6    1    1    2  501    0  0.33694532989E+02 -0.54391676336E+02  0.16671236347E+03  0.24862781048E+03  0.17300000000E+03 0.  1.
         -6    1    1    2    0  502 -0.33694532989E+02  0.54391676336E+02  0.75697120497E+03  0.77912013269E+03  0.17300000000E+03 0.  1.
</event>
<event>
 4    1  0.5758867E+000  0.1000000E+03  0.7546771E-02  0.1280296E+00
         21   -1    0    0  501  502  0.00000000000E+00  0.00000000000E+00  0.22302205457E+03  0.22302205457E+03  0.00000000000E+00 0. -1.
         21   -1    0    0  502  503 -0.00000000000E+00 -0.00000000000E+00 -0.18473529133E+03  0.18473529133E+03  0.00000000000E+00 0.  1.
          6    1    1    2  501    0  0.56659605548E+02 -0.79409529145E+02 -0.22933562860E+02  0.19992781829E+03  0.17300000000E+03 0. -1.
         -6    1    1    2    0  503 -0.56659605548E+02  0.79409529145E+02  0.61220326105E+02  0.20782952761E+03  0.17300000000E+03 0.  1.
</event>
<event>
 4    1  0.5758867E+000  0.1000000E+03  0.7546771E-02  0.1280296E+00
         21   -1    0    0  503  502  0.00000000000E+00  0.00000000000E+00  0.34388077309E+02  0.34388077309E+02  0.00000000000E+00 0.  1.
         21   -1    0    0  501  503 -0.00000000000E+00 -0.00000000000E+00 -0.98673547973E+03  0.98673547973E+03  0.00000000000E+00 0. -1.
          6    1    1    2  501    0 -0.37462948676E+01 -0.60728510771E+02 -0.52425659396E+03  0.55540612443E+03  0.17300000000E+03 0. -1.
         -6    1    1    2    0  502  0.37462948676E+01  0.60728510771E+02 -0.42809080846E+03  0.46571743261E+03  0.17300000000E+03 0.  1.
</event>
<event>
 4    1  0.5758867E+000  0.1000000E+03  0.7546771E-02  0.1280296E+00
         21   -1    0    0  501  502  0.00000000000E+00  0.00000000000E+00  0.18043496510E+03  0.18043496510E+03  0.00000000000E+00 0. -1.
         21   -1    0    0  502  503 -0.00000000000E+00 -0.00000000000E+00 -0.25779988716E+03  0.25779988716E+03  0.00000000000E+00 0.  1.
          6    1    1    2  501    0 -0.24366424399E+02  0.86996985125E+01  0.89496116984E+02  0.19648908964E+03  0.17300000000E+03 0. -1.
         -6    1    1    2    0  503  0.24366424399E+02 -0.86996985125E+01 -0.16686103905E+03  0.24174576262E+03  0.17300000000E+03 0.  1.
</event>
<event>
 4    1  0.5758867E+000  0.1000000E+03  0.7546771E-02  0.1280296E+00
         21   -1    0    0  501  502  0.00000000000E+00  0.00000000000E+00  0.11902640194E+04  0.11902640194E+04  0.00000000000E+00 0. -1.
         21   -1    0    0  502  503 -0.00000000000E+00 -0.00000000000E+00 -0.30627894410E+02  0.30627894410E+02  0.00000000000E+00 0. -1.
          6    1    1    2  501    0 -0.33292109851E+02  0.51669135356E+02  0.74742518725E+03  0.76964373229E+03  0.17300000000E+03 0. -1.
         -6    1    1    2    0  503  0.33292109851E+02 -0.51669135356E+02  0.41221093774E+03  0.45124818151E+03  0.17300000000E+03 0. -1.
</event>
<event>
 4    1  0.5758867E+000  0.1000000E+03  0.7546771E-02  0.1280296E+00
         21   -1    0    0  501  502  0.00000000000E+00  0.00000000000E+00  0.39958391681E+02  0.39958391681E+02  0.00000000000E+00 0. -1.
         21   -1    0    0  502  503 -0.00000000000E+00 -0.00000000000E+00 -0.80110948208E+03  0.80110948208E+03  0.00000000000E+00 0. -1.
          6    1    1    2  501    0 -0.99177642651E+01  0.11701858921E+02 -0.27956766094E+03  0.32912364332E+03  0.17300000000E+03 0. -1.
         -6    1    1    2    0  503  0.99177642651E+01 -0.11701858921E+02 -0.48158342946E+03  0.51194423044E+03  0.17300000000E+03 0. -1.
</event>
<event>
 4    1  0.5758867E+000  0.1000000E+03  0.7546771E-02  0.1280296E+00
         21   -1    0    0  501  502  0.00000000000E+00  0.00000000000E+00  0.17881768922E+04  0.17881768922E+04  0.00000000000E+00 0. -1.
         21   -1    0    0  502  503 -0.00000000000E+00 -0.00000000000E+00 -0.21923828700E+02  0.21923828700E+02  0.00000000000E+00 0. -1.
          6    1    1    2  501    0  0.16886704547E+01 -0.90361239942E+02  0.73106475586E+03  0.75667211033E+03  0.17300000000E+03 0. -1.
         -6    1    1    2    0  503 -0.16886704547E+01  0.90361239942E+02  0.10351883076E+04  0.10534286105E+04  0.17300000000E+03 0. -1.
</event>
<event>
 4    1  0.5758867E+000  0.1000000E+03  0.7546771E-02  0.1280296E+00
         21   -1    0    0  501  502  0.00000000000E+00  0.00000000000E+00  0.72564841223E+02  0.72564841223E+02  0.00000000000E+00 0. -1.
         21   -1    0    0  502  503 -0.00000000000E+00 -0.00000000000E+00 -0.12541305946E+04  0.12541305946E+04  0.00000000000E+00 0. -1.
          6    1    1    2  501    0 -0.13452932797E+03  0.18731899914E+03 -0.39546057260E+03  0.48939208412E+03  0.17300000000E+03 0. -1.
         -6    1    1    2    0  503  0.13452932797E+03 -0.18731899914E+03 -0.78610518079E+03  0.83730335171E+03  0.17300000000E+03 0. -1.
</event>
<event>
 4    1  0.5758867E+000  0.1000000E+03  0.7546771E-02  0.1280296E+00
         21   -1    0    0  501  502  0.00000000000E+00  0.00000000000E+00  0.51125428868E+03  0.51125428868E+03  0.00000000000E+00 0. -1.
         21   -1    0    0  502  503 -0.00000000000E+00 -0.00000000000E+00 -0.98027916689E+02  0.98027916689E+02  0.00000000000E+00 0. -1.
          6    1    1    2  501    0 -0.34250078939E+01  0.11533631539E+03  0.31943674183E+03  0.38116010856E+03  0.17300000000E+03 0. -1.
         -6    1    1    2    0  503  0.34250078939E+01 -0.11533631539E+03  0.93789630165E+02  0.22812209681E+03  0.17300000000E+03 0. -1.
</event>
<event>
 4    1  0.5758867E+000  0.1000000E+03  0.7546771E-02  0.1280296E+00
         21   -1    0    0  501  502  0.00000000000E+00  0.00000000000E+00  0.12563355858E+04  0.12563355858E+04  0.00000000000E+00 0. -1.
         21   -1    0    0  502  503 -0.00000000000E+00 -0.00000000000E+00 -0.56443739869E+02  0.56443739869E+02  0.00000000000E+00 0.  1.
          6    1    1    2  501    0 -0.14510560829E+02  0.44985381520E+02  0.10851578573E+04  0.10998776369E+04  0.17300000000E+03 0. -1.
         -6    1    1    2    0  503  0.14510560829E+02 -0.44985381520E+02  0.11473398863E+03  0.21290168875E+03  0.17300000000E+03 0.  1.
</event>
<event>
 4    1  0.5758867E+000  0.1000000E+03  0.7546771E-02  0.1280296E+00
         21   -1    0    0  501  502  0.00000000000E+00  0.00000000000E+00  0.14013820518E+03  0.14013820518E+03  0.00000000000E+00 0. -1.
         21   -1    0    0  502  503 -0.00000000000E+00 -0.00000000000E+00 -0.60650522183E+03  0.60650522183E+03  0.00000000000E+00 0.  1.
          6    1    1    2  501    0 -0.14647723296E+02 -0.19417670241E+03 -0.65506216893E+02  0.26858743829E+03  0.17300000000E+03 0. -1.
         -6    1    1    2    0  503  0.14647723296E+02  0.19417670241E+03 -0.40086079976E+03  0.47805598871E+03  0.17300000000E+03 0.  1.
</event>
<event>
 4    1  0.5758867E+000  0.1000000E+03  0.7546771E-02  0.1280296E+00
         21   -1    0    0  503  502  0.00000000000E+00  0.00000000000E+00  0.34319042414E+03  0.34319042414E+03  0.00000000000E+00 0.  1.
         21   -1    0    0  501  503 -0.00000000000E+00 -0.00000000000E+00 -0.12065471043E+03  0.12065471043E+03  0.00000000000E+00 0.  1.
          6    1    1    2  501    0 -0.10673021780E+03  0.92412447037E+01  0.10973821191E+03  0.23118870030E+03  0.17300000000E+03 0.  1.
         -6    1    1    2    0  502  0.10673021780E+03 -0.92412447037E+01  0.11279750180E+03  0.23265643427E+03  0.17300000000E+03 0.  1.
</event>
<event>
 4    1  0.5758867E+000  0.1000000E+03  0.7546771E-02  0.1280296E+00
         21   -1    0    0  503  502  0.00000000000E+00  0.00000000000E+00  0.27736296616E+04  0.27736296616E+04  0.00000000000E+00 0.  1.
         21   -1    0    0  501  503 -0.00000000000E+00 -0.00000000000E+00 -0.59577961231E+02  0.59577961231E+02  0.00000000000E+00 0.  1.
          6    1    1    2  501    0 -0.18352900896E+02 -0.23581817869E+03  0.37524917697E+03  0.47611761907E+03  0.17300000000E+03 0.  1.
         -6    1    1    2    0  502  0.18352900896E+02  0.23581817869E+03  0.23388025234E+04  0.23570900038E+04  0.17300000000E+03 0.  1.
</event>
<event>
 4    1  0.5758867E+000  0.1000000E+03  0.7546771E-02  0.1280296E+00
         21   -1    0    0  503  502  0.00000000000E+00  0.00000000000E+00  0.11100138951E+03  0.11100138951E+03  0.00000000000E+00 0.  1.
         21   -1    0    0  501  503 -0.00000000000E+00 -0.00000000000E+00 -0.70304570349E+03  0.70304570349E+03  0.00000000000E+00 0.  1.
          6    1    1    2  501    0 -0.60867941297E+02  0.20192182064E+02 -0.60163890470E+03  0.62929405062E+03  0.17300000000E+03 0.  1.
         -6    1    1    2    0  502  0.60867941297E+02 -0.20192182064E+02  0.95945907223E+01  0.18475304237E+03  0.17300000000E+03 0.  1.
</event>
<event>
 4    1  0.5758867E+000  0.1000000E+03  0.7546771E-02  0.1280296E+00
         21   -1    0    0  503  502  0.00000000000E+00  0.00000000000E+00  0.68663912373E+03  0.68663912373E+03  0.00000000000E+00 0.  1.
         21   -1    0    0  501  503 -0.00000000000E+00 -0.00000000000E+00 -0.36706273022E+03  0.36706273022E+03  0.00000000000E+00 0.  1.
          6    1    1    2  501    0  0.74615766482E+02 -0.39771077151E+03 -0.93751185717E+02  0.44995517021E+03  0.17300000000E+03 0.  1.
         -6    1    1    2    0  502 -0.74615766482E+02  0.39771077151E+03  0.41332757922E+03  0.60374668374E+03  0.17300000000E+03 0.  1.
</event>
<event>
 4    1  0.5758867E+000  0.1000000E+03  0.7546771E-02  0.1280296E+00
         21   -1    0    0  503  502  0.00000000000E+00  0.00000000000E+00  0.13977421387E+03  0.13977421387E+03  0.00000000000E+00 0.  1.
         21   -1    0    0  501  503 -0.00000000000E+00 -0.00000000000E+00 -0.65536341040E+03  0.65536341040E+03  0.00000000000E+00 0.  1.
          6    1    1    2  501    0  0.11545976799E+03 -0.19432671819E+03 -0.39290912290E+03  0.48518080164E+03  0.17300000000E+03 0.  1.
         -6    1    1    2    0  502 -0.11545976799E+03  0.19432671819E+03 -0.12268007364E+03  0.30995682263E+03  0.17300000000E+03 0.  1.
</event>
<event>
 4    1  0.5758867E+000  0.1000000E+03  0.7546771E-02  0.1280296E+00
         21   -1    0    0  503  502  0.00000000000E+00  0.00000000000E+00  0.28296114087E+03  0.28296114087E+03  0.00000000000E+00 0.  1.
         21   -1    0    0  501  503 -0.00000000000E+00 -0.00000000000E+00 -0.38448127670E+03  0.38448127670E+03  0.00000000000E+00 0.  1.
          6    1    1    2  501    0 -0.60604176698E+02  0.95481595189E+02 -0.31083606848E+03  0.37327960395E+03  0.17300000000E+03 0.  1.
         -6    1    1    2    0  502  0.60604176698E+02 -0.95481595189E+02  0.20931593265E+03  0.29416281362E+03  0.17300000000E+03 0.  1.
</event>
<event>
 4    1  0.5758867E+000  0.1000000E+03  0.7546771E-02  0.1280296E+00
         21   -1    0    0  501  502  0.00000000000E+00  0.00000000000E+00  0.24054172855E+04  0.24054172855E+04  0.00000000000E+00 0.  1.
         21   -1    0    0  502  503 -0.00000000000E+00 -0.00000000000E+00 -0.17572599502E+02  0.17572599502E+02  0.00000000000E+00 0.  1.
          6    1    1    2  501    0  0.44155617542E+02  0.10173635095E+03  0.12313907512E+04  0.12484198756E+04  0.17300000000E+03 0.  1.
         -6    1    1    2    0  503 -0.44155617542E+02 -0.10173635095E+03  0.11564539348E+04  0.11745700094E+04  0.17300000000E+03 0.  1.
</event>
<event>
 4    1  0.5758867E+000  0.1000000E+03  0.7546771E-02  0.1280296E+00
         21   -1    0    0  501  502  0.00000000000E+00  0.00000000000E+00  0.18600366326E+03  0.18600366326E+03  0.00000000000E+00 0.  1.
         21   -1    0    0  502  503 -0.00000000000E+00 -0.00000000000E+00 -0.25186981337E+03  0.25186981337E+03  0.00000000000E+00 0.  1.
          6    1    1    2  501    0 -0.66025329588E+02 -0.17297822556E+02  0.79071412223E+02  0.20208871083E+03  0.17300000000E+03 0.  1.
         -6    1    1    2    0  503  0.66025329588E+02  0.17297822556E+02 -0.14493756233E+03  0.23578476581E+03  0.17300000000E+03 0.  1.
</event>
<event>
 4    1  0.5758867E+000  0.1000000E+03  0.7546771E-02  0.1280296E+00
         21   -1    0    0  501  502  0.00000000000E+00  0.00000000000E+00  0.25999028633E+02  0.25999028633E+02  0.00000000000E+00 0.  1.
         21   -1    0    0  502  503 -0.00000000000E+00 -0.00000000000E+00 -0.22813373757E+04  0.22813373757E+04  0.00000000000E+00 0.  1.
          6    1    1    2  501    0 -0.59926283064E+02 -0.33202009780E+02 -0.38333432923E+03  0.42610766342E+03  0.17300000000E+03 0.  1.
         -6    1    1    2    0  503  0.59926283064E+02  0.33202009780E+02 -0.18720040178E+04  0.18812287409E+04  0.17300000000E+03 0.  1.
</event>
<event>
 4    1  0.5758867E+000  0.1000000E+03  0.7546771E-02  0.1280296E+00
         21   -1    0    0  503  502  0.00000000000E+00  0.00000000000E+00  0.62726763862E+02  0.62726763862E+02  0.00000000000E+00 0. -1.
         21   -1    0    0  501  503 -0.00000000000E+00 -0.00000000000E+00 -0.65867211038E+03  0.65867211038E+03  0.00000000000E+00 0.  1.
          6    1    1    2  501    0  0.90119697786E+02 -0.27743744645E+02 -0.38663005660E+03  0.43393902332E+03  0.17300000000E+03 0. -1.
         -6    1    1    2    0  502 -0.90119697786E+02  0.27743744645E+02 -0.20931528992E+03  0.28745985092E+03  0.17300000000E+03 0. -1.
</event>
<event>
 4    1  0.5758867E+000  0.1000000E+03  0.7546771E-02  0.1280296E+00
         21   -1    0    0  503  502  0.00000000000E+00  0.00000000000E+00  0.86239588670E+02  0.86239588670E+02  0.00000000000E+00 0.  1.
         21   -1    0    0  501  503 -0.00000000000E+00 -0.00000000000E+00 -0.61751570572E+03  0.61751570572E+03  0.00000000000E+00 0.  1.
          6    1    1    2  501    0 -0.77067739628E+01 -0.55375587354E+02 -0.48235063430E+03  0.51547743350E+03  0.17300000000E+03 0.  1.
         -6    1    1    2    0  502  0.77067739628E+01  0.55375587354E+02 -0.48925482755E+02  0.18827786089E+03  0.17300000000E+03 0.  1.
</event>
<event>
 4    1  0.5758867E+000  0.1000000E+03  0.7546771E-02  0.1280296E+00
         21   -1    0    0  503  502  0.00000000000E+00  0.00000000000E+00  0.85497609486E+03  0.85497609486E+03  0.00000000000E+00 0.  1.
         21   -1    0    0  501  503 -0.00000000000E+00 -0.00000000000E+00 -0.59079004439E+02  0.59079004439E+02  0.00000000000E+00 0.  1.
          6    1    1    2  501    0  0.12080049297E+03 -0.54687236977E+02  0.28659241606E+03  0.36006619660E+03  0.17300000000E+03 0.  1.
         -6    1    1    2    0  502 -0.12080049297E+03  0.54687236977E+02  0.50930467436E+03  0.55398890270E+03  0.17300000000E+03 0.  1.
</event>
<event>
 4    1  0.5758867E+000  0.1000000E+03  0.7546771E-02  0.1280296E+00
         21   -1    0    0  503  502  0.00000000000E+00  0.00000000000E+00  0.30289937187E+04  0.30289937187E+04  0.00000000000E+00 0.  1.
         21   -1    0    0  501  503 -0.00000000000E+00 -0.00000000000E+00 -0.20137047381E+02  0.20137047381E+02  0.00000000000E+00 0.  1.
          6    1    1    2  501    0 -0.92762438582E+01 -0.17243032738E+03  0.12863772996E+04  0.13093944492E+04  0.17300000000E+03 0.  1.
         -6    1    1    2    0  502  0.92762438582E+01  0.17243032738E+03  0.17224793716E+04  0.17397363169E+04  0.17300000000E+03 0.  1.
</event>
<event>
 4    1  0.5758867E+000  0.1000000E+03  0.7546771E-02  0.1280296E+00
         21   -1    0    0  501  502  0.00000000000E+00  0.00000000000E+00  0.56598106832E+03  0.56598106832E+03  0.00000000000E+00 0. -1.
         21   -1    0    0  502  503 -0.00000000000E+00 -0.00000000000E+00 -0.14658021523E+03  0.14658021523E+03  0.00000000000E+00 0.  1.
          6    1    1    2  501    0 -0.28766300501E+02  0.13963301114E+03  0.43340709187E+03  0.48795039208E+03  0.17300000000E+03 0.  1.
         -6    1    1    2    0  503  0.28766300501E+02 -0.13963301114E+03 -0.14006238783E+02  0.22461089147E+03  0.17300000000E+03 0. -1.
</event>
<event>
 4    1  0.5758867E+000  0.1000000E+03  0.7546771E-02  0.1280296E+00
         21   -1    0    0  501  502  0.00000000000E+00  0.00000000000E+00  0.78688663075E+03  0.78688663075E+03  0.00000000000E+00 0. -1.
         21   -1    0    0  502  503 -0.00000000000E+00 -0.00000000000E+00 -0.16939318784E+03  0.16939318784E+03  0.00000000000E+00 0.  1.
          6    1    1    2  501    0 -0.12107587698E+03  0.19377234890E+03  0.60495970114E+03  0.66941192937E+03  0.17300000000E+03 0.  1.
         -6    1    1    2    0  503  0.12107587698E+03 -0.19377234890E+03  0.12533741770E+02  0.28686788922E+03  0.17300000000E+03 0. -1.
</event>
<event>
 4    1  0.5758867E+000  0.1000000E+03  0.7546771E-02  0.1280296E+00
         21   -1    0    0  501  502  0.00000000000E+00  0.00000000000E+00  0.18147477787E+04  0.18147477787E+04  0.00000000000E+00 0. -1.
         21   -1    0    0  502  503 -0.00000000000E+00 -0.00000000000E+00 -0.13977731689E+03  0.13977731689E+03  0.00000000000E+00 0. -1.
          6    1    1    2  501    0  0.25479258512E+03 -0.40407787658E+01  0.16107078125E+04  0.16398915350E+04  0.17300000000E+03 0. -1.
         -6    1    1    2    0  503 -0.25479258512E+03  0.40407787658E+01  0.64262649256E+02  0.31463356053E+03  0.17300000000E+03 0. -1.
</event>
<event>
 4    1  0.5758867E+000  0.1000000E+03  0.7546771E-02  0.1280296E+00
         21   -1    0    0  501  502  0.00000000000E+00  0.00000000000E+00  0.49279863186E+03  0.49279863186E+03  0.00000000000E+00 0. -1.
         21   -1    0    0  502  503 -0.00000000000E+00 -0.00000000000E+00 -0.73405749845E+02  0.73405749845E+02  0.00000000000E+00 0. -1.
          6    1    1    2  501    0 -0.43195920189E+02 -0.41565685865E+02  0.28634470233E+03  0.33987627501E+03  0.17300000000E+03 0. -1.
         -6    1    1    2    0  503  0.43195920189E+02  0.41565685865E+02  0.13304817969E+03  0.22632810669E+03  0.17300000000E+03 0. -1.
</event>
<event>
 4    1  0.5758867E+000  0.1000000E+03  0.7546771E-02  0.1280296E+00
         21   -1    0    0  503  502  0.00000000000E+00  0.00000000000E+00  0.10761869171E+03  0.10761869171E+03  0.00000000000E+00 0.  1.
         21   -1    0    0  501  503 -0.00000000000E+00 -0.00000000000E+00 -0.71183328094E+03  0.71183328094E+03  0.00000000000E+00 0.  1.
          6    1    1    2  501    0  0.13631417385E+03  0.57583299160E+02 -0.53513776120E+03  0.58154863408E+03  0.17300000000E+03 0.  1.
         -6    1    1    2    0  502 -0.13631417385E+03 -0.57583299160E+02 -0.69076828025E+02  0.23790333857E+03  0.17300000000E+03 0.  1.
</event>
<event>
 4    1  0.5758867E+000  0.1000000E+03  0.7546771E-02  0.1280296E+00
         21   -1    0    0  503  502  0.00000000000E+00  0.00000000000E+00  0.18436265186E+03  0.18436265186E+03  0.00000000000E+00 0.  1.
         21   -1    0    0  501  503 -0.00000000000E+00 -0.00000000000E+00 -0.76167416922E+03  0.76167416922E+03  0.00000000000E+00 0.  1.
          6    1    1    2  501    0  0.71661355159E+02 -0.17646722748E+03 -0.63254231773E+03  0.68287247413E+03  0.17300000000E+03 0.  1.
         -6    1    1    2    0  502 -0.71661355159E+02  0.17646722748E+03  0.55230800370E+02  0.26316434696E+03  0.17300000000E+03 0.  1.
</event>
<event>
 4    1  0.5758867E+000  0.1000000E+03  0.7546771E-02  0.1280296E+00
         21   -1    0    0  501  502  0.00000000000E+00  0.00000000000E+00  0.16898586631E+03  0.16898586631E+03  0.00000000000E+00 0.  1.
         21   -1    0    0  502  503 -0.00000000000E+00 -0.00000000000E+00 -0.27353196516E+03  0.27353196516E+03  0.00000000000E+00 0.  1.
          6    1    1    2  501    0 -0.64612672189E+02  0.26162839692E+02  0.57775615566E+02  0.19525960499E+03  0.17300000000E+03 0.  1.
         -6    1    1    2    0  503  0.64612672189E+02 -0.26162839692E+02 -0.16232171441E+03  0.24725822647E+03  0.17300000000E+03 0.  1.
</event>
<event>
 4    1  0.5758867E+000  0.1000000E+03  0.7546771E-02  0.1280296E+00
         21   -1    0    0  501  502  0.00000000000E+00  0.00000000000E+00  0.68835894191E+03  0.68835894191E+03  0.00000000000E+00 0.  1.
         21   -1    0    0  502  503 -0.00000000000E+00 -0.00000000000E+00 -0.10915927787E+03  0.10915927787E+03  0.00000000000E+00 0.  1.
          6    1    1    2  501    0  0.12194978824E+03  0.17399163654E+03  0.27769932040E+03  0.39011633263E+03  0.17300000000E+03 0.  1.
         -6    1    1    2    0  503 -0.12194978824E+03 -0.17399163654E+03  0.30150034364E+03  0.40740188714E+03  0.17300000000E+03 0.  1.
</event>
<event>
 4    1  0.5758867E+000  0.1000000E+03  0.7546771E-02  0.1280296E+00
         21   -1    0    0  501  502  0.00000000000E+00  0.00000000000E+00  0.13402799144E+03  0.13402799144E+03  0.00000000000E+00 0.  1.
         21   -1    0    0  502  503 -0.00000000000E+00 -0.00000000000E+00 -0.13185230977E+04  0.13185230977E+04  0.00000000000E+00 0.  1.
          6    1    1    2  501    0  0.28973884637E+03  0.24763909511E+03 -0.52497316237E+03  0.67141607199E+03  0.17300000000E+03 0.  1.
         -6    1    1    2    0  503 -0.28973884637E+03 -0.24763909511E+03 -0.65952194389E+03  0.78113501713E+03  0.17300000000E+03 0.  1.
</event>
<event>
 4    1  0.5758867E+000  0.1000000E+03  0.7546771E-02  0.1280296E+00
         21   -1    0    0  501  502  0.00000000000E+00  0.00000000000E+00  0.79477327282E+02  0.79477327282E+02  0.00000000000E+00 0.  1.
         21   -1    0    0  502  503 -0.00000000000E+00 -0.00000000000E+00 -0.71879003013E+03  0.71879003013E+03  0.00000000000E+00 0.  1.
          6    1    1    2  501    0  0.21544361628E+02  0.16328153020E+03 -0.33397223852E+03  0.41059892076E+03  0.17300000000E+03 0.  1.
         -6    1    1    2    0  503 -0.21544361628E+02 -0.16328153020E+03 -0.30534046432E+03  0.38766843665E+03  0.17300000000E+03 0.  1.
</event>
<event>
 4    1  0.5758867E+000  0.1000000E+03  0.7546771E-02  0.1280296E+00
         21   -1    0    0  501  502  0.00000000000E+00  0.00000000000E+00  0.99638003260E+02  0.99638003260E+02  0.00000000000E+00 0.  1.
         21   -1    0    0  502  503 -0.00000000000E+00 -0.00000000000E+00 -0.70061861115E+03  0.70061861115E+03  0.00000000000E+00 0.  1.
          6    1    1    2  501    0 -0.17468513391E+03 -0.73960008361E+02 -0.39499609907E+03  0.47110072928E+03  0.17300000000E+03 0.  1.
         -6    1    1    2    0  503  0.17468513391E+03  0.73960008361E+02 -0.20598450882E+03  0.32915588513E+03  0.17300000000E+03 0.  1.
</event>
<event>
 4    1  0.5758867E+000  0.1000000E+03  0.7546771E-02  0.1280296E+00
         21   -1    0    0  501  502  0.00000000000E+00  0.00000000000E+00  0.45787201497E+03  0.45787201497E+03  0.00000000000E+00 0. -1.
         21   -1    0    0  502  503 -0.00000000000E+00 -0.00000000000E+00 -0.78899347279E+02  0.78899347279E+02  0.00000000000E+00 0. -1.
          6    1    1    2  501    0  0.27374542712E+02 -0.27551760153E+01  0.29363264939E+03  0.34191532486E+03  0.17300000000E+03 0. -1.
         -6    1    1    2    0  503 -0.27374542712E+02  0.27551760153E+01  0.85340018294E+02  0.19485603739E+03  0.17300000000E+03 0. -1.
</event>
<event>
 4    1  0.5758867E+000  0.1000000E+03  0.7546771E-02  0.1280296E+00
         21   -1    0    0  501  502  0.00000000000E+00  0.00000000000E+00  0.13794733589E+03  0.13794733589E+03  0.00000000000E+00 0. -1.
         21   -1    0    0  502  503 -0.00000000000E+00 -0.00000000000E+00 -0.10315360354E+04  0.10315360354E+04  0.00000000000E+00 0. -1.
          6    1    1    2  501    0  0.44833913273E+02 -0.15738902421E+03  0.66977902991E+01  0.23823359359E+03  0.17300000000E+03 0. -1.
         -6    1    1    2    0  503 -0.44833913273E+02  0.15738902421E+03 -0.90028648982E+03  0.93124977771E+03  0.17300000000E+03 0. -1.
</event>
<event>
 4    1  0.5758867E+000  0.1000000E+03  0.7546771E-02  0.1280296E+00
         21   -1    0    0  503  502  0.00000000000E+00  0.00000000000E+00  0.88573209696E+03  0.88573209696E+03  0.00000000000E+00 0.  1.
         21   -1    0    0  501  503 -0.00000000000E+00 -0.00000000000E+00 -0.17271721363E+03  0.17271721363E+03  0.00000000000E+00 0. -1.
          6    1    1    2  501    0  0.13129800930E+03 -0.21398809082E+03  0.25012662193E+02  0.30591617075E+03  0.17300000000E+03 0. -1.
         -6    1    1    2    0  502 -0.13129800930E+03  0.21398809082E+03  0.68800222114E+03  0.75253313984E+03  0.17300000000E+03 0. -1.
</event>
<event>
 4    1  0.5758867E+000  0.1000000E+03  0.7546771E-02  0.1280296E+00
         21   -1    0    0  503  502  0.00000000000E+00  0.00000000000E+00  0.54028148954E+03  0.54028148954E+03  0.00000000000E+00 0.  1.
         21   -1    0    0  501  503 -0.00000000000E+00 -0.00000000000E+00 -0.89180456055E+02  0.89180456055E+02  0.00000000000E+00 0. -1.
          6    1    1    2  501    0 -0.10958984114E+03 -0.52155321608E+01  0.11250207498E+03  0.23371532242E+03  0.17300000000E+03 0. -1.
         -6    1    1    2    0  502  0.10958984114E+03  0.52155321608E+01  0.33859895850E+03  0.39574662318E+03  0.17300000000E+03 0. -1.
</event>
<event>
 4    1  0.5758867E+000  0.1000000E+03  0.7546771E-02  0.1280296E+00
         21   -1    0    0  503  502  0.00000000000E+00  0.00000000000E+00  0.15537213712E+03  0.15537213712E+03  0.00000000000E+00 0.  1.
         21   -1    0    0  501  503 -0.00000000000E+00 -0.00000000000E+00 -0.25151645095E+03  0.25151645095E+03  0.00000000000E+00 0.  1.
          6    1    1    2  501    0  0.16588595280E+02  0.94067410399E+02 -0.42845841447E+02  0.20220936012E+03  0.17300000000E+03 0.  1.
         -6    1    1    2    0  502 -0.16588595280E+02 -0.94067410399E+02 -0.53298472382E+02  0.20467922794E+03  0.17300000000E+03 0.  1.
</event>
<event>
 4    1  0.5758867E+000  0.1000000E+03  0.7546771E-02  0.1280296E+00
         21   -1    0    0  503  502  0.00000000000E+00  0.00000000000E+00  0.33526211008E+03  0.33526211008E+03  0.00000000000E+00 0.  1.
         21   -1    0    0  501  503 -0.00000000000E+00 -0.00000000000E+00 -0.13007780639E+03  0.13007780639E+03  0.00000000000E+00 0.  1.
          6    1    1    2  501    0  0.16376194264E+02  0.34444055970E+02 -0.20604554146E+02  0.17834831197E+03  0.17300000000E+03 0.  1.
         -6    1    1    2    0  502 -0.16376194264E+02 -0.34444055970E+02  0.22578885784E+03  0.28699160450E+03  0.17300000000E+03 0.  1.
</event>
<event>
 4    1  0.5758867E+000  0.1000000E+03  0.7546771E-02  0.1280296E+00
         21   -1    0    0  503  502  0.00000000000E+00  0.00000000000E+00  0.23745273256E+03  0.23745273256E+03  0.00000000000E+00 0.  1.
         21   -1    0    0  501  503 -0.00000000000E+00 -0.00000000000E+00 -0.43822200833E+03  0.43822200833E+03  0.00000000000E+00 0.  1.
          6    1    1    2  501    0 -0.98552762879E+02 -0.10100063720E+03 -0.34423796590E+03  0.41029568966E+03  0.17300000000E+03 0.  1.
         -6    1    1    2    0  502  0.98552762879E+02  0.10100063720E+03  0.14346869013E+03  0.26537905123E+03  0.17300000000E+03 0.  1.
</event>
<event>
 4    1  0.5758867E+000  0.1000000E+03  0.7546771E-02  0.1280296E+00
         21   -1    0    0  503  502  0.00000000000E+00  0.00000000000E+00  0.19472471311E+03  0.19472471311E+03  0.00000000000E+00 0.  1.
         21   -1    0    0  501  503 -0.00000000000E+00 -0.00000000000E+00 -0.16263724917E+03  0.16263724917E+03  0.00000000000E+00 0.  1.
          6    1    1    2  501    0  0.10181725028E+02 -0.39382939120E+02  0.25344575762E+02  0.17951610217E+03  0.17300000000E+03 0.  1.
         -6    1    1    2    0  502 -0.10181725028E+02  0.39382939120E+02  0.67428881789E+01  0.17784586011E+03  0.17300000000E+03 0.  1.
</event>
<event>
 4    1  0.5758867E+000  0.1000000E+03  0.7546771E-02  0.1280296E+00
         21   -1    0    0  503  502  0.00000000000E+00  0.00000000000E+00  0.95758892372E+03  0.95758892372E+03  0.00000000000E+00 0.  1.
         21   -1    0    0  501  503 -0.00000000000E+00 -0.00000000000E+00 -0.52696394190E+02  0.52696394190E+02  0.00000000000E+00 0.  1.
          6    1    1    2  501    0  0.91663721113E+02  0.49202041758E+02  0.23086637529E+03  0.30667794496E+03  0.17300000000E+03 0.  1.
         -6    1    1    2    0  502 -0.91663721113E+02 -0.49202041758E+02  0.67402615423E+03  0.70360737295E+03  0.17300000000E+03 0.  1.
</event>
<event>
 4    1  0.5758867E+000  0.1000000E+03  0.7546771E-02  0.1280296E+00
         21   -1    0    0  503  502  0.00000000000E+00  0.00000000000E+00  0.19564868314E+03  0.19564868314E+03  0.00000000000E+00 0. -1.
         21   -1    0    0  501  503 -0.00000000000E+00 -0.00000000000E+00 -0.53462874427E+03  0.53462874427E+03  0.00000000000E+00 0. -1.
          6    1    1    2  501    0 -0.22976760554E+03  0.38398621919E+02 -0.33075431103E+03  0.43999434199E+03  0.17300000000E+03 0. -1.
         -6    1    1    2    0  502  0.22976760554E+03 -0.38398621919E+02 -0.82257500984E+01  0.29028308542E+03  0.17300000000E+03 0. -1.
</event>
<event>
 4    1  0.5758867E+000  0.1000000E+03  0.7546771E-02  0.1280296E+00
         21   -1    0    0  503  502  0.00000000000E+00  0.00000000000E+00  0.30353568028E+02  0.30353568028E+02  0.00000000000E+00 0. -1.
         21   -1    0    0  501  503 -0.00000000000E+00 -0.00000000000E+00 -0.32948182494E+04  0.32948182494E+04  0.00000000000E+00 0. -1.
          6    1    1    2  501    0  0.16040043530E+03 -0.53089221410E+02 -0.27036626548E+04  0.27144552890E+04  0.17300000000E+03 0. -1.
         -6    1    1    2    0  502 -0.16040043530E+03  0.53089221410E+02 -0.56080202655E+03  0.61071652840E+03  0.17300000000E+03 0. -1.
</event>
<event>
 4    1  0.5758867E+000  0.1000000E+03  0.7546771E-02  0.1280296E+00
         21   -1    0    0  503  502  0.00000000000E+00  0.00000000000E+00  0.11268541221E+04  0.11268541221E+04  0.00000000000E+00 0. -1.
         21   -1    0    0  501  503 -0.00000000000E+00 -0.00000000000E+00 -0.28433551360E+02  0.28433551360E+02  0.00000000000E+00 0. -1.
          6    1    1    2  501    0 -0.21941747840E+02  0.20017999631E+02  0.43606397928E+03  0.47006696824E+03  0.17300000000E+03 0. -1.
         -6    1    1    2    0  502  0.21941747840E+02 -0.20017999631E+02  0.66235659148E+03  0.68522070524E+03  0.17300000000E+03 0. -1.
</event>
<event>
 4    1  0.5758867E+000  0.1000000E+03  0.7546771E-02  0.1280296E+00
         21   -1    0    0  501  502  0.00000000000E+00  0.00000000000E+00  0.19642432075E+03  0.19642432075E+03  0.00000000000E+00 0.  1.
         21   -1    0    0  502  503 -0.00000000000E+00 -0.00000000000E+00 -0.31172067582E+03  0.31172067582E+03  0.00000000000E+00 0. -1.
          6    1    1    2  501    0  0.15713887121E+03  0.61975995360E+02 -0.36384670677E+01  0.24181788041E+03  0.17300000000E+03 0. -1.
         -6    1    1    2    0  503 -0.15713887121E+03 -0.61975995360E+02 -0.11165788801E+03  0.26632711615E+03  0.17300000000E+03 0.  1.
</event>
<event>
 4    1  0.5758867E+000  0.1000000E+03  0.7546771E-02  0.1280296E+00
         21   -1    0    0  503  502  0.00000000000E+00  0.00000000000E+00  0.66680073599E+02  0.66680073599E+02  0.00000000000E+00 0.  1.
         21   -1    0    0  501  503 -0.00000000000E+00 -0.00000000000E+00 -0.71746046303E+03  0.71746046303E+03  0.00000000000E+00 0.  1.
          6    1    1    2  501    0 -0.63409289852E+02  0.18888276405E+02 -0.53392423076E+03  0.56513855754E+03  0.17300000000E+03 0.  1.
         -6    1    1    2    0  502  0.63409289852E+02 -0.18888276405E+02 -0.11685615867E+03  0.21900197909E+03  0.17300000000E+03 0.  1.
</event>
<event>
 4    1  0.5758867E+000  0.1000000E+03  0.7546771E-02  0.1280296E+00
         21   -1    0    0  503  502  0.00000000000E+00  0.00000000000E+00  0.92551678487E+02  0.92551678487E+02  0.00000000000E+00 0.  1.
         21   -1    0    0  501  503 -0.00000000000E+00 -0.00000000000E+00 -0.83468541149E+03  0.83468541149E+03  0.00000000000E+00 0.  1.
          6    1    1    2  501    0 -0.20870550381E+03  0.42317320686E+02 -0.44517366110E+03  0.52293147877E+03  0.17300000000E+03 0.  1.
         -6    1    1    2    0  502  0.20870550381E+03 -0.42317320686E+02 -0.29696007191E+03  0.40430561121E+03  0.17300000000E+03 0.  1.
</event>
<event>
 4    1  0.5758867E+000  0.1000000E+03  0.7546771E-02  0.1280296E+00
         21   -1    0    0  501  502  0.00000000000E+00  0.00000000000E+00  0.14855463346E+04  0.14855463346E+04  0.00000000000E+00 0. -1.
         21   -1    0    0  502  503 -0.00000000000E+00 -0.00000000000E+00 -0.26040544105E+02  0.26040544105E+02  0.00000000000E+00 0. -1.
          6    1    1    2  501    0  0.44248811285E+02 -0.25958546408E+02  0.10304571067E+04  0.10461370141E+04  0.17300000000E+03 0. -1.
         -6    1    1    2    0  503 -0.44248811285E+02  0.25958546408E+02  0.42904868374E+03  0.46544986459E+03  0.17300000000E+03 0. -1.
</event>
<event>
 4    1  0.5758867E+000  0.1000000E+03  0.7546771E-02  0.1280296E+00
         21   -1    0    0  501  502  0.00000000000E+00  0.00000000000E+00  0.37314660075E+03  0.37314660075E+03  0.00000000000E+00 0.  1.
         21   -1    0    0  502  503 -0.00000000000E+00 -0.00000000000E+00 -0.16563866868E+03  0.16563866868E+03  0.00000000000E+00 0.  1.
          6    1    1    2  501    0 -0.47063701716E+01  0.11496979190E+03  0.25168806591E+03  0.32636802155E+03  0.17300000000E+03 0.  1.
         -6    1    1    2    0  503  0.47063701716E+01 -0.11496979190E+03 -0.44180133843E+02  0.21241724788E+03  0.17300000000E+03 0.  1.
</event>
<event>
 4    1  0.5758867E+000  0.1000000E+03  0.7546771E-02  0.1280296E+00
         21   -1    0    0  501  502  0.00000000000E+00  0.00000000000E+00  0.21311634445E+03  0.21311634445E+03  0.00000000000E+00 0.  1.
         21   -1    0    0  502  503 -0.00000000000E+00 -0.00000000000E+00 -0.29176158646E+03  0.29176158646E+03  0.00000000000E+00 0.  1.
          6    1    1    2  501    0  0.42017192309E+00  0.94677365889E+02  0.11516123675E+03  0.22837489049E+03  0.17300000000E+03 0.  1.
         -6    1    1    2    0  503 -0.42017192309E+00 -0.94677365889E+02 -0.19380647875E+03  0.27650304042E+03  0.17300000000E+03 0.  1.
</event>
<event>
 4    1  0.5758867E+000  0.1000000E+03  0.7546771E-02  0.1280296E+00
         21   -1    0    0  501  502  0.00000000000E+00  0.00000000000E+00  0.58958401811E+03  0.58958401811E+03  0.00000000000E+00 0.  1.
         21   -1    0    0  502  503 -0.00000000000E+00 -0.00000000000E+00 -0.12031491577E+03  0.12031491577E+03  0.00000000000E+00 0.  1.
          6    1    1    2  501    0 -0.10527981535E+03 -0.15030352180E+03  0.34874834888E+03  0.43038285169E+03  0.17300000000E+03 0.  1.
         -6    1    1    2    0  503  0.10527981535E+03  0.15030352180E+03  0.12052075346E+03  0.27951608219E+03  0.17300000000E+03 0.  1.
</event>
<event>
 4    1  0.5758867E+000  0.1000000E+03  0.7546771E-02  0.1280296E+00
         21   -1    0    0  501  502  0.00000000000E+00  0.00000000000E+00  0.78733430852E+03  0.78733430852E+03  0.00000000000E+00 0.  1.
         21   -1    0    0  502  503 -0.00000000000E+00 -0.00000000000E+00 -0.82307838174E+02  0.82307838174E+02  0.00000000000E+00 0.  1.
          6    1    1    2  501    0  0.12626761169E+03 -0.60632151403E+02  0.56348131516E+03  0.60585473513E+03  0.17300000000E+03 0.  1.
         -6    1    1    2    0  503 -0.12626761169E+03  0.60632151403E+02  0.14154515519E+03  0.26378741157E+03  0.17300000000E+03 0.  1.
</event>
<event>
 4    1  0.5758867E+000  0.1000000E+03  0.7546771E-02  0.1280296E+00
         21   -1    0    0  501  502  0.00000000000E+00  0.00000000000E+00  0.21024091562E+03  0.21024091562E+03  0.00000000000E+00 0. -1.
         21   -1    0    0  502  503 -0.00000000000E+00 -0.00000000000E+00 -0.28143618081E+03  0.28143618081E+03  0.00000000000E+00 0. -1.
          6    1    1    2  501    0  0.28306165291E+02  0.14124463751E+03  0.57520139019E+02  0.23235501504E+03  0.17300000000E+03 0. -1.
         -6    1    1    2    0  503 -0.28306165291E+02 -0.14124463751E+03 -0.12871540421E+03  0.25932208140E+03  0.17300000000E+03 0. -1.
</event>
<event>
 4    1  0.5758867E+000  0.1000000E+03  0.7546771E-02  0.1280296E+00
         21   -1    0    0  501  502  0.00000000000E+00  0.00000000000E+00  0.26089899324E+03  0.26089899324E+03  0.00000000000E+00 0. -1.
         21   -1    0    0  502  503 -0.00000000000E+00 -0.00000000000E+00 -0.45742302885E+03  0.45742302885E+03  0.00000000000E+00 0. -1.
          6    1    1    2  501    0 -0.27923267200E+03  0.75989536971E+02 -0.17652695457E+03  0.38057333135E+03  0.17300000000E+03 0. -1.
         -6    1    1    2    0  503  0.27923267200E+03 -0.75989536971E+02 -0.19997081039E+02  0.33774869074E+03  0.17300000000E+03 0. -1.
</event>
<event>
 4    1  0.5758867E+000  0.1000000E+03  0.7546771E-02  0.1280296E+00
         21   -1    0    0  503  502  0.00000000000E+00  0.00000000000E+00  0.63679415918E+03  0.63679415918E+03  0.00000000000E+00 0. -1.
         21   -1    0    0  501  503 -0.00000000000E+00 -0.00000000000E+00 -0.24080341379E+03  0.24080341379E+03  0.00000000000E+00 0. -1.
          6    1    1    2  501    0  0.12520038818E+03 -0.29434034813E+02 -0.16832910341E+03  0.27350536861E+03  0.17300000000E+03 0. -1.
         -6    1    1    2    0  502 -0.12520038818E+03  0.29434034813E+02  0.56431984881E+03  0.60409220436E+03  0.17300000000E+03 0. -1.
</event>
<event>
 4    1  0.5758867E+000  0.1000000E+03  0.7546771E-02  0.1280296E+00
         21   -1    0    0  503  502  0.00000000000E+00  0.00000000000E+00  0.78293201737E+03  0.78293201737E+03  0.00000000000E+00 0. -1.
         21   -1    0    0  501  503 -0.00000000000E+00 -0.00000000000E+00 -0.59259950046E+02  0.59259950046E+02  0.00000000000E+00 0. -1.
          6    1    1    2  501    0 -0.50741574706E+02 -0.87418624528E+02  0.20727292326E+03  0.28828421399E+03  0.17300000000E+03 0. -1.
         -6    1    1    2    0  502  0.50741574706E+02  0.87418624528E+02  0.51639914406E+03  0.55390775343E+03  0.17300000000E+03 0. -1.
</event>
<event>
 4    1  0.5758867E+000  0.1000000E+03  0.7546771E-02  0.1280296E+00
         21   -1    0    0  501  502  0.00000000000E+00  0.00000000000E+00  0.89845682572E+03  0.89845682572E+03  0.00000000000E+00 0.  1.
         21   -1    0    0  502  503 -0.00000000000E+00 -0.00000000000E+00 -0.41538147960E+02  0.41538147960E+02  0.00000000000E+00 0.  1.
          6    1    1    2  501    0  0.39760745778E+02  0.76132414885E+02  0.41930083463E+03  0.46164840672E+03  0.17300000000E+03 0.  1.
         -6    1    1    2    0  503 -0.39760745778E+02 -0.76132414885E+02  0.43761784313E+03  0.47834656696E+03  0.17300000000E+03 0.  1.
</event>
<event>
 4    1  0.5758867E+000  0.1000000E+03  0.7546771E-02  0.1280296E+00
         21   -1    0    0  501  502  0.00000000000E+00  0.00000000000E+00  0.18841909587E+03  0.18841909587E+03  0.00000000000E+00 0.  1.
         21   -1    0    0  502  503 -0.00000000000E+00 -0.00000000000E+00 -0.50719711179E+03  0.50719711179E+03  0.00000000000E+00 0.  1.
          6    1    1    2  501    0  0.25239058125E+03 -0.23205791268E+02 -0.20144265681E+03  0.36707990715E+03  0.17300000000E+03 0.  1.
         -6    1    1    2    0  503 -0.25239058125E+03  0.23205791268E+02 -0.11733535911E+03  0.32853630051E+03  0.17300000000E+03 0.  1.
</event>
<event>
 4    1  0.5758867E+000  0.1000000E+03  0.7546771E-02  0.1280296E+00
         21   -1    0    0  503  502  0.00000000000E+00  0.00000000000E+00  0.15216324303E+03  0.15216324303E+03  0.00000000000E+00 0. -1.
         21   -1    0    0  501  503 -0.00000000000E+00 -0.00000000000E+00 -0.28080380160E+03  0.28080380160E+03  0.00000000000E+00 0. -1.
          6    1    1    2  501    0 -0.19873660790E+02  0.25586389773E+02 -0.17784126705E+03  0.25021219395E+03  0.17300000000E+03 0. -1.
         -6    1    1    2    0  502  0.19873660790E+02 -0.25586389773E+02  0.49200708475E+02  0.18275485069E+03  0.17300000000E+03 0. -1.
</event>
<event>
 4    1  0.5758867E+000  0.1000000E+03  0.7546771E-02  0.1280296E+00
         21   -1    0    0  503  502  0.00000000000E+00  0.00000000000E+00  0.75007495022E+03  0.75007495022E+03  0.00000000000E+00 0. -1.
         21   -1    0    0  501  503 -0.00000000000E+00 -0.00000000000E+00 -0.10095538105E+03  0.10095538105E+03  0.00000000000E+00 0. -1.
          6    1    1    2  501    0 -0.10878445805E+03 -0.94511096744E+02  0.79925628374E+02  0.23892155992E+03  0.17300000000E+03 0. -1.
         -6    1    1    2    0  502  0.10878445805E+03  0.94511096744E+02  0.56919394080E+03  0.61210877135E+03  0.17300000000E+03 0. -1.
</event>
<event>
 4    1  0.5758867E+000  0.1000000E+03  0.7546771E-02  0.1280296E+00
         21   -1    0    0  501  502  0.00000000000E+00  0.00000000000E+00  0.15825170404E+03  0.15825170404E+03  0.00000000000E+00 0.  1.
         21   -1    0    0  502  503 -0.00000000000E+00 -0.00000000000E+00 -0.31075329885E+03  0.31075329885E+03  0.00000000000E+00 0.  1.
          6    1    1    2  501    0  0.49799442100E+02 -0.51920128984E+01 -0.21307406792E+03  0.27899193510E+03  0.17300000000E+03 0.  1.
         -6    1    1    2    0  503 -0.49799442100E+02  0.51920128984E+01  0.60572473108E+02  0.19001306779E+03  0.17300000000E+03 0.  1.
</event>
<event>
 4    1  0.5758867E+000  0.1000000E+03  0.7546771E-02  0.1280296E+00
         21   -1    0    0  503  502  0.00000000000E+00  0.00000000000E+00  0.28064473401E+03  0.28064473401E+03  0.00000000000E+00 0.  1.
         21   -1    0    0  501  503 -0.00000000000E+00 -0.00000000000E+00 -0.41508177934E+03  0.41508177934E+03  0.00000000000E+00 0. -1.
          6    1    1    2  501    0  0.16874455004E+02  0.97648764252E+02 -0.34956240384E+03  0.40242129985E+03  0.17300000000E+03 0. -1.
         -6    1    1    2    0  502 -0.16874455004E+02 -0.97648764252E+02  0.21512535852E+03  0.29330521350E+03  0.17300000000E+03 0.  1.
</event>
<event>
 4    1  0.5758867E+000  0.1000000E+03  0.7546771E-02  0.1280296E+00
         21   -1    0    0  501  502  0.00000000000E+00  0.00000000000E+00  0.10925686845E+03  0.10925686845E+03  0.00000000000E+00 0. -1.
         21   -1    0    0  502  503 -0.00000000000E+00 -0.00000000000E+00 -0.50247639715E+03  0.50247639715E+03  0.00000000000E+00 0.  1.
          6    1    1    2  501    0  0.29264921916E+02 -0.15528251814E+03 -0.19784924510E+03  0.30666336573E+03  0.17300000000E+03 0. -1.
         -6    1    1    2    0  503 -0.29264921916E+02  0.15528251814E+03 -0.19537028360E+03  0.30506989987E+03  0.17300000000E+03 0.  1.
</event>
<event>
 4    1  0.5758867E+000  0.1000000E+03  0.7546771E-02  0.1280296E+00
         21   -1    0    0  501  502  0.00000000000E+00  0.00000000000E+00  0.11002617504E+04  0.11002617504E+04  0.00000000000E+00 0. -1.
         21   -1    0    0  502  503 -0.00000000000E+00 -0.00000000000E+00 -0.96602312901E+02  0.96602312901E+02  0.00000000000E+00 0.  1.
          6    1    1    2  501    0  0.22645663613E+03 -0.13122008982E+03  0.66454019976E+03  0.73487685847E+03  0.17300000000E+03 0. -1.
         -6    1    1    2    0  503 -0.22645663613E+03  0.13122008982E+03  0.33911923772E+03  0.46198720481E+03  0.17300000000E+03 0.  1.
</event>
<event>
 4    1  0.5758867E+000  0.1000000E+03  0.7546771E-02  0.1280296E+00
         21   -1    0    0  503  502  0.00000000000E+00  0.00000000000E+00  0.48567378354E+03  0.48567378354E+03  0.00000000000E+00 0.  1.
         21   -1    0    0  501  503 -0.00000000000E+00 -0.00000000000E+00 -0.17489060527E+03  0.17489060527E+03  0.00000000000E+00 0. -1.
          6    1    1    2  501    0 -0.55789284406E+02  0.57828500372E+02 -0.94322474481E+02  0.21279640246E+03  0.17300000000E+03 0. -1.
         -6    1    1    2    0  502  0.55789284406E+02 -0.57828500372E+02  0.40510565275E+03  0.44776798635E+03  0.17300000000E+03 0.  1.
</event>
<event>
 4    1  0.5758867E+000  0.1000000E+03  0.7546771E-02  0.1280296E+00
         21   -1    0    0  503  502  0.00000000000E+00  0.00000000000E+00  0.22468747581E+03  0.22468747581E+03  0.00000000000E+00 0.  1.
         21   -1    0    0  501  503 -0.00000000000E+00 -0.00000000000E+00 -0.22962728372E+03  0.22962728372E+03  0.00000000000E+00 0.  1.
          6    1    1    2  501    0 -0.74108623350E+01 -0.73692169648E+02 -0.12967773034E+03  0.22854052265E+03  0.17300000000E+03 0.  1.
         -6    1    1    2    0  502  0.74108623350E+01  0.73692169648E+02  0.12473792242E+03  0.22577423688E+03  0.17300000000E+03 0.  1.
</event>
<event>
 4    1  0.5758867E+000  0.1000000E+03  0.7546771E-02  0.1280296E+00
         21   -1    0    0  503  502  0.00000000000E+00  0.00000000000E+00  0.94045942599E+03  0.94045942599E+03  0.00000000000E+00 0.  1.
         21   -1    0    0  501  503 -0.00000000000E+00 -0.00000000000E+00 -0.52040824526E+02  0.52040824526E+02  0.00000000000E+00 0.  1.
          6    1    1    2  501    0  0.68827319189E+02 -0.11346178646E+03  0.36020315709E+03  0.42105354913E+03  0.17300000000E+03 0.  1.
         -6    1    1    2    0  502 -0.68827319189E+02  0.11346178646E+03  0.52821544437E+03  0.57144670139E+03  0.17300000000E+03 0.  1.
</event>
<event>
 4    1  0.5758867E+000  0.1000000E+03  0.7546771E-02  0.1280296E+00
         21   -1    0    0  501  502  0.00000000000E+00  0.00000000000E+00  0.98398926836E+03  0.98398926836E+03  0.00000000000E+00 0. -1.
         21   -1    0    0  502  503 -0.00000000000E+00 -0.00000000000E+00 -0.64383961339E+02  0.64383961339E+02  0.00000000000E+00 0.  1.
          6    1    1    2  501    0 -0.74497805329E+02  0.86907961317E+02  0.75667974319E+03  0.78459935668E+03  0.17300000000E+03 0. -1.
         -6    1    1    2    0  503  0.74497805329E+02 -0.86907961317E+02  0.16292556382E+03  0.26377387302E+03  0.17300000000E+03 0.  1.
</event>
<event>
 4    1  0.5758867E+000  0.1000000E+03  0.7546771E-02  0.1280296E+00
         21   -1    0    0  503  502  0.00000000000E+00  0.00000000000E+00  0.13602259023E+04  0.13602259023E+04  0.00000000000E+00 0.  1.
         21   -1    0    0  501  503 -0.00000000000E+00 -0.00000000000E+00 -0.15014845995E+03  0.15014845995E+03  0.00000000000E+00 0.  1.
          6    1    1    2  501    0  0.27601317369E+03 -0.24727733639E+02  0.83222129319E+02  0.33711964592E+03  0.17300000000E+03 0.  1.
         -6    1    1    2    0  502 -0.27601317369E+03  0.24727733639E+02  0.11268553130E+04  0.11732547163E+04  0.17300000000E+03 0.  1.
</event>
<event>
 4    1  0.5758867E+000  0.1000000E+03  0.7546771E-02  0.1280296E+00
         21   -1    0    0  503  502  0.00000000000E+00  0.00000000000E+00  0.19840788405E+03  0.19840788405E+03  0.00000000000E+00 0.  1.
         21   -1    0    0  501  503 -0.00000000000E+00 -0.00000000000E+00 -0.22292382611E+03  0.22292382611E+03  0.00000000000E+00 0.  1.
          6    1    1    2  501    0  0.10953680677E+03 -0.13194688942E+02 -0.58471210609E+02  0.21335485540E+03  0.17300000000E+03 0.  1.
         -6    1    1    2    0  502 -0.10953680677E+03  0.13194688942E+02  0.33955268544E+02  0.20797685476E+03  0.17300000000E+03 0.  1.
</event>
<event>
 4    1  0.5758867E+000  0.1000000E+03  0.7546771E-02  0.1280296E+00
         21   -1    0    0  503  502  0.00000000000E+00  0.00000000000E+00  0.12835191131E+03  0.12835191131E+03  0.00000000000E+00 0. -1.
         21   -1    0    0  501  503 -0.00000000000E+00 -0.00000000000E+00 -0.42665286285E+03  0.42665286285E+03  0.00000000000E+00 0. -1.
          6    1    1    2  501    0 -0.14347654727E+03  0.51948589562E+02 -0.10248575075E+03  0.25242128413E+03  0.17300000000E+03 0. -1.
         -6    1    1    2    0  502  0.14347654727E+03 -0.51948589562E+02 -0.19581520079E+03  0.30258349003E+03  0.17300000000E+03 0. -1.
</event>
<event>
 4    1  0.5758867E+000  0.1000000E+03  0.7546771E-02  0.1280296E+00
         21   -1    0    0  501  502  0.00000000000E+00  0.00000000000E+00  0.63087178391E+03  0.63087178391E+03  0.00000000000E+00 0.  1.
         21   -1    0    0  502  503 -0.00000000000E+00 -0.00000000000E+00 -0.18408792264E+03  0.18408792264E+03  0.00000000000E+00 0.  1.
          6    1    1    2  501    0  0.23169295799E+03 -0.36100944478E+02  0.12114503268E+02  0.29165161780E+03  0.17300000000E+03 0.  1.
         -6    1    1    2    0  503 -0.23169295799E+03  0.36100944478E+02  0.43466935799E+03  0.52330808875E+03  0.17300000000E+03 0.  1.
</event>
<event>
 4    1  0.5758867E+000  0.1000000E+03  0.7546771E-02  0.1280296E+00
         21   -1    0    0  501  502  0.00000000000E+00  0.00000000000E+00  0.91482149480E+02  0.91482149480E+02  0.00000000000E+00 0.  1.
         21   -1    0    0  502  503 -0.00000000000E+00 -0.00000000000E+00 -0.90953478186E+03  0.90953478186E+03  0.00000000000E+00 0.  1.
          6    1    1    2  501    0  0.63351505704E+02  0.12787448126E+03 -0.94244183702E+02  0.24326171584E+03  0.17300000000E+03 0.  1.
         -6    1    1    2    0  503 -0.63351505704E+02 -0.12787448126E+03 -0.72380844868E+03  0.75775521549E+03  0.17300000000E+03 0.  1.
</event>
<event>
 4    1  0.5758867E+000  0.1000000E+03  0.7546771E-02  0.1280296E+00
         21   -1    0    0  503  502  0.00000000000E+00  0.00000000000E+00  0.27276193779E+02  0.27276193779E+02  0.00000000000E+00 0. -1.
         21   -1    0    0  501  503 -0.00000000000E+00 -0.00000000000E+00 -0.22700087489E+04  0.22700087489E+04  0.00000000000E+00 0. -1.
          6    1    1    2  501    0  0.18764788215E+02 -0.13330463011E+02 -0.19401088975E+04  0.19479428515E+04  0.17300000000E+03 0. -1.
         -6    1    1    2    0  502 -0.18764788215E+02  0.13330463011E+02 -0.30262365760E+03  0.34934209117E+03  0.17300000000E+03 0. -1.
</event>
<event>
 4    1  0.5758867E+000  0.1000000E+03  0.7546771E-02  0.1280296E+00
         21   -1    0    0  503  502  0.00000000000E+00  0.00000000000E+00  0.11339659428E+03  0.11339659428E+03  0.00000000000E+00 0.  1.
         21   -1    0    0  501  503 -0.00000000000E+00 -0.00000000000E+00 -0.51674245173E+03  0.51674245173E+03  0.00000000000E+00 0.  1.
          6    1    1    2  501    0 -0.10845765545E+02 -0.92396433609E+02 -0.38580376674E+03  0.43292987654E+03  0.17300000000E+03 0.  1.
         -6    1    1    2    0  502  0.10845765545E+02  0.92396433609E+02 -0.17542090718E+02  0.19720916946E+03  0.17300000000E+03 0.  1.
</event>
<event>
 4    1  0.5758867E+000  0.1000000E+03  0.7546771E-02  0.1280296E+00
         21   -1    0    0  503  502  0.00000000000E+00  0.00000000000E+00  0.54214582154E+03  0.54214582154E+03  0.00000000000E+00 0.  1.
         21   -1    0    0  501  503 -0.00000000000E+00 -0.00000000000E+00 -0.75241772400E+02  0.75241772400E+02  0.00000000000E+00 0.  1.
          6    1    1    2  501    0  0.51941003684E+02  0.67609344921E+02  0.14182223456E+03  0.23939807351E+03  0.17300000000E+03 0.  1.
         -6    1    1    2    0  502 -0.51941003684E+02 -0.67609344921E+02  0.32508181458E+03  0.37798952043E+03  0.17300000000E+03 0.  1.
</event>
<event>
 4    1  0.5758867E+000  0.1000000E+03  0.7546771E-02  0.1280296E+00
         21   -1    0    0  501  502  0.00000000000E+00  0.00000000000E+00  0.94443469827E+03  0.94443469827E+03  0.00000000000E+00 0. -1.
         21   -1    0    0  502  503 -0.00000000000E+00 -0.00000000000E+00 -0.10288974537E+03  0.10288974537E+03  0.00000000000E+00 0. -1.
          6    1    1    2  501    0 -0.75399651570E+01  0.12783830123E+03  0.79956359092E+03  0.82802802987E+03  0.17300000000E+03 0.  1.
         -6    1    1    2    0  503  0.75399651570E+01 -0.12783830123E+03  0.41981361989E+02  0.21929641376E+03  0.17300000000E+03 0.  1.
</event>
<event>
 4    1  0.5758867E+000  0.1000000E+03  0.7546771E-02  0.1280296E+00
         21   -1    0    0  503  502  0.00000000000E+00  0.00000000000E+00  0.48545222645E+03  0.48545222645E+03  0.00000000000E+00 0. -1.
         21   -1    0    0  501  503 -0.00000000000E+00 -0.00000000000E+00 -0.89968479264E+02  0.89968479264E+02  0.00000000000E+00 0. -1.
          6    1    1    2  501    0 -0.10586759539E+03 -0.44887512292E+02  0.22924264090E+03  0.30936067126E+03  0.17300000000E+03 0. -1.
         -6    1    1    2    0  502  0.10586759539E+03  0.44887512292E+02  0.16624110628E+03  0.26606003445E+03  0.17300000000E+03 0. -1.
</event>
<event>
 4    1  0.5758867E+000  0.1000000E+03  0.7546771E-02  0.1280296E+00
         21   -1    0    0  503  502  0.00000000000E+00  0.00000000000E+00  0.12974333655E+03  0.12974333655E+03  0.00000000000E+00 0. -1.
         21   -1    0    0  501  503 -0.00000000000E+00 -0.00000000000E+00 -0.72974897604E+03  0.72974897604E+03  0.00000000000E+00 0. -1.
          6    1    1    2  501    0 -0.12896234741E+03 -0.10154705566E+03 -0.57156821840E+03  0.61932408305E+03  0.17300000000E+03 0. -1.
         -6    1    1    2    0  502  0.12896234741E+03  0.10154705566E+03 -0.28437421087E+02  0.24016822954E+03  0.17300000000E+03 0. -1.
</event>
<event>
 4    1  0.5758867E+000  0.1000000E+03  0.7546771E-02  0.1280296E+00
         21   -1    0    0  503  502  0.00000000000E+00  0.00000000000E+00  0.21432811407E+03  0.21432811407E+03  0.00000000000E+00 0. -1.
         21   -1    0    0  501  503 -0.00000000000E+00 -0.00000000000E+00 -0.75318284023E+03  0.75318284023E+03  0.00000000000E+00 0. -1.
          6    1    1    2  501    0  0.31324060967E+02  0.93168361620E+02 -0.68969601051E+03  0.71782388322E+03  0.17300000000E+03 0. -1.
         -6    1    1    2    0  502 -0.31324060967E+02 -0.93168361620E+02  0.15084128434E+03  0.24968707108E+03  0.17300000000E+03 0. -1.
</event>
<event>
 4    1  0.5758867E+000  0.1000000E+03  0.7546771E-02  0.1280296E+00
         21   -1    0    0  503  502  0.00000000000E+00  0.00000000000E+00  0.19414646443E+03  0.19414646443E+03  0.00000000000E+00 0. -1.
         21   -1    0    0  501  503 -0.00000000000E+00 -0.00000000000E+00 -0.52755629303E+03  0.52755629303E+03  0.00000000000E+00 0. -1.
          6    1    1    2  501    0 -0.50420003433E+02 -0.21869947827E+02 -0.46389854103E+03  0.49814789745E+03  0.17300000000E+03 0. -1.
         -6    1    1    2    0  502  0.50420003433E+02  0.21869947827E+02  0.13048871243E+03  0.22355486002E+03  0.17300000000E+03 0. -1.
</event>
<event>
 4    1  0.5758867E+000  0.1000000E+03  0.7546771E-02  0.1280296E+00
         21   -1    0    0  503  502  0.00000000000E+00  0.00000000000E+00  0.55828397007E+02  0.55828397007E+02  0.00000000000E+00 0.  1.
         21   -1    0    0  501  503 -0.00000000000E+00 -0.00000000000E+00 -0.76178198090E+03  0.76178198090E+03  0.00000000000E+00 0. -1.
          6    1    1    2  501    0  0.79871446127E+02 -0.20016538918E+02 -0.20174838915E+03  0.27822926205E+03  0.17300000000E+03 0. -1.
         -6    1    1    2    0  502 -0.79871446127E+02  0.20016538918E+02 -0.50420519474E+03  0.53938111585E+03  0.17300000000E+03 0.  1.
</event>
<event>
 4    1  0.5758867E+000  0.1000000E+03  0.7546771E-02  0.1280296E+00
         21   -1    0    0  501  502  0.00000000000E+00  0.00000000000E+00  0.34383133468E+03  0.34383133468E+03  0.00000000000E+00 0.  1.
         21   -1    0    0  502  503 -0.00000000000E+00 -0.00000000000E+00 -0.15990229732E+03  0.15990229732E+03  0.00000000000E+00 0. -1.
          6    1    1    2  501    0 -0.10371840260E+03 -0.78747684538E+02  0.18858988977E+03  0.28714778665E+03  0.17300000000E+03 0.  1.
         -6    1    1    2    0  503  0.10371840260E+03  0.78747684538E+02 -0.46608524055E+01  0.21658584534E+03  0.17300000000E+03 0. -1.
</event>
<event>
 4    1  0.5758867E+000  0.1000000E+03  0.7546771E-02  0.1280296E+00
         21   -1    0    0  501  502  0.00000000000E+00  0.00000000000E+00  0.81219195145E+02  0.81219195145E+02  0.00000000000E+00 0.  1.
         21   -1    0    0  502  503 -0.00000000000E+00 -0.00000000000E+00 -0.60136807075E+03  0.60136807075E+03  0.00000000000E+00 0. -1.
          6    1    1    2  501    0 -0.10816106544E+03 -0.48922892692E+02 -0.36730378856E+03  0.42300512834E+03  0.17300000000E+03 0.  1.
         -6    1    1    2    0  503  0.10816106544E+03  0.48922892692E+02 -0.15284508704E+03  0.25958213756E+03  0.17300000000E+03 0. -1.
</event>
<event>
 4    1  0.5758867E+000  0.1000000E+03  0.7546771E-02  0.1280296E+00
         21   -1    0    0  503  502  0.00000000000E+00  0.00000000000E+00  0.30289836922E+02  0.30289836922E+02  0.00000000000E+00 0.  1.
         21   -1    0    0  501  503 -0.00000000000E+00 -0.00000000000E+00 -0.25450765550E+04  0.25450765550E+04  0.00000000000E+00 0.  1.
          6    1    1    2  501    0 -0.11993321925E+03 -0.69423858349E+02 -0.20328504735E+04  0.20448994344E+04  0.17300000000E+03 0.  1.
         -6    1    1    2    0  502  0.11993321925E+03  0.69423858349E+02 -0.48193624460E+03  0.53046695754E+03  0.17300000000E+03 0.  1.
</event>
<event>
 4    1  0.5758867E+000  0.1000000E+03  0.7546771E-02  0.1280296E+00
         21   -1    0    0  503  502  0.00000000000E+00  0.00000000000E+00  0.20506116716E+03  0.20506116716E+03  0.00000000000E+00 0.  1.
         21   -1    0    0  501  503 -0.00000000000E+00 -0.00000000000E+00 -0.22573661374E+03  0.22573661374E+03  0.00000000000E+00 0.  1.
          6    1    1    2  501    0 -0.24001653902E+02  0.81073743595E+02 -0.10642648060E+03  0.22001051580E+03  0.17300000000E+03 0.  1.
         -6    1    1    2    0  502  0.24001653902E+02 -0.81073743595E+02  0.85751034017E+02  0.21078726509E+03  0.17300000000E+03 0.  1.
</event>
<event>
 4    1  0.5758867E+000  0.1000000E+03  0.7546771E-02  0.1280296E+00
         21   -1    0    0  503  502  0.00000000000E+00  0.00000000000E+00  0.35472799517E+02  0.35472799517E+02  0.00000000000E+00 0.  1.
         21   -1    0    0  501  503 -0.00000000000E+00 -0.00000000000E+00 -0.16242771535E+04  0.16242771535E+04  0.00000000000E+00 0.  1.
          6    1    1    2  501    0  0.10730667353E+03 -0.67636759686E+01 -0.12334660079E+04  0.12501711331E+04  0.17300000000E+03 0.  1.
         -6    1    1    2    0  502 -0.10730667353E+03  0.67636759686E+01 -0.35533834613E+03  0.40957881992E+03  0.17300000000E+03 0.  1.
</event>
<event>
 4    1  0.5758867E+000  0.1000000E+03  0.7546771E-02  0.1280296E+00
         21   -1    0    0  501  502  0.00000000000E+00  0.00000000000E+00  0.20112703688E+03  0.20112703688E+03  0.00000000000E+00 0. -1.
         21   -1    0    0  502  503 -0.00000000000E+00 -0.00000000000E+00 -0.26078946268E+03  0.26078946268E+03  0.00000000000E+00 0.  1.
          6    1    1    2  501    0  0.13450667908E+02  0.36223751304E+02  0.11641010549E+03  0.21206931246E+03  0.17300000000E+03 0. -1.
         -6    1    1    2    0  503 -0.13450667908E+02 -0.36223751304E+02 -0.17607253129E+03  0.24984718710E+03  0.17300000000E+03 0.  1.
</event>
<event>
 4    1  0.5758867E+000  0.1000000E+03  0.7546771E-02  0.1280296E+00
         21   -1    0    0  501  502  0.00000000000E+00  0.00000000000E+00  0.57366583589E+02  0.57366583589E+02  0.00000000000E+00 0. -1.
         21   -1    0    0  502  503 -0.00000000000E+00 -0.00000000000E+00 -0.86477070713E+03  0.86477070713E+03  0.00000000000E+00 0.  1.
          6    1    1    2  501    0 -0.13509032799E+03  0.37761832030E+02 -0.40813626221E+03  0.46495113851E+03  0.17300000000E+03 0. -1.
         -6    1    1    2    0  503  0.13509032799E+03 -0.37761832030E+02 -0.39926786134E+03  0.45718615221E+03  0.17300000000E+03 0.  1.
</event>
<event>
 4    1  0.5758867E+000  0.1000000E+03  0.7546771E-02  0.1280296E+00
         21   -1    0    0  501  502  0.00000000000E+00  0.00000000000E+00  0.78849855492E+03  0.78849855492E+03  0.00000000000E+00 0.  1.
         21   -1    0    0  502  503 -0.00000000000E+00 -0.00000000000E+00 -0.79351119322E+02  0.79351119322E+02  0.00000000000E+00 0. -1.
          6    1    1    2  501    0 -0.54467602641E+02  0.17168418712E+03  0.33022140837E+03  0.41402579436E+03  0.17300000000E+03 0.  1.
         -6    1    1    2    0  503  0.54467602641E+02 -0.17168418712E+03  0.37892602722E+03  0.45382387988E+03  0.17300000000E+03 0. -1.
</event>
<event>
 4    1  0.5758867E+000  0.1000000E+03  0.7546771E-02  0.1280296E+00
         21   -1    0    0  501  502  0.00000000000E+00  0.00000000000E+00  0.65886777512E+02  0.65886777512E+02  0.00000000000E+00 0.  1.
         21   -1    0    0  502  503 -0.00000000000E+00 -0.00000000000E+00 -0.96305960807E+03  0.96305960807E+03  0.00000000000E+00 0. -1.
          6    1    1    2  501    0  0.14218758308E+03 -0.12984090950E+02 -0.21448629311E+03  0.31035345226E+03  0.17300000000E+03 0.  1.
         -6    1    1    2    0  503 -0.14218758308E+03  0.12984090950E+02 -0.68268653745E+03  0.71859293332E+03  0.17300000000E+03 0. -1.
</event>
<event>
 4    1  0.5758867E+000  0.1000000E+03  0.7546771E-02  0.1280296E+00
         21   -1    0    0  503  502  0.00000000000E+00  0.00000000000E+00  0.43048736765E+03  0.43048736765E+03  0.00000000000E+00 0. -1.
         21   -1    0    0  501  503 -0.00000000000E+00 -0.00000000000E+00 -0.10319770544E+03  0.10319770544E+03  0.00000000000E+00 0.  1.
          6    1    1    2  501    0 -0.23568497331E+02 -0.96465752934E+01  0.14664175393E+02  0.17547811408E+03  0.17300000000E+03 0.  1.
         -6    1    1    2    0  502  0.23568497331E+02  0.96465752934E+01  0.31262548681E+03  0.35820695901E+03  0.17300000000E+03 0.  1.
</event>
<event>
 4    1  0.5758867E+000  0.1000000E+03  0.7546771E-02  0.1280296E+00
         21   -1    0    0  503  502  0.00000000000E+00  0.00000000000E+00  0.53986227729E+02  0.53986227729E+02  0.00000000000E+00 0. -1.
         21   -1    0    0  501  503 -0.00000000000E+00 -0.00000000000E+00 -0.13835588281E+04  0.13835588281E+04  0.00000000000E+00 0.  1.
          6    1    1    2  501    0  0.14355388819E+03  0.10964042550E+03 -0.95450588767E+03  0.98673159031E+03  0.17300000000E+03 0.  1.
         -6    1    1    2    0  502 -0.14355388819E+03 -0.10964042550E+03 -0.37506671271E+03  0.45081346553E+03  0.17300000000E+03 0.  1.
</event>
<event>
 4    1  0.5758867E+000  0.1000000E+03  0.7546771E-02  0.1280296E+00
         21   -1    0    0  501  502  0.00000000000E+00  0.00000000000E+00  0.47950670677E+03  0.47950670677E+03  0.00000000000E+00 0. -1.
         21   -1    0    0  502  503 -0.00000000000E+00 -0.00000000000E+00 -0.19511401788E+03  0.19511401788E+03  0.00000000000E+00 0.  1.
          6    1    1    2  501    0 -0.10834851289E+03 -0.20253682119E+02  0.39240758579E+03  0.44278925605E+03  0.17300000000E+03 0. -1.
         -6    1    1    2    0  503  0.10834851289E+03  0.20253682119E+02 -0.10801489690E+03  0.23183146861E+03  0.17300000000E+03 0. -1.
</event>
<event>
 4    1  0.5758867E+000  0.1000000E+03  0.7546771E-02  0.1280296E+00
         21   -1    0    0  501  502  0.00000000000E+00  0.00000000000E+00  0.11163055515E+03  0.11163055515E+03  0.00000000000E+00 0. -1.
         21   -1    0    0  502  503 -0.00000000000E+00 -0.00000000000E+00 -0.31039277573E+03  0.31039277573E+03  0.00000000000E+00 0. -1.
          6    1    1    2  501    0  0.58835251178E+02  0.30805411219E+02 -0.11933236417E+03  0.22040819695E+03  0.17300000000E+03 0. -1.
         -6    1    1    2    0  503 -0.58835251178E+02 -0.30805411219E+02 -0.79429856402E+02  0.20161513393E+03  0.17300000000E+03 0. -1.
</event>
<event>
 4    1  0.5758867E+000  0.1000000E+03  0.7546771E-02  0.1280296E+00
         21   -1    0    0  501  502  0.00000000000E+00  0.00000000000E+00  0.39702339223E+03  0.39702339223E+03  0.00000000000E+00 0. -1.
         21   -1    0    0  502  503 -0.00000000000E+00 -0.00000000000E+00 -0.19583724120E+03  0.19583724120E+03  0.00000000000E+00 0. -1.
          6    1    1    2  501    0 -0.65372542460E+02  0.14654270544E+03  0.25854090604E+03  0.35002961864E+03  0.17300000000E+03 0. -1.
         -6    1    1    2    0  503  0.65372542460E+02 -0.14654270544E+03 -0.57354755011E+02  0.24283101480E+03  0.17300000000E+03 0. -1.
</event>
<event>
 4    1  0.5758867E+000  0.1000000E+03  0.7546771E-02  0.1280296E+00
         21   -1    0    0  501  502  0.00000000000E+00  0.00000000000E+00  0.88401418111E+03  0.88401418111E+03  0.00000000000E+00 0. -1.
         21   -1    0    0  502  503 -0.00000000000E+00 -0.00000000000E+00 -0.74066595129E+02  0.74066595129E+02  0.00000000000E+00 0. -1.
          6    1    1    2  501    0  0.56057015712E+02  0.84287946046E+02  0.70275152408E+03  0.73077736108E+03  0.17300000000E+03 0. -1.
         -6    1    1    2    0  503 -0.56057015712E+02 -0.84287946046E+02  0.10719606190E+03  0.22730341517E+03  0.17300000000E+03 0. -1.
</event>
<event>
 4    1  0.5758867E+000  0.1000000E+03  0.7546771E-02  0.1280296E+00
         21   -1    0    0  503  502  0.00000000000E+00  0.00000000000E+00  0.34620512058E+03  0.34620512058E+03  0.00000000000E+00 0. -1.
         21   -1    0    0  501  503 -0.00000000000E+00 -0.00000000000E+00 -0.54166070005E+03  0.54166070005E+03  0.00000000000E+00 0. -1.
          6    1    1    2  501    0  0.14556587096E+03 -0.20090277782E+03 -0.41543357805E+03  0.51387294800E+03  0.17300000000E+03 0. -1.
         -6    1    1    2    0  502 -0.14556587096E+03  0.20090277782E+03  0.21997799857E+03  0.37399287263E+03  0.17300000000E+03 0. -1.
</event>
<event>
 4    1  0.5758867E+000  0.1000000E+03  0.7546771E-02  0.1280296E+00
         21   -1    0    0  501  502  0.00000000000E+00  0.00000000000E+00  0.21919937422E+03  0.21919937422E+03  0.00000000000E+00 0. -1.
         21   -1    0    0  502  503 -0.00000000000E+00 -0.00000000000E+00 -0.27115879950E+03  0.27115879950E+03  0.00000000000E+00 0.  1.
          6    1    1    2  501    0 -0.13710255469E+03  0.99979809257E+02  0.92557081542E+00  0.24232814414E+03  0.17300000000E+03 0.  1.
         -6    1    1    2    0  503  0.13710255469E+03 -0.99979809257E+02 -0.52884996101E+02  0.24803002958E+03  0.17300000000E+03 0. -1.
</event>
<event>
 4    1  0.5758867E+000  0.1000000E+03  0.7546771E-02  0.1280296E+00
         21   -1    0    0  503  502  0.00000000000E+00  0.00000000000E+00  0.42752250926E+03  0.42752250926E+03  0.00000000000E+00 0. -1.
         21   -1    0    0  501  503 -0.00000000000E+00 -0.00000000000E+00 -0.70476433485E+02  0.70476433485E+02  0.00000000000E+00 0.  1.
          6    1    1    2  501    0 -0.20445178918E+01  0.13986051247E+02  0.17678262831E+03  0.24775166468E+03  0.17300000000E+03 0.  1.
         -6    1    1    2    0  502  0.20445178918E+01 -0.13986051247E+02  0.18026344747E+03  0.25024727806E+03  0.17300000000E+03 0. -1.
</event>
<event>
 4    1  0.5758867E+000  0.1000000E+03  0.7546771E-02  0.1280296E+00
         21   -1    0    0  503  502  0.00000000000E+00  0.00000000000E+00  0.20200741735E+03  0.20200741735E+03  0.00000000000E+00 0. -1.
         21   -1    0    0  501  503 -0.00000000000E+00 -0.00000000000E+00 -0.23754757600E+03  0.23754757600E+03  0.00000000000E+00 0. -1.
          6    1    1    2  501    0 -0.74144080680E+02 -0.54922718443E+02  0.80241777364E+02  0.21185276145E+03  0.17300000000E+03 0. -1.
         -6    1    1    2    0  502  0.74144080680E+02  0.54922718443E+02 -0.11578193602E+03  0.22770223189E+03  0.17300000000E+03 0. -1.
</event>
<event>
 4    1  0.5758867E+000  0.1000000E+03  0.7546771E-02  0.1280296E+00
         21   -1    0    0  503  502  0.00000000000E+00  0.00000000000E+00  0.23583874280E+03  0.23583874280E+03  0.00000000000E+00 0. -1.
         21   -1    0    0  501  503 -0.00000000000E+00 -0.00000000000E+00 -0.13441393352E+03  0.13441393352E+03  0.00000000000E+00 0. -1.
          6    1    1    2  501    0 -0.42992501754E+01  0.40743704374E+02  0.60711544265E+02  0.18786544282E+03  0.17300000000E+03 0. -1.
         -6    1    1    2    0  502  0.42992501754E+01 -0.40743704374E+02  0.40713265015E+02  0.18238723351E+03  0.17300000000E+03 0. -1.
</event>
<event>
 4    1  0.5758867E+000  0.1000000E+03  0.7546771E-02  0.1280296E+00
         21   -1    0    0  503  502  0.00000000000E+00  0.00000000000E+00  0.56491749643E+03  0.56491749643E+03  0.00000000000E+00 0. -1.
         21   -1    0    0  501  503 -0.00000000000E+00 -0.00000000000E+00 -0.18476257491E+03  0.18476257491E+03  0.00000000000E+00 0. -1.
          6    1    1    2  501    0 -0.93829799056E+02  0.12887146420E+03 -0.66842785756E+02  0.24455846639E+03  0.17300000000E+03 0. -1.
         -6    1    1    2    0  502  0.93829799056E+02 -0.12887146420E+03  0.44699770728E+03  0.50512160495E+03  0.17300000000E+03 0. -1.
</event>
<event>
 4    1  0.5758867E+000  0.1000000E+03  0.7546771E-02  0.1280296E+00
         21   -1    0    0  503  502  0.00000000000E+00  0.00000000000E+00  0.75081863382E+03  0.75081863382E+03  0.00000000000E+00 0. -1.
         21   -1    0    0  501  503 -0.00000000000E+00 -0.00000000000E+00 -0.74186199198E+02  0.74186199198E+02  0.00000000000E+00 0. -1.
          6    1    1    2  501    0  0.63293681248E+02  0.97424418560E+02  0.14468005615E+03  0.25369061091E+03  0.17300000000E+03 0. -1.
         -6    1    1    2    0  502 -0.63293681248E+02 -0.97424418560E+02  0.53195237848E+03  0.57131422211E+03  0.17300000000E+03 0. -1.
</event>
<event>
 4    1  0.5758867E+000  0.1000000E+03  0.7546771E-02  0.1280296E+00
         21   -1    0    0  501  502  0.00000000000E+00  0.00000000000E+00  0.30218701731E+03  0.30218701731E+03  0.00000000000E+00 0. -1.
         21   -1    0    0  502  503 -0.00000000000E+00 -0.00000000000E+00 -0.11510002977E+04  0.11510002977E+04  0.00000000000E+00 0.  1.
          6    1    1    2  501    0 -0.56629723955E+02  0.35397788085E+03  0.11174085243E+03  0.41342748320E+03  0.17300000000E+03 0. -1.
         -6    1    1    2    0  503  0.56629723955E+02 -0.35397788085E+03 -0.96055413282E+03  0.10397598318E+04  0.17300000000E+03 0.  1.
</event>
<event>
 4    1  0.5758867E+000  0.1000000E+03  0.7546771E-02  0.1280296E+00
         21   -1    0    0  501  502  0.00000000000E+00  0.00000000000E+00  0.13713428463E+03  0.13713428463E+03  0.00000000000E+00 0. -1.
         21   -1    0    0  502  503 -0.00000000000E+00 -0.00000000000E+00 -0.41151759016E+03  0.41151759016E+03  0.00000000000E+00 0.  1.
          6    1    1    2  501    0  0.18966119847E+02  0.12436308259E+03 -0.17861469865E+02  0.21464836854E+03  0.17300000000E+03 0. -1.
         -6    1    1    2    0  503 -0.18966119847E+02 -0.12436308259E+03 -0.25652183566E+03  0.33400350625E+03  0.17300000000E+03 0.  1.
</event>
<event>
 4    1  0.5758867E+000  0.1000000E+03  0.7546771E-02  0.1280296E+00
         21   -1    0    0  503  502  0.00000000000E+00  0.00000000000E+00  0.10503775721E+04  0.10503775721E+04  0.00000000000E+00 0.  1.
         21   -1    0    0  501  503 -0.00000000000E+00 -0.00000000000E+00 -0.47334450172E+02  0.47334450172E+02  0.00000000000E+00 0.  1.
          6    1    1    2  501    0  0.13496937723E+03 -0.33321381517E+02  0.55448624706E+03  0.59725291580E+03  0.17300000000E+03 0.  1.
         -6    1    1    2    0  502 -0.13496937723E+03  0.33321381517E+02  0.44855687487E+03  0.50045910647E+03  0.17300000000E+03 0.  1.
</event>
<event>
 4    1  0.5758867E+000  0.1000000E+03  0.7546771E-02  0.1280296E+00
         21   -1    0    0  503  502  0.00000000000E+00  0.00000000000E+00  0.85997243547E+02  0.85997243547E+02  0.00000000000E+00 0.  1.
         21   -1    0    0  501  503 -0.00000000000E+00 -0.00000000000E+00 -0.72467682861E+03  0.72467682861E+03  0.00000000000E+00 0.  1.
          6    1    1    2  501    0 -0.81603718390E+02 -0.56607508097E+02 -0.56304208503E+03  0.59733488626E+03  0.17300000000E+03 0.  1.
         -6    1    1    2    0  502  0.81603718390E+02  0.56607508097E+02 -0.75637500034E+02  0.21333918590E+03  0.17300000000E+03 0.  1.
</event>
<event>
 4    1  0.5758867E+000  0.1000000E+03  0.7546771E-02  0.1280296E+00
         21   -1    0    0  503  502  0.00000000000E+00  0.00000000000E+00  0.17881910507E+04  0.17881910507E+04  0.00000000000E+00 0.  1.
         21   -1    0    0  501  503 -0.00000000000E+00 -0.00000000000E+00 -0.68496509325E+02  0.68496509325E+02  0.00000000000E+00 0.  1.
          6    1    1    2  501    0  0.13328354267E+03  0.67321731200E+01  0.13464076717E+03  0.25664559432E+03  0.17300000000E+03 0.  1.
         -6    1    1    2    0  502 -0.13328354267E+03 -0.67321731200E+01  0.15850537742E+04  0.16000419657E+04  0.17300000000E+03 0.  1.
</event>
<event>
 4    1  0.5758867E+000  0.1000000E+03  0.7546771E-02  0.1280296E+00
         21   -1    0    0  503  502  0.00000000000E+00  0.00000000000E+00  0.34586526252E+03  0.34586526252E+03  0.00000000000E+00 0. -1.
         21   -1    0    0  501  503 -0.00000000000E+00 -0.00000000000E+00 -0.18218036259E+03  0.18218036259E+03  0.00000000000E+00 0. -1.
          6    1    1    2  501    0 -0.12867240371E+03 -0.12151245056E+03  0.37729144318E+02  0.25034846005E+03  0.17300000000E+03 0. -1.
         -6    1    1    2    0  502  0.12867240371E+03  0.12151245056E+03  0.12595575561E+03  0.27769716507E+03  0.17300000000E+03 0. -1.
</event>
<event>
 4    1  0.5758867E+000  0.1000000E+03  0.7546771E-02  0.1280296E+00
         21   -1    0    0  503  502  0.00000000000E+00  0.00000000000E+00  0.21999717645E+03  0.21999717645E+03  0.00000000000E+00 0. -1.
         21   -1    0    0  501  503 -0.00000000000E+00 -0.00000000000E+00 -0.19810059644E+03  0.19810059644E+03  0.00000000000E+00 0. -1.
          6    1    1    2  501    0  0.85921215517E+02  0.79136075820E+02  0.13708542712E+02  0.20919344616E+03  0.17300000000E+03 0. -1.
         -6    1    1    2    0  502 -0.85921215517E+02 -0.79136075820E+02  0.81880372908E+01  0.20890432673E+03  0.17300000000E+03 0. -1.
</event>
<event>
 4    1  0.5758867E+000  0.1000000E+03  0.7546771E-02  0.1280296E+00
         21   -1    0    0  503  502  0.00000000000E+00  0.00000000000E+00  0.23025750326E+04  0.23025750326E+04  0.00000000000E+00 0. -1.
         21   -1    0    0  501  503 -0.00000000000E+00 -0.00000000000E+00 -0.32265409993E+02  0.32265409993E+02  0.00000000000E+00 0. -1.
          6    1    1    2  501    0  0.18452237914E+03 -0.79915703500E+02  0.86666962081E+03  0.90635548197E+03  0.17300000000E+03 0. -1.
         -6    1    1    2    0  502 -0.18452237914E+03  0.79915703500E+02  0.14036400018E+04  0.14284849606E+04  0.17300000000E+03 0. -1.
</event>
<event>
 4    1  0.5758867E+000  0.1000000E+03  0.7546771E-02  0.1280296E+00
         21   -1    0    0  501  502  0.00000000000E+00  0.00000000000E+00  0.65626261350E+03  0.65626261350E+03  0.00000000000E+00 0.  1.
         21   -1    0    0  502  503 -0.00000000000E+00 -0.00000000000E+00 -0.16480031991E+03  0.16480031991E+03  0.00000000000E+00 0.  1.
          6    1    1    2  501    0  0.20758996796E+03  0.30521562852E+02  0.14881209539E+02  0.27235199833E+03  0.17300000000E+03 0.  1.
         -6    1    1    2    0  503 -0.20758996796E+03 -0.30521562852E+02  0.47658108405E+03  0.54871093508E+03  0.17300000000E+03 0.  1.
</event>
<event>
 4    1  0.5758867E+000  0.1000000E+03  0.7546771E-02  0.1280296E+00
         21   -1    0    0  501  502  0.00000000000E+00  0.00000000000E+00  0.37931354868E+03  0.37931354868E+03  0.00000000000E+00 0.  1.
         21   -1    0    0  502  503 -0.00000000000E+00 -0.00000000000E+00 -0.14574088096E+03  0.14574088096E+03  0.00000000000E+00 0.  1.
          6    1    1    2  501    0  0.51505340051E+02  0.13040747339E+03  0.20103775435E+03  0.30000681300E+03  0.17300000000E+03 0.  1.
         -6    1    1    2    0  503 -0.51505340051E+02 -0.13040747339E+03  0.32534913375E+02  0.22504761664E+03  0.17300000000E+03 0.  1.
</event>
<event>
 4    1  0.5758867E+000  0.1000000E+03  0.7546771E-02  0.1280296E+00
         21   -1    0    0  501  502  0.00000000000E+00  0.00000000000E+00  0.73468928551E+03  0.73468928551E+03  0.00000000000E+00 0.  1.
         21   -1    0    0  502  503 -0.00000000000E+00 -0.00000000000E+00 -0.49689930628E+02  0.49689930628E+02  0.00000000000E+00 0.  1.
          6    1    1    2  501    0 -0.58094869384E+01  0.63938509213E+02  0.44421923346E+03  0.48102142413E+03  0.17300000000E+03 0.  1.
         -6    1    1    2    0  503  0.58094869384E+01 -0.63938509213E+02  0.24078012142E+03  0.30335779201E+03  0.17300000000E+03 0.  1.
</event>
<event>
 4    1  0.5758867E+000  0.1000000E+03  0.7546771E-02  0.1280296E+00
         21   -1    0    0  501  502  0.00000000000E+00  0.00000000000E+00  0.13167249743E+03  0.13167249743E+03  0.00000000000E+00 0.  1.
         21   -1    0    0  502  503 -0.00000000000E+00 -0.00000000000E+00 -0.85135337127E+03  0.85135337127E+03  0.00000000000E+00 0.  1.
          6    1    1    2  501    0 -0.10518682688E+03 -0.13587414303E+03 -0.23010941786E+02  0.24491744473E+03  0.17300000000E+03 0.  1.
         -6    1    1    2    0  503  0.10518682688E+03  0.13587414303E+03 -0.69666993206E+03  0.73810842397E+03  0.17300000000E+03 0.  1.
</event>
<event>
 4    1  0.5758867E+000  0.1000000E+03  0.7546771E-02  0.1280296E+00
         21   -1    0    0  503  502  0.00000000000E+00  0.00000000000E+00  0.48296218408E+03  0.48296218408E+03  0.00000000000E+00 0. -1.
         21   -1    0    0  501  503 -0.00000000000E+00 -0.00000000000E+00 -0.99486786050E+02  0.99486786050E+02  0.00000000000E+00 0. -1.
          6    1    1    2  501    0 -0.97956828764E+02 -0.19308859198E+02  0.71789531008E+02  0.21225246549E+03  0.17300000000E+03 0. -1.
         -6    1    1    2    0  502  0.97956828764E+02  0.19308859198E+02  0.31168586702E+03  0.37019650464E+03  0.17300000000E+03 0. -1.
</event>
<event>
 4    1  0.5758867E+000  0.1000000E+03  0.7546771E-02  0.1280296E+00
         21   -1    0    0  503  502  0.00000000000E+00  0.00000000000E+00  0.35408105048E+03  0.35408105048E+03  0.00000000000E+00 0. -1.
         21   -1    0    0  501  503 -0.00000000000E+00 -0.00000000000E+00 -0.50312263246E+03  0.50312263246E+03  0.00000000000E+00 0. -1.
          6    1    1    2  501    0  0.23716790703E+03 -0.17525438783E+03 -0.32584519959E+03  0.47229949256E+03  0.17300000000E+03 0. -1.
         -6    1    1    2    0  502 -0.23716790703E+03  0.17525438783E+03  0.17680361761E+03  0.38490419039E+03  0.17300000000E+03 0. -1.
</event>
<event>
 4    1  0.5758867E+000  0.1000000E+03  0.7546771E-02  0.1280296E+00
         21   -1    0    0  503  502  0.00000000000E+00  0.00000000000E+00  0.10534713694E+03  0.10534713694E+03  0.00000000000E+00 0. -1.
         21   -1    0    0  501  503 -0.00000000000E+00 -0.00000000000E+00 -0.87815218932E+03  0.87815218932E+03  0.00000000000E+00 0. -1.
          6    1    1    2  501    0  0.98826803619E+02 -0.12495922013E+03 -0.69823467277E+03  0.73677825841E+03  0.17300000000E+03 0.  1.
         -6    1    1    2    0  502 -0.98826803619E+02  0.12495922013E+03 -0.74570379605E+02  0.24672106785E+03  0.17300000000E+03 0.  1.
</event>
<event>
 4    1  0.5758867E+000  0.1000000E+03  0.7546771E-02  0.1280296E+00
         21   -1    0    0  503  502  0.00000000000E+00  0.00000000000E+00  0.56604785671E+03  0.56604785671E+03  0.00000000000E+00 0. -1.
         21   -1    0    0  501  503 -0.00000000000E+00 -0.00000000000E+00 -0.11142438965E+03  0.11142438965E+03  0.00000000000E+00 0. -1.
          6    1    1    2  501    0 -0.43949687828E+02 -0.11768189784E+03  0.49588649382E+02  0.21947354804E+03  0.17300000000E+03 0.  1.
         -6    1    1    2    0  502  0.43949687828E+02  0.11768189784E+03  0.40503481767E+03  0.45799869833E+03  0.17300000000E+03 0.  1.
</event>
<event>
 4    1  0.5758867E+000  0.1000000E+03  0.7546771E-02  0.1280296E+00
         21   -1    0    0  501  502  0.00000000000E+00  0.00000000000E+00  0.25372361625E+02  0.25372361625E+02  0.00000000000E+00 0.  1.
         21   -1    0    0  502  503 -0.00000000000E+00 -0.00000000000E+00 -0.24206581405E+04  0.24206581405E+04  0.00000000000E+00 0.  1.
          6    1    1    2  501    0 -0.95260051225E+02 -0.15424456139E+02 -0.46273917928E+03  0.50335766533E+03  0.17300000000E+03 0.  1.
         -6    1    1    2    0  503  0.95260051225E+02  0.15424456139E+02 -0.19325465996E+04  0.19426728367E+04  0.17300000000E+03 0.  1.
</event>
<event>
 4    1  0.5758867E+000  0.1000000E+03  0.7546771E-02  0.1280296E+00
         21   -1    0    0  501  502  0.00000000000E+00  0.00000000000E+00  0.73689759662E+03  0.73689759662E+03  0.00000000000E+00 0.  1.
         21   -1    0    0  502  503 -0.00000000000E+00 -0.00000000000E+00 -0.10681815683E+03  0.10681815683E+03  0.00000000000E+00 0.  1.
          6    1    1    2  501    0  0.11488207245E+03 -0.17532410022E+03  0.41974022679E+03  0.50004728644E+03  0.17300000000E+03 0.  1.
         -6    1    1    2    0  503 -0.11488207245E+03  0.17532410022E+03  0.21033921300E+03  0.34366846701E+03  0.17300000000E+03 0.  1.
</event>
<event>
 4    1  0.5758867E+000  0.1000000E+03  0.7546771E-02  0.1280296E+00
         21   -1    0    0  503  502  0.00000000000E+00  0.00000000000E+00  0.23221501422E+03  0.23221501422E+03  0.00000000000E+00 0.  1.
         21   -1    0    0  501  503 -0.00000000000E+00 -0.00000000000E+00 -0.22345346745E+03  0.22345346745E+03  0.00000000000E+00 0.  1.
          6    1    1    2  501    0 -0.13977288198E+03 -0.49082679899E+02  0.82132071983E+01  0.22790793048E+03  0.17300000000E+03 0.  1.
         -6    1    1    2    0  502  0.13977288198E+03  0.49082679899E+02  0.54833956778E+00  0.22776055119E+03  0.17300000000E+03 0.  1.
</event>
<event>
 4    1  0.5758867E+000  0.1000000E+03  0.7546771E-02  0.1280296E+00
         21   -1    0    0  503  502  0.00000000000E+00  0.00000000000E+00  0.16164432673E+03  0.16164432673E+03  0.00000000000E+00 0.  1.
         21   -1    0    0  501  503 -0.00000000000E+00 -0.00000000000E+00 -0.76556058152E+03  0.76556058152E+03  0.00000000000E+00 0. -1.
          6    1    1    2  501    0 -0.50307945117E+02  0.15002492190E+03 -0.64758734921E+03  0.68872109114E+03  0.17300000000E+03 0. -1.
         -6    1    1    2    0  502  0.50307945117E+02 -0.15002492190E+03  0.43671094423E+02  0.23848381711E+03  0.17300000000E+03 0. -1.
</event>
<event>
 4    1  0.5758867E+000  0.1000000E+03  0.7546771E-02  0.1280296E+00
         21   -1    0    0  503  502  0.00000000000E+00  0.00000000000E+00  0.29830133550E+03  0.29830133550E+03  0.00000000000E+00 0.  1.
         21   -1    0    0  501  503 -0.00000000000E+00 -0.00000000000E+00 -0.34740670100E+03  0.34740670100E+03  0.00000000000E+00 0. -1.
          6    1    1    2  501    0  0.95410367218E+02 -0.25352390526E+03 -0.42643201938E+02  0.32422978176E+03  0.17300000000E+03 0. -1.
         -6    1    1    2    0  502 -0.95410367218E+02  0.25352390526E+03 -0.64621635640E+01  0.32147825474E+03  0.17300000000E+03 0. -1.
</event>
<event>
 4    1  0.5758867E+000  0.1000000E+03  0.7546771E-02  0.1280296E+00
         21   -1    0    0  503  502  0.00000000000E+00  0.00000000000E+00  0.17167916764E+03  0.17167916764E+03  0.00000000000E+00 0.  1.
         21   -1    0    0  501  503 -0.00000000000E+00 -0.00000000000E+00 -0.30107598508E+03  0.30107598508E+03  0.00000000000E+00 0. -1.
          6    1    1    2  501    0 -0.10918742359E+03 -0.13516703943E+02 -0.16685887175E+03  0.26433970159E+03  0.17300000000E+03 0. -1.
         -6    1    1    2    0  502  0.10918742359E+03  0.13516703943E+02  0.37462054310E+02  0.20841545113E+03  0.17300000000E+03 0. -1.
</event>
<event>
 4    1  0.5758867E+000  0.1000000E+03  0.7546771E-02  0.1280296E+00
         21   -1    0    0  503  502  0.00000000000E+00  0.00000000000E+00  0.99833853453E+02  0.99833853453E+02  0.00000000000E+00 0.  1.
         21   -1    0    0  501  503 -0.00000000000E+00 -0.00000000000E+00 -0.36041039123E+03  0.36041039123E+03  0.00000000000E+00 0. -1.
          6    1    1    2  501    0 -0.58146679226E+02  0.50473538135E+02 -0.11680387834E+03  0.22248766337E+03  0.17300000000E+03 0. -1.
         -6    1    1    2    0  502  0.58146679226E+02 -0.50473538135E+02 -0.14377265944E+03  0.23775658132E+03  0.17300000000E+03 0. -1.
</event>
<event>
 4    1  0.5758867E+000  0.1000000E+03  0.7546771E-02  0.1280296E+00
         21   -1    0    0  503  502  0.00000000000E+00  0.00000000000E+00  0.16982823767E+03  0.16982823767E+03  0.00000000000E+00 0.  1.
         21   -1    0    0  501  503 -0.00000000000E+00 -0.00000000000E+00 -0.22748060473E+03  0.22748060473E+03  0.00000000000E+00 0. -1.
          6    1    1    2  501    0  0.61637071709E+02  0.35351056092E+02 -0.89927865850E+02  0.20752071422E+03  0.17300000000E+03 0. -1.
         -6    1    1    2    0  502 -0.61637071709E+02 -0.35351056092E+02  0.32275498783E+02  0.18978812818E+03  0.17300000000E+03 0. -1.
</event>
<event>
 4    1  0.5758867E+000  0.1000000E+03  0.7546771E-02  0.1280296E+00
         21   -1    0    0  501  502  0.00000000000E+00  0.00000000000E+00  0.13993519818E+03  0.13993519818E+03  0.00000000000E+00 0.  1.
         21   -1    0    0  502  503 -0.00000000000E+00 -0.00000000000E+00 -0.60923300724E+03  0.60923300724E+03  0.00000000000E+00 0.  1.
          6    1    1    2  501    0 -0.16108955973E+03 -0.16849491839E+03 -0.19441073207E+03  0.34937789930E+03  0.17300000000E+03 0. -1.
         -6    1    1    2    0  503  0.16108955973E+03  0.16849491839E+03 -0.27488707699E+03  0.39979030613E+03  0.17300000000E+03 0. -1.
</event>
<event>
 4    1  0.5758867E+000  0.1000000E+03  0.7546771E-02  0.1280296E+00
         21   -1    0    0  501  502  0.00000000000E+00  0.00000000000E+00  0.29813991062E+02  0.29813991062E+02  0.00000000000E+00 0.  1.
         21   -1    0    0  502  503 -0.00000000000E+00 -0.00000000000E+00 -0.11622447361E+04  0.11622447361E+04  0.00000000000E+00 0.  1.
          6    1    1    2  501    0  0.79089306433E+01 -0.43071997962E+02 -0.39665309323E+03  0.43494876084E+03  0.17300000000E+03 0. -1.
         -6    1    1    2    0  503 -0.79089306433E+01  0.43071997962E+02 -0.73577765176E+03  0.75710996627E+03  0.17300000000E+03 0. -1.
</event>
<event>
 4    1  0.5758867E+000  0.1000000E+03  0.7546771E-02  0.1280296E+00
         21   -1    0    0  503  502  0.00000000000E+00  0.00000000000E+00  0.38705508018E+03  0.38705508018E+03  0.00000000000E+00 0. -1.
         21   -1    0    0  501  503 -0.00000000000E+00 -0.00000000000E+00 -0.95629802665E+02  0.95629802665E+02  0.00000000000E+00 0.  1.
          6    1    1    2  501    0  0.24079396211E+02 -0.80654240642E+02  0.14536435950E+03  0.24113216473E+03  0.17300000000E+03 0.  1.
         -6    1    1    2    0  502 -0.24079396211E+02  0.80654240642E+02  0.14606091801E+03  0.24155271811E+03  0.17300000000E+03 0. -1.
</event>
<event>
 4    1  0.5758867E+000  0.1000000E+03  0.7546771E-02  0.1280296E+00
         21   -1    0    0  501  502  0.00000000000E+00  0.00000000000E+00  0.15872406490E+04  0.15872406490E+04  0.00000000000E+00 0. -1.
         21   -1    0    0  502  503 -0.00000000000E+00 -0.00000000000E+00 -0.53834093105E+02  0.53834093105E+02  0.00000000000E+00 0.  1.
          6    1    1    2  501    0 -0.20992462577E+03  0.34313877173E+02  0.10512110777E+04  0.10863790869E+04  0.17300000000E+03 0. -1.
         -6    1    1    2    0  503  0.20992462577E+03 -0.34313877173E+02  0.48219547827E+03  0.55469565524E+03  0.17300000000E+03 0. -1.
</event>
<event>
 4    1  0.5758867E+000  0.1000000E+03  0.7546771E-02  0.1280296E+00
         21   -1    0    0  501  502  0.00000000000E+00  0.00000000000E+00  0.92022321026E+03  0.92022321026E+03  0.00000000000E+00 0. -1.
         21   -1    0    0  502  503 -0.00000000000E+00 -0.00000000000E+00 -0.91466907023E+03  0.91466907023E+03  0.00000000000E+00 0.  1.
          6    1    1    2  501    0  0.26491569363E+02  0.69836545113E+02  0.90066300299E+03  0.92016400236E+03  0.17300000000E+03 0. -1.
         -6    1    1    2    0  503 -0.26491569363E+02 -0.69836545113E+02 -0.89510886295E+03  0.91472827813E+03  0.17300000000E+03 0. -1.
</event>
<event>
 4    1  0.5758867E+000  0.1000000E+03  0.7546771E-02  0.1280296E+00
         21   -1    0    0  501  502  0.00000000000E+00  0.00000000000E+00  0.24220950290E+04  0.24220950290E+04  0.00000000000E+00 0. -1.
         21   -1    0    0  502  503 -0.00000000000E+00 -0.00000000000E+00 -0.16556446163E+03  0.16556446163E+03  0.00000000000E+00 0.  1.
          6    1    1    2  501    0 -0.23819451809E+03 -0.23464213511E+03  0.21686431790E+04  0.22010760545E+04  0.17300000000E+03 0. -1.
         -6    1    1    2    0  503  0.23819451809E+03  0.23464213511E+03  0.87887388342E+02  0.38658343608E+03  0.17300000000E+03 0. -1.
</event>
<event>
 4    1  0.5758867E+000  0.1000000E+03  0.7546771E-02  0.1280296E+00
         21   -1    0    0  503  502  0.00000000000E+00  0.00000000000E+00  0.12326001290E+03  0.12326001290E+03  0.00000000000E+00 0. -1.
         21   -1    0    0  501  503 -0.00000000000E+00 -0.00000000000E+00 -0.75952442241E+03  0.75952442241E+03  0.00000000000E+00 0.  1.
          6    1    1    2  501    0  0.57439594259E+01 -0.25030019204E+03 -0.36390597123E+03  0.47438353165E+03  0.17300000000E+03 0.  1.
         -6    1    1    2    0  502 -0.57439594259E+01  0.25030019204E+03 -0.27235843829E+03  0.40840090366E+03  0.17300000000E+03 0. -1.
</event>
<event>
 4    1  0.5758867E+000  0.1000000E+03  0.7546771E-02  0.1280296E+00
         21   -1    0    0  503  502  0.00000000000E+00  0.00000000000E+00  0.28502145155E+02  0.28502145155E+02  0.00000000000E+00 0. -1.
         21   -1    0    0  501  503 -0.00000000000E+00 -0.00000000000E+00 -0.12734460566E+04  0.12734460566E+04  0.00000000000E+00 0.  1.
          6    1    1    2  501    0  0.64381363815E+02  0.27357553931E+02 -0.75363663168E+03  0.77639588380E+03  0.17300000000E+03 0.  1.
         -6    1    1    2    0  502 -0.64381363815E+02 -0.27357553931E+02 -0.49130727978E+03  0.52555231798E+03  0.17300000000E+03 0. -1.
</event>
<event>
 4    1  0.5758867E+000  0.1000000E+03  0.7546771E-02  0.1280296E+00
         21   -1    0    0  503  502  0.00000000000E+00  0.00000000000E+00  0.11399145454E+04  0.11399145454E+04  0.00000000000E+00 0. -1.
         21   -1    0    0  501  503 -0.00000000000E+00 -0.00000000000E+00 -0.51268278983E+02  0.51268278983E+02  0.00000000000E+00 0.  1.
          6    1    1    2  501    0  0.70115529563E+02  0.11977520672E+03  0.30736983908E+03  0.37903496621E+03  0.17300000000E+03 0.  1.
         -6    1    1    2    0  502 -0.70115529563E+02 -0.11977520672E+03  0.78127642734E+03  0.81214785818E+03  0.17300000000E+03 0. -1.
</event>
<event>
 4    1  0.5758867E+000  0.1000000E+03  0.7546771E-02  0.1280296E+00
         21   -1    0    0  501  502  0.00000000000E+00  0.00000000000E+00  0.60027994867E+02  0.60027994867E+02  0.00000000000E+00 0.  1.
         21   -1    0    0  502  503 -0.00000000000E+00 -0.00000000000E+00 -0.85438297064E+03  0.85438297064E+03  0.00000000000E+00 0.  1.
          6    1    1    2  501    0 -0.34911852102E+02  0.34513018934E+02 -0.11927727205E+03  0.21579169011E+03  0.17300000000E+03 0.  1.
         -6    1    1    2    0  503  0.34911852102E+02 -0.34513018934E+02 -0.67507770372E+03  0.69861927539E+03  0.17300000000E+03 0.  1.
</event>
<event>
 4    1  0.5758867E+000  0.1000000E+03  0.7546771E-02  0.1280296E+00
         21   -1    0    0  501  502  0.00000000000E+00  0.00000000000E+00  0.14299617943E+03  0.14299617943E+03  0.00000000000E+00 0.  1.
         21   -1    0    0  502  503 -0.00000000000E+00 -0.00000000000E+00 -0.27071413620E+03  0.27071413620E+03  0.00000000000E+00 0.  1.
          6    1    1    2  501    0 -0.78228606225E+01  0.55535233801E+02  0.15074674876E+02  0.18248727398E+03  0.17300000000E+03 0.  1.
         -6    1    1    2    0  503  0.78228606225E+01 -0.55535233801E+02 -0.14279263165E+03  0.23122304166E+03  0.17300000000E+03 0.  1.
</event>
<event>
 4    1  0.5758867E+000  0.1000000E+03  0.7546771E-02  0.1280296E+00
         21   -1    0    0  501  502  0.00000000000E+00  0.00000000000E+00  0.97440276416E+03  0.97440276416E+03  0.00000000000E+00 0.  1.
         21   -1    0    0  502  503 -0.00000000000E+00 -0.00000000000E+00 -0.36457881611E+02  0.36457881611E+02  0.00000000000E+00 0.  1.
          6    1    1    2  501    0 -0.66685872089E+02 -0.26968010443E+02  0.52401949174E+03  0.55650669973E+03  0.17300000000E+03 0.  1.
         -6    1    1    2    0  503  0.66685872089E+02  0.26968010443E+02  0.41392539080E+03  0.45435394603E+03  0.17300000000E+03 0.  1.
</event>
<event>
 4    1  0.5758867E+000  0.1000000E+03  0.7546771E-02  0.1280296E+00
         21   -1    0    0  501  502  0.00000000000E+00  0.00000000000E+00  0.13623387825E+03  0.13623387825E+03  0.00000000000E+00 0. -1.
         21   -1    0    0  502  503 -0.00000000000E+00 -0.00000000000E+00 -0.32038706371E+03  0.32038706371E+03  0.00000000000E+00 0. -1.
          6    1    1    2  501    0 -0.11495553709E+03 -0.15594098353E+02 -0.74434490394E+02  0.22119548994E+03  0.17300000000E+03 0.  1.
         -6    1    1    2    0  503  0.11495553709E+03  0.15594098353E+02 -0.10971869507E+03  0.23542545202E+03  0.17300000000E+03 0.  1.
</event>
<event>
 4    1  0.5758867E+000  0.1000000E+03  0.7546771E-02  0.1280296E+00
         21   -1    0    0  501  502  0.00000000000E+00  0.00000000000E+00  0.31552192603E+03  0.31552192603E+03  0.00000000000E+00 0. -1.
         21   -1    0    0  502  503 -0.00000000000E+00 -0.00000000000E+00 -0.14877723525E+03  0.14877723525E+03  0.00000000000E+00 0. -1.
          6    1    1    2  501    0  0.12176413719E+03 -0.36795173300E+02  0.52445841115E+02  0.22104288302E+03  0.17300000000E+03 0.  1.
         -6    1    1    2    0  503 -0.12176413719E+03  0.36795173300E+02  0.11429884966E+03  0.24325627827E+03  0.17300000000E+03 0.  1.
</event>
<event>
 4    1  0.5758867E+000  0.1000000E+03  0.7546771E-02  0.1280296E+00
         21   -1    0    0  503  502  0.00000000000E+00  0.00000000000E+00  0.17778453946E+04  0.17778453946E+04  0.00000000000E+00 0.  1.
         21   -1    0    0  501  503 -0.00000000000E+00 -0.00000000000E+00 -0.33672655744E+02  0.33672655744E+02  0.00000000000E+00 0. -1.
          6    1    1    2  501    0  0.12458559045E+03  0.41267578771E+02  0.45471740193E+03  0.50390623932E+03  0.17300000000E+03 0.  1.
         -6    1    1    2    0  502 -0.12458559045E+03 -0.41267578771E+02  0.12894553369E+04  0.13076118110E+04  0.17300000000E+03 0. -1.
</event>
<event>
 4    1  0.5758867E+000  0.1000000E+03  0.7546771E-02  0.1280296E+00
         21   -1    0    0  503  502  0.00000000000E+00  0.00000000000E+00  0.52771897619E+03  0.52771897619E+03  0.00000000000E+00 0.  1.
         21   -1    0    0  501  503 -0.00000000000E+00 -0.00000000000E+00 -0.58895928337E+02  0.58895928337E+02  0.00000000000E+00 0. -1.
          6    1    1    2  501    0 -0.20635950113E+02 -0.20711375692E+02  0.26306877799E+03  0.31621035004E+03  0.17300000000E+03 0. -1.
         -6    1    1    2    0  502  0.20635950113E+02  0.20711375692E+02  0.20575426987E+03  0.27040455449E+03  0.17300000000E+03 0.  1.
</event>
<event>
 4    1  0.5758867E+000  0.1000000E+03  0.7546771E-02  0.1280296E+00
         21   -1    0    0  503  502  0.00000000000E+00  0.00000000000E+00  0.11657106190E+04  0.11657106190E+04  0.00000000000E+00 0.  1.
         21   -1    0    0  501  503 -0.00000000000E+00 -0.00000000000E+00 -0.62993440891E+02  0.62993440891E+02  0.00000000000E+00 0. -1.
          6    1    1    2  501    0  0.41233384702E+02  0.19523728420E+03  0.41372872785E+03  0.49083423822E+03  0.17300000000E+03 0. -1.
         -6    1    1    2    0  502 -0.41233384702E+02 -0.19523728420E+03  0.68898845028E+03  0.73786982170E+03  0.17300000000E+03 0.  1.
</event>
<event>
 4    1  0.5758867E+000  0.1000000E+03  0.7546771E-02  0.1280296E+00
         21   -1    0    0  503  502  0.00000000000E+00  0.00000000000E+00  0.17105128101E+03  0.17105128101E+03  0.00000000000E+00 0. -1.
         21   -1    0    0  501  503 -0.00000000000E+00 -0.00000000000E+00 -0.76300588851E+03  0.76300588851E+03  0.00000000000E+00 0.  1.
          6    1    1    2  501    0 -0.30605389915E+03 -0.81668397447E+01 -0.40295972917E+03  0.53482822456E+03  0.17300000000E+03 0.  1.
         -6    1    1    2    0  502  0.30605389915E+03  0.81668397447E+01 -0.18899487833E+03  0.39922894496E+03  0.17300000000E+03 0. -1.
</event>
<event>
 4    1  0.5758867E+000  0.1000000E+03  0.7546771E-02  0.1280296E+00
         21   -1    0    0  503  502  0.00000000000E+00  0.00000000000E+00  0.24914659849E+03  0.24914659849E+03  0.00000000000E+00 0. -1.
         21   -1    0    0  501  503 -0.00000000000E+00 -0.00000000000E+00 -0.18624429331E+03  0.18624429331E+03  0.00000000000E+00 0.  1.
          6    1    1    2  501    0  0.18053828851E+02 -0.88067538886E+02 -0.61124120129E+02  0.20432080218E+03  0.17300000000E+03 0.  1.
         -6    1    1    2    0  502 -0.18053828851E+02  0.88067538886E+02  0.12402642530E+03  0.23107008962E+03  0.17300000000E+03 0. -1.
</event>
<event>
 4    1  0.5758867E+000  0.1000000E+03  0.7546771E-02  0.1280296E+00
         21   -1    0    0  501  502  0.00000000000E+00  0.00000000000E+00  0.67006183430E+03  0.67006183430E+03  0.00000000000E+00 0. -1.
         21   -1    0    0  502  503 -0.00000000000E+00 -0.00000000000E+00 -0.14193178294E+04  0.14193178294E+04  0.00000000000E+00 0. -1.
          6    1    1    2  501    0  0.12598888049E+02 -0.74793282477E+01  0.65337238687E+03  0.67604670568E+03  0.17300000000E+03 0. -1.
         -6    1    1    2    0  503 -0.12598888049E+02  0.74793282477E+01 -0.14026283819E+04  0.14133329580E+04  0.17300000000E+03 0. -1.
</event>
<event>
 4    1  0.5758867E+000  0.1000000E+03  0.7546771E-02  0.1280296E+00
         21   -1    0    0  501  502  0.00000000000E+00  0.00000000000E+00  0.14033999777E+03  0.14033999777E+03  0.00000000000E+00 0. -1.
         21   -1    0    0  502  503 -0.00000000000E+00 -0.00000000000E+00 -0.92392800519E+03  0.92392800519E+03  0.00000000000E+00 0. -1.
          6    1    1    2  501    0  0.26936057406E+03  0.13249274193E+03 -0.53677975121E+03  0.63888257672E+03  0.17300000000E+03 0. -1.
         -6    1    1    2    0  503 -0.26936057406E+03 -0.13249274193E+03 -0.24680825620E+03  0.42538542623E+03  0.17300000000E+03 0. -1.
</event>
<event>
 4    1  0.5758867E+000  0.1000000E+03  0.7546771E-02  0.1280296E+00
         21   -1    0    0  501  502  0.00000000000E+00  0.00000000000E+00  0.14586526374E+03  0.14586526374E+03  0.00000000000E+00 0. -1.
         21   -1    0    0  502  503 -0.00000000000E+00 -0.00000000000E+00 -0.25888650449E+03  0.25888650449E+03  0.00000000000E+00 0.  1.
          6    1    1    2  501    0 -0.54308762571E+02 -0.59479229851E+02 -0.18298290685E+02  0.19170562829E+03  0.17300000000E+03 0. -1.
         -6    1    1    2    0  503  0.54308762571E+02  0.59479229851E+02 -0.94722950065E+02  0.21304613994E+03  0.17300000000E+03 0.  1.
</event>
<event>
 4    1  0.5758867E+000  0.1000000E+03  0.7546771E-02  0.1280296E+00
         21   -1    0    0  501  502  0.00000000000E+00  0.00000000000E+00  0.10953553495E+04  0.10953553495E+04  0.00000000000E+00 0. -1.
         21   -1    0    0  502  503 -0.00000000000E+00 -0.00000000000E+00 -0.11435261799E+03  0.11435261799E+03  0.00000000000E+00 0.  1.
          6    1    1    2  501    0  0.41178929096E+02 -0.38213263692E+02  0.10093599344E+04  0.10256180746E+04  0.17300000000E+03 0. -1.
         -6    1    1    2    0  503 -0.41178929096E+02  0.38213263692E+02 -0.28357202873E+02  0.18408989293E+03  0.17300000000E+03 0.  1.
</event>
<event>
 4    1  0.5758867E+000  0.1000000E+03  0.7546771E-02  0.1280296E+00
         21   -1    0    0  503  502  0.00000000000E+00  0.00000000000E+00  0.14644411847E+03  0.14644411847E+03  0.00000000000E+00 0. -1.
         21   -1    0    0  501  503 -0.00000000000E+00 -0.00000000000E+00 -0.28836722641E+03  0.28836722641E+03  0.00000000000E+00 0. -1.
          6    1    1    2  501    0 -0.26617466393E+02 -0.44029078316E+00 -0.18486612611E+03  0.25458430422E+03  0.17300000000E+03 0. -1.
         -6    1    1    2    0  502  0.26617466393E+02  0.44029078316E+00  0.42943018168E+02  0.18022704065E+03  0.17300000000E+03 0. -1.
</event>
<event>
 4    1  0.5758867E+000  0.1000000E+03  0.7546771E-02  0.1280296E+00
         21   -1    0    0  501  502  0.00000000000E+00  0.00000000000E+00  0.10730564387E+03  0.10730564387E+03  0.00000000000E+00 0. -1.
         21   -1    0    0  502  503 -0.00000000000E+00 -0.00000000000E+00 -0.76580058055E+03  0.76580058055E+03  0.00000000000E+00 0. -1.
          6    1    1    2  501    0 -0.10895044925E+03 -0.50713313811E+02 -0.33149776800E+02  0.21323683615E+03  0.17300000000E+03 0. -1.
         -6    1    1    2    0  503  0.10895044925E+03  0.50713313811E+02 -0.62534515989E+03  0.65986938827E+03  0.17300000000E+03 0. -1.
</event>
<event>
 4    1  0.5758867E+000  0.1000000E+03  0.7546771E-02  0.1280296E+00
         21   -1    0    0  501  502  0.00000000000E+00  0.00000000000E+00  0.13301940142E+03  0.13301940142E+03  0.00000000000E+00 0.  1.
         21   -1    0    0  502  503 -0.00000000000E+00 -0.00000000000E+00 -0.31022195758E+03  0.31022195758E+03  0.00000000000E+00 0.  1.
          6    1    1    2  501    0 -0.74204356770E+02 -0.71629248170E+02 -0.59746919854E+02  0.21008505465E+03  0.17300000000E+03 0.  1.
         -6    1    1    2    0  503  0.74204356770E+02  0.71629248170E+02 -0.11745563631E+03  0.23315630435E+03  0.17300000000E+03 0.  1.
</event>
<event>
 4    1  0.5758867E+000  0.1000000E+03  0.7546771E-02  0.1280296E+00
         21   -1    0    0  501  502  0.00000000000E+00  0.00000000000E+00  0.16011166009E+04  0.16011166009E+04  0.00000000000E+00 0.  1.
         21   -1    0    0  502  503 -0.00000000000E+00 -0.00000000000E+00 -0.60093649608E+02  0.60093649608E+02  0.00000000000E+00 0.  1.
          6    1    1    2  501    0 -0.21457367844E+03 -0.28559647531E+02  0.11437701974E+04  0.11768588621E+04  0.17300000000E+03 0.  1.
         -6    1    1    2    0  503  0.21457367844E+03  0.28559647531E+02  0.39725275398E+03  0.48435138845E+03  0.17300000000E+03 0.  1.
</event>
<event>
 4    1  0.5758867E+000  0.1000000E+03  0.7546771E-02  0.1280296E+00
         21   -1    0    0  501  502  0.00000000000E+00  0.00000000000E+00  0.55412023742E+03  0.55412023742E+03  0.00000000000E+00 0.  1.
         21   -1    0    0  502  503 -0.00000000000E+00 -0.00000000000E+00 -0.82102545380E+03  0.82102545380E+03  0.00000000000E+00 0.  1.
          6    1    1    2  501    0  0.27204163529E+03  0.37011331924E+02  0.46931482733E+03  0.57058031614E+03  0.17300000000E+03 0.  1.
         -6    1    1    2    0  503 -0.27204163529E+03 -0.37011331924E+02 -0.73622004371E+03  0.80456537508E+03  0.17300000000E+03 0.  1.
</event>
<event>
 4    1  0.5758867E+000  0.1000000E+03  0.7546771E-02  0.1280296E+00
         21   -1    0    0  501  502  0.00000000000E+00  0.00000000000E+00  0.67193953799E+03  0.67193953799E+03  0.00000000000E+00 0.  1.
         21   -1    0    0  502  503 -0.00000000000E+00 -0.00000000000E+00 -0.61884364549E+02  0.61884364549E+02  0.00000000000E+00 0.  1.
          6    1    1    2  501    0  0.91524720896E+02  0.27949614996E+02  0.39491386852E+03  0.44163776906E+03  0.17300000000E+03 0.  1.
         -6    1    1    2    0  503 -0.91524720896E+02 -0.27949614996E+02  0.21514130493E+03  0.29218613348E+03  0.17300000000E+03 0.  1.
</event>
<event>
 4    1  0.5758867E+000  0.1000000E+03  0.7546771E-02  0.1280296E+00
         21   -1    0    0  503  502  0.00000000000E+00  0.00000000000E+00  0.19962330843E+03  0.19962330843E+03  0.00000000000E+00 0.  1.
         21   -1    0    0  501  503 -0.00000000000E+00 -0.00000000000E+00 -0.23896435214E+03  0.23896435214E+03  0.00000000000E+00 0.  1.
          6    1    1    2  501    0  0.37768609459E+02  0.25008274446E+02 -0.14556530990E+03  0.23058651543E+03  0.17300000000E+03 0.  1.
         -6    1    1    2    0  502 -0.37768609459E+02 -0.25008274446E+02  0.10622426619E+03  0.20800114514E+03  0.17300000000E+03 0.  1.
</event>
<event>
 4    1  0.5758867E+000  0.1000000E+03  0.7546771E-02  0.1280296E+00
         21   -1    0    0  501  502  0.00000000000E+00  0.00000000000E+00  0.21213419280E+04  0.21213419280E+04  0.00000000000E+00 0.  1.
         21   -1    0    0  502  503 -0.00000000000E+00 -0.00000000000E+00 -0.47900926433E+02  0.47900926433E+02  0.00000000000E+00 0.  1.
          6    1    1    2  501    0 -0.85255020313E+02  0.13589249338E+03  0.17660837980E+04  0.17817733217E+04  0.17300000000E+03 0.  1.
         -6    1    1    2    0  503  0.85255020313E+02 -0.13589249338E+03  0.30735720362E+03  0.38746953282E+03  0.17300000000E+03 0.  1.
</event>
<event>
 4    1  0.5758867E+000  0.1000000E+03  0.7546771E-02  0.1280296E+00
         21   -1    0    0  501  502  0.00000000000E+00  0.00000000000E+00  0.21083806850E+02  0.21083806850E+02  0.00000000000E+00 0.  1.
         21   -1    0    0  502  503 -0.00000000000E+00 -0.00000000000E+00 -0.16476493051E+04  0.16476493051E+04  0.00000000000E+00 0.  1.
          6    1    1    2  501    0 -0.68781493951E+02 -0.15687628112E+00 -0.85302169612E+03  0.87310133007E+03  0.17300000000E+03 0.  1.
         -6    1    1    2    0  503  0.68781493951E+02  0.15687628112E+00 -0.77354380209E+03  0.79563178184E+03  0.17300000000E+03 0.  1.
</event>
<event>
 4    1  0.5758867E+000  0.1000000E+03  0.7546771E-02  0.1280296E+00
         21   -1    0    0  501  502  0.00000000000E+00  0.00000000000E+00  0.33476687227E+03  0.33476687227E+03  0.00000000000E+00 0.  1.
         21   -1    0    0  502  503 -0.00000000000E+00 -0.00000000000E+00 -0.12135067484E+03  0.12135067484E+03  0.00000000000E+00 0.  1.
          6    1    1    2  501    0  0.42775670486E+02 -0.93796679877E+02  0.11601193887E+03  0.23241201583E+03  0.17300000000E+03 0.  1.
         -6    1    1    2    0  503 -0.42775670486E+02  0.93796679877E+02  0.97404258550E+02  0.22370553128E+03  0.17300000000E+03 0.  1.
</event>
<event>
 4    1  0.5758867E+000  0.1000000E+03  0.7546771E-02  0.1280296E+00
         21   -1    0    0  501  502  0.00000000000E+00  0.00000000000E+00  0.13248348379E+03  0.13248348379E+03  0.00000000000E+00 0.  1.
         21   -1    0    0  502  503 -0.00000000000E+00 -0.00000000000E+00 -0.44713256931E+03  0.44713256931E+03  0.00000000000E+00 0.  1.
          6    1    1    2  501    0  0.63015769753E+02 -0.46415642943E+02  0.23975889669E+02  0.19138767576E+03  0.17300000000E+03 0.  1.
         -6    1    1    2    0  503 -0.63015769753E+02  0.46415642943E+02 -0.33862497519E+03  0.38822837734E+03  0.17300000000E+03 0.  1.
</event>
<event>
 4    1  0.5758867E+000  0.1000000E+03  0.7546771E-02  0.1280296E+00
         21   -1    0    0  501  502  0.00000000000E+00  0.00000000000E+00  0.11795833951E+03  0.11795833951E+03  0.00000000000E+00 0.  1.
         21   -1    0    0  502  503 -0.00000000000E+00 -0.00000000000E+00 -0.64319793013E+03  0.64319793013E+03  0.00000000000E+00 0.  1.
          6    1    1    2  501    0 -0.20145545502E+03  0.65500393378E+02 -0.21748818442E+03  0.34943484694E+03  0.17300000000E+03 0.  1.
         -6    1    1    2    0  503  0.20145545502E+03 -0.65500393378E+02 -0.30775140620E+03  0.41172142270E+03  0.17300000000E+03 0.  1.
</event>
<event>
 4    1  0.5758867E+000  0.1000000E+03  0.7546771E-02  0.1280296E+00
         21   -1    0    0  501  502  0.00000000000E+00  0.00000000000E+00  0.10593280405E+03  0.10593280405E+03  0.00000000000E+00 0.  1.
         21   -1    0    0  502  503 -0.00000000000E+00 -0.00000000000E+00 -0.42808679650E+03  0.42808679650E+03  0.00000000000E+00 0.  1.
          6    1    1    2  501    0  0.76595992294E+02 -0.82834864420E+02 -0.96035169974E+02  0.22777250640E+03  0.17300000000E+03 0.  1.
         -6    1    1    2    0  503 -0.76595992294E+02  0.82834864420E+02 -0.22611882247E+03  0.30624709415E+03  0.17300000000E+03 0.  1.
</event>
<event>
 4    1  0.5758867E+000  0.1000000E+03  0.7546771E-02  0.1280296E+00
         21   -1    0    0  501  502  0.00000000000E+00  0.00000000000E+00  0.24135423550E+03  0.24135423550E+03  0.00000000000E+00 0.  1.
         21   -1    0    0  502  503 -0.00000000000E+00 -0.00000000000E+00 -0.17156191869E+03  0.17156191869E+03  0.00000000000E+00 0. -1.
          6    1    1    2  501    0  0.14210321384E+02  0.65274671373E+02  0.11987731877E+03  0.22082184564E+03  0.17300000000E+03 0. -1.
         -6    1    1    2    0  503 -0.14210321384E+02 -0.65274671373E+02 -0.50085001961E+02  0.19209430855E+03  0.17300000000E+03 0.  1.
</event>
<event>
 4    1  0.5758867E+000  0.1000000E+03  0.7546771E-02  0.1280296E+00
         21   -1    0    0  501  502  0.00000000000E+00  0.00000000000E+00  0.60817811952E+03  0.60817811952E+03  0.00000000000E+00 0.  1.
         21   -1    0    0  502  503 -0.00000000000E+00 -0.00000000000E+00 -0.22446127948E+03  0.22446127948E+03  0.00000000000E+00 0.  1.
          6    1    1    2  501    0 -0.12040219472E+03  0.16761717723E+03  0.47689531951E+03  0.54767723375E+03  0.17300000000E+03 0.  1.
         -6    1    1    2    0  503  0.12040219472E+03 -0.16761717723E+03 -0.93178479472E+02  0.28496216526E+03  0.17300000000E+03 0.  1.
</event>
<event>
 4    1  0.5758867E+000  0.1000000E+03  0.7546771E-02  0.1280296E+00
         21   -1    0    0  503  502  0.00000000000E+00  0.00000000000E+00  0.79753352005E+02  0.79753352005E+02  0.00000000000E+00 0.  1.
         21   -1    0    0  501  503 -0.00000000000E+00 -0.00000000000E+00 -0.53653341989E+03  0.53653341989E+03  0.00000000000E+00 0.  1.
          6    1    1    2  501    0 -0.62983138135E+02 -0.82065292537E+02 -0.29761803746E+03  0.35945386930E+03  0.17300000000E+03 0.  1.
         -6    1    1    2    0  502  0.62983138135E+02  0.82065292537E+02 -0.15916203042E+03  0.25683290259E+03  0.17300000000E+03 0.  1.
</event>
<event>
 4    1  0.5758867E+000  0.1000000E+03  0.7546771E-02  0.1280296E+00
         21   -1    0    0  503  502  0.00000000000E+00  0.00000000000E+00  0.27344180283E+02  0.27344180283E+02  0.00000000000E+00 0.  1.
         21   -1    0    0  501  503 -0.00000000000E+00 -0.00000000000E+00 -0.14244706981E+04  0.14244706981E+04  0.00000000000E+00 0.  1.
          6    1    1    2  501    0  0.10434681692E+02 -0.40277286212E+01 -0.10454924633E+04  0.10597681803E+04  0.17300000000E+03 0.  1.
         -6    1    1    2    0  502 -0.10434681692E+02  0.40277286212E+01 -0.35163405459E+03  0.39204669815E+03  0.17300000000E+03 0.  1.
</event>
<event>
 4    1  0.5758867E+000  0.1000000E+03  0.7546771E-02  0.1280296E+00
         21   -1    0    0  501  502  0.00000000000E+00  0.00000000000E+00  0.21310893557E+03  0.21310893557E+03  0.00000000000E+00 0.  1.
         21   -1    0    0  502  503 -0.00000000000E+00 -0.00000000000E+00 -0.25262662404E+03  0.25262662404E+03  0.00000000000E+00 0.  1.
          6    1    1    2  501    0  0.94188699075E+02 -0.70383415250E+02  0.81017003939E+02  0.22431694341E+03  0.17300000000E+03 0.  1.
         -6    1    1    2    0  503 -0.94188699075E+02  0.70383415250E+02 -0.12053469241E+03  0.24141861620E+03  0.17300000000E+03 0.  1.
</event>
<event>
 4    1  0.5758867E+000  0.1000000E+03  0.7546771E-02  0.1280296E+00
         21   -1    0    0  501  502  0.00000000000E+00  0.00000000000E+00  0.24828161583E+02  0.24828161583E+02  0.00000000000E+00 0.  1.
         21   -1    0    0  502  503 -0.00000000000E+00 -0.00000000000E+00 -0.13844088369E+04  0.13844088369E+04  0.00000000000E+00 0.  1.
          6    1    1    2  501    0  0.15708064418E+02 -0.62574237132E+02 -0.61607562643E+03  0.64314885984E+03  0.17300000000E+03 0.  1.
         -6    1    1    2    0  503 -0.15708064418E+02  0.62574237132E+02 -0.74350504893E+03  0.76608813868E+03  0.17300000000E+03 0.  1.
</event>
<event>
 4    1  0.5758867E+000  0.1000000E+03  0.7546771E-02  0.1280296E+00
         21   -1    0    0  501  502  0.00000000000E+00  0.00000000000E+00  0.20684252148E+03  0.20684252148E+03  0.00000000000E+00 0. -1.
         21   -1    0    0  502  503 -0.00000000000E+00 -0.00000000000E+00 -0.19147353975E+03  0.19147353975E+03  0.00000000000E+00 0. -1.
          6    1    1    2  501    0  0.16692609526E+02 -0.84067356209E+02 -0.40620582237E+02  0.19729418464E+03  0.17300000000E+03 0. -1.
         -6    1    1    2    0  503 -0.16692609526E+02  0.84067356209E+02  0.55989563965E+02  0.20102187658E+03  0.17300000000E+03 0. -1.
</event>
<event>
 4    1  0.5758867E+000  0.1000000E+03  0.7546771E-02  0.1280296E+00
         21   -1    0    0  501  502  0.00000000000E+00  0.00000000000E+00  0.22560958209E+03  0.22560958209E+03  0.00000000000E+00 0.  1.
         21   -1    0    0  502  503 -0.00000000000E+00 -0.00000000000E+00 -0.22180628541E+03  0.22180628541E+03  0.00000000000E+00 0.  1.
          6    1    1    2  501    0 -0.97744799424E+02 -0.52810883600E+02  0.90050100315E+02  0.22445724717E+03  0.17300000000E+03 0. -1.
         -6    1    1    2    0  503  0.97744799424E+02  0.52810883600E+02 -0.86246803635E+02  0.22295862033E+03  0.17300000000E+03 0. -1.
</event>
<event>
 4    1  0.5758867E+000  0.1000000E+03  0.7546771E-02  0.1280296E+00
         21   -1    0    0  503  502  0.00000000000E+00  0.00000000000E+00  0.92188519176E+03  0.92188519176E+03  0.00000000000E+00 0.  1.
         21   -1    0    0  501  503 -0.00000000000E+00 -0.00000000000E+00 -0.96908633080E+02  0.96908633080E+02  0.00000000000E+00 0.  1.
          6    1    1    2  501    0 -0.13679656760E+03 -0.20162345085E+03  0.40114283311E+03  0.50020984536E+03  0.17300000000E+03 0.  1.
         -6    1    1    2    0  502  0.13679656760E+03  0.20162345085E+03  0.42383372556E+03  0.51858397947E+03  0.17300000000E+03 0.  1.
</event>
<event>
 4    1  0.5758867E+000  0.1000000E+03  0.7546771E-02  0.1280296E+00
         21   -1    0    0  503  502  0.00000000000E+00  0.00000000000E+00  0.49499551118E+03  0.49499551118E+03  0.00000000000E+00 0.  1.
         21   -1    0    0  501  503 -0.00000000000E+00 -0.00000000000E+00 -0.73885259012E+02  0.73885259012E+02  0.00000000000E+00 0.  1.
          6    1    1    2  501    0  0.40872288823E+02 -0.70030795806E+02  0.19819894974E+03  0.27529380674E+03  0.17300000000E+03 0.  1.
         -6    1    1    2    0  502 -0.40872288823E+02  0.70030795806E+02  0.22291130243E+03  0.29358696345E+03  0.17300000000E+03 0.  1.
</event>
<event>
 4    1  0.5758867E+000  0.1000000E+03  0.7546771E-02  0.1280296E+00
         21   -1    0    0  503  502  0.00000000000E+00  0.00000000000E+00  0.44308087452E+03  0.44308087452E+03  0.00000000000E+00 0.  1.
         21   -1    0    0  501  503 -0.00000000000E+00 -0.00000000000E+00 -0.12161607562E+03  0.12161607562E+03  0.00000000000E+00 0.  1.
          6    1    1    2  501    0 -0.77824892612E+02 -0.33928328002E+02  0.33189813112E+01  0.19273780373E+03  0.17300000000E+03 0.  1.
         -6    1    1    2    0  502  0.77824892612E+02  0.33928328002E+02  0.31814581758E+03  0.37195914641E+03  0.17300000000E+03 0.  1.
</event>
<event>
 4    1  0.5758867E+000  0.1000000E+03  0.7546771E-02  0.1280296E+00
         21   -1    0    0  503  502  0.00000000000E+00  0.00000000000E+00  0.83104318455E+03  0.83104318455E+03  0.00000000000E+00 0.  1.
         21   -1    0    0  501  503 -0.00000000000E+00 -0.00000000000E+00 -0.10937907003E+03  0.10937907003E+03  0.00000000000E+00 0.  1.
          6    1    1    2  501    0 -0.17949800753E+03 -0.15932673185E+03  0.27035911995E+03  0.40078372713E+03  0.17300000000E+03 0.  1.
         -6    1    1    2    0  502  0.17949800753E+03  0.15932673185E+03  0.45130499457E+03  0.53963852745E+03  0.17300000000E+03 0.  1.
</event>
<event>
 4    1  0.5758867E+000  0.1000000E+03  0.7546771E-02  0.1280296E+00
         21   -1    0    0  503  502  0.00000000000E+00  0.00000000000E+00  0.56124618187E+03  0.56124618187E+03  0.00000000000E+00 0. -1.
         21   -1    0    0  501  503 -0.00000000000E+00 -0.00000000000E+00 -0.76469206260E+02  0.76469206260E+02  0.00000000000E+00 0. -1.
          6    1    1    2  501    0  0.79997101730E+02  0.15208503077E+02  0.11966024353E+03  0.22556242757E+03  0.17300000000E+03 0. -1.
         -6    1    1    2    0  502 -0.79997101730E+02 -0.15208503077E+02  0.36511673208E+03  0.41215296056E+03  0.17300000000E+03 0. -1.
</event>
<event>
 4    1  0.5758867E+000  0.1000000E+03  0.7546771E-02  0.1280296E+00
         21   -1    0    0  503  502  0.00000000000E+00  0.00000000000E+00  0.44793524545E+03  0.44793524545E+03  0.00000000000E+00 0. -1.
         21   -1    0    0  501  503 -0.00000000000E+00 -0.00000000000E+00 -0.92638885349E+02  0.92638885349E+02  0.00000000000E+00 0. -1.
          6    1    1    2  501    0  0.65593484539E+02  0.45808519977E+02  0.27301792752E+03  0.33296953985E+03  0.17300000000E+03 0. -1.
         -6    1    1    2    0  502 -0.65593484539E+02 -0.45808519977E+02  0.82278432576E+02  0.20760459095E+03  0.17300000000E+03 0. -1.
</event>
<event>
 4    1  0.5758867E+000  0.1000000E+03  0.7546771E-02  0.1280296E+00
         21   -1    0    0  503  502  0.00000000000E+00  0.00000000000E+00  0.47885489469E+03  0.47885489469E+03  0.00000000000E+00 0. -1.
         21   -1    0    0  501  503 -0.00000000000E+00 -0.00000000000E+00 -0.11278168208E+03  0.11278168208E+03  0.00000000000E+00 0. -1.
          6    1    1    2  501    0 -0.68960797857E+02  0.60191597964E+02  0.23547132678E+02  0.19713469396E+03  0.17300000000E+03 0. -1.
         -6    1    1    2    0  502  0.68960797857E+02 -0.60191597964E+02  0.34252607993E+03  0.39450188281E+03  0.17300000000E+03 0. -1.
</event>
<event>
 4    1  0.5758867E+000  0.1000000E+03  0.7546771E-02  0.1280296E+00
         21   -1    0    0  501  502  0.00000000000E+00  0.00000000000E+00  0.88607041912E+02  0.88607041912E+02  0.00000000000E+00 0.  1.
         21   -1    0    0  502  503 -0.00000000000E+00 -0.00000000000E+00 -0.62484098265E+03  0.62484098265E+03  0.00000000000E+00 0. -1.
          6    1    1    2  501    0 -0.55224330244E+02 -0.51246169191E+02 -0.55003207050E+02  0.19654579439E+03  0.17300000000E+03 0.  1.
         -6    1    1    2    0  503  0.55224330244E+02  0.51246169191E+02 -0.48123073369E+03  0.51690223017E+03  0.17300000000E+03 0.  1.
</event>
<event>
 4    1  0.5758867E+000  0.1000000E+03  0.7546771E-02  0.1280296E+00
         21   -1    0    0  501  502  0.00000000000E+00  0.00000000000E+00  0.11277222956E+03  0.11277222956E+03  0.00000000000E+00 0.  1.
         21   -1    0    0  502  503 -0.00000000000E+00 -0.00000000000E+00 -0.38875404440E+03  0.38875404440E+03  0.00000000000E+00 0. -1.
          6    1    1    2  501    0  0.47763613252E+02  0.38950886436E+02 -0.17551707883E+02  0.18448738915E+03  0.17300000000E+03 0.  1.
         -6    1    1    2    0  503 -0.47763613252E+02 -0.38950886436E+02 -0.25843010696E+03  0.31703888482E+03  0.17300000000E+03 0.  1.
</event>
<event>
 4    1  0.5758867E+000  0.1000000E+03  0.7546771E-02  0.1280296E+00
         21   -1    0    0  501  502  0.00000000000E+00  0.00000000000E+00  0.20996991459E+04  0.20996991459E+04  0.00000000000E+00 0.  1.
         21   -1    0    0  502  503 -0.00000000000E+00 -0.00000000000E+00 -0.16710044280E+02  0.16710044280E+02  0.00000000000E+00 0. -1.
          6    1    1    2  501    0 -0.12938530635E+02  0.22819784134E+02  0.14191567167E+04  0.14299031207E+04  0.17300000000E+03 0.  1.
         -6    1    1    2    0  503  0.12938530635E+02 -0.22819784134E+02  0.66383238497E+03  0.68650606949E+03  0.17300000000E+03 0.  1.
</event>
<event>
 4    1  0.5758867E+000  0.1000000E+03  0.7546771E-02  0.1280296E+00
         21   -1    0    0  501  502  0.00000000000E+00  0.00000000000E+00  0.34318033716E+03  0.34318033716E+03  0.00000000000E+00 0.  1.
         21   -1    0    0  502  503 -0.00000000000E+00 -0.00000000000E+00 -0.42314601732E+03  0.42314601732E+03  0.00000000000E+00 0. -1.
          6    1    1    2  501    0 -0.91949663896E+02 -0.40774337927E+02  0.28609518270E+03  0.34913713765E+03  0.17300000000E+03 0.  1.
         -6    1    1    2    0  503  0.91949663896E+02  0.40774337927E+02 -0.36606086286E+03  0.41718921683E+03  0.17300000000E+03 0.  1.
</event>
<event>
 4    1  0.5758867E+000  0.1000000E+03  0.7546771E-02  0.1280296E+00
         21   -1    0    0  503  502  0.00000000000E+00  0.00000000000E+00  0.11991032041E+04  0.11991032041E+04  0.00000000000E+00 0. -1.
         21   -1    0    0  501  503 -0.00000000000E+00 -0.00000000000E+00 -0.78850773573E+02  0.78850773573E+02  0.00000000000E+00 0.  1.
          6    1    1    2  501    0 -0.10701533296E+03 -0.81595338345E+02  0.11196690404E+03  0.24612124721E+03  0.17300000000E+03 0. -1.
         -6    1    1    2    0  502  0.10701533296E+03  0.81595338345E+02  0.10082855265E+04  0.10318327305E+04  0.17300000000E+03 0.  1.
</event>
<event>
 4    1  0.5758867E+000  0.1000000E+03  0.7546771E-02  0.1280296E+00
         21   -1    0    0  503  502  0.00000000000E+00  0.00000000000E+00  0.54336102142E+03  0.54336102142E+03  0.00000000000E+00 0. -1.
         21   -1    0    0  501  503 -0.00000000000E+00 -0.00000000000E+00 -0.96895057161E+02  0.96895057161E+02  0.00000000000E+00 0.  1.
          6    1    1    2  501    0 -0.38677482964E+02  0.57497966055E+02  0.36477295773E+02  0.18989880699E+03  0.17300000000E+03 0. -1.
         -6    1    1    2    0  502  0.38677482964E+02 -0.57497966055E+02  0.40998866849E+03  0.45035727159E+03  0.17300000000E+03 0.  1.
</event>
<event>
 4    1  0.5758867E+000  0.1000000E+03  0.7546771E-02  0.1280296E+00
         21   -1    0    0  503  502  0.00000000000E+00  0.00000000000E+00  0.12756596879E+03  0.12756596879E+03  0.00000000000E+00 0. -1.
         21   -1    0    0  501  503 -0.00000000000E+00 -0.00000000000E+00 -0.95858404685E+03  0.95858404685E+03  0.00000000000E+00 0.  1.
          6    1    1    2  501    0 -0.76657208459E+02 -0.10499655079E+03 -0.84210412126E+03  0.86946475163E+03  0.17300000000E+03 0. -1.
         -6    1    1    2    0  502  0.76657208459E+02  0.10499655079E+03  0.11086043198E+02  0.21668526401E+03  0.17300000000E+03 0.  1.
</event>
<event>
 4    1  0.5758867E+000  0.1000000E+03  0.7546771E-02  0.1280296E+00
         21   -1    0    0  503  502  0.00000000000E+00  0.00000000000E+00  0.31917962726E+02  0.31917962726E+02  0.00000000000E+00 0. -1.
         21   -1    0    0  501  503 -0.00000000000E+00 -0.00000000000E+00 -0.15136216660E+04  0.15136216660E+04  0.00000000000E+00 0.  1.
          6    1    1    2  501    0  0.36521238782E+02  0.60097834801E+02 -0.11483989396E+04  0.11634838526E+04  0.17300000000E+03 0.  1.
         -6    1    1    2    0  502 -0.36521238782E+02 -0.60097834801E+02 -0.33330476362E+03  0.38205577614E+03  0.17300000000E+03 0. -1.
</event>
<event>
 4    1  0.5758867E+000  0.1000000E+03  0.7546771E-02  0.1280296E+00
         21   -1    0    0  503  502  0.00000000000E+00  0.00000000000E+00  0.99267359142E+02  0.99267359142E+02  0.00000000000E+00 0. -1.
         21   -1    0    0  501  503 -0.00000000000E+00 -0.00000000000E+00 -0.14188294114E+04  0.14188294114E+04  0.00000000000E+00 0.  1.
          6    1    1    2  501    0 -0.10797258445E+02 -0.21517214614E+03 -0.11734425132E+04  0.12055338921E+04  0.17300000000E+03 0.  1.
         -6    1    1    2    0  502  0.10797258445E+02  0.21517214614E+03 -0.14611953903E+03  0.31256287839E+03  0.17300000000E+03 0. -1.
</event>
<event>
 4    1  0.5758867E+000  0.1000000E+03  0.7546771E-02  0.1280296E+00
         21   -1    0    0  501  502  0.00000000000E+00  0.00000000000E+00  0.27107904629E+03  0.27107904629E+03  0.00000000000E+00 0.  1.
         21   -1    0    0  502  503 -0.00000000000E+00 -0.00000000000E+00 -0.45158599140E+03  0.45158599140E+03  0.00000000000E+00 0.  1.
          6    1    1    2  501    0  0.86865471099E+02 -0.11609555323E+03  0.18582248752E+03  0.29237439084E+03  0.17300000000E+03 0.  1.
         -6    1    1    2    0  503 -0.86865471099E+02  0.11609555323E+03 -0.36632943263E+03  0.43029064684E+03  0.17300000000E+03 0.  1.
</event>
<event>
 4    1  0.5758867E+000  0.1000000E+03  0.7546771E-02  0.1280296E+00
         21   -1    0    0  501  502  0.00000000000E+00  0.00000000000E+00  0.17422830206E+03  0.17422830206E+03  0.00000000000E+00 0.  1.
         21   -1    0    0  502  503 -0.00000000000E+00 -0.00000000000E+00 -0.20031612487E+03  0.20031612487E+03  0.00000000000E+00 0.  1.
          6    1    1    2  501    0 -0.11432723891E+02 -0.68558846937E+02 -0.11526691901E+01  0.18644396294E+03  0.17300000000E+03 0.  1.
         -6    1    1    2    0  503  0.11432723891E+02  0.68558846937E+02 -0.24935153625E+02  0.18810046400E+03  0.17300000000E+03 0.  1.
</event>
<event>
 4    1  0.5758867E+000  0.1000000E+03  0.7546771E-02  0.1280296E+00
         21   -1    0    0  501  502  0.00000000000E+00  0.00000000000E+00  0.15952226858E+03  0.15952226858E+03  0.00000000000E+00 0.  1.
         21   -1    0    0  502  503 -0.00000000000E+00 -0.00000000000E+00 -0.22955707800E+03  0.22955707800E+03  0.00000000000E+00 0. -1.
          6    1    1    2  501    0 -0.40595935283E+02  0.56713441279E+02  0.84241259373E+01  0.18672013893E+03  0.17300000000E+03 0.  1.
         -6    1    1    2    0  503  0.40595935283E+02 -0.56713441279E+02 -0.78458935363E+02  0.20235920765E+03  0.17300000000E+03 0. -1.
</event>
<event>
 4    1  0.5758867E+000  0.1000000E+03  0.7546771E-02  0.1280296E+00
         21   -1    0    0  501  502  0.00000000000E+00  0.00000000000E+00  0.11833908626E+03  0.11833908626E+03  0.00000000000E+00 0.  1.
         21   -1    0    0  502  503 -0.00000000000E+00 -0.00000000000E+00 -0.74587365340E+03  0.74587365340E+03  0.00000000000E+00 0. -1.
          6    1    1    2  501    0 -0.19349845794E+00 -0.17735863651E+03 -0.75307197505E+02  0.25895230716E+03  0.17300000000E+03 0.  1.
         -6    1    1    2    0  503  0.19349845794E+00  0.17735863651E+03 -0.55222736963E+03  0.60526043250E+03  0.17300000000E+03 0. -1.
</event>
<event>
 4    1  0.5758867E+000  0.1000000E+03  0.7546771E-02  0.1280296E+00
         21   -1    0    0  501  502  0.00000000000E+00  0.00000000000E+00  0.15453936927E+03  0.15453936927E+03  0.00000000000E+00 0.  1.
         21   -1    0    0  502  503 -0.00000000000E+00 -0.00000000000E+00 -0.37211308267E+03  0.37211308267E+03  0.00000000000E+00 0. -1.
          6    1    1    2  501    0 -0.69166088351E+02 -0.14806829852E+03 -0.14115628606E+03  0.27669887224E+03  0.17300000000E+03 0.  1.
         -6    1    1    2    0  503  0.69166088351E+02  0.14806829852E+03 -0.76417427337E+02  0.24995357970E+03  0.17300000000E+03 0. -1.
</event>
<event>
 4    1  0.5758867E+000  0.1000000E+03  0.7546771E-02  0.1280296E+00
         21   -1    0    0  501  502  0.00000000000E+00  0.00000000000E+00  0.57917871473E+02  0.57917871473E+02  0.00000000000E+00 0. -1.
         21   -1    0    0  502  503 -0.00000000000E+00 -0.00000000000E+00 -0.18989133611E+04  0.18989133611E+04  0.00000000000E+00 0. -1.
          6    1    1    2  501    0 -0.25358863193E+03 -0.10649534850E+03 -0.72471843934E+03  0.79422557867E+03  0.17300000000E+03 0. -1.
         -6    1    1    2    0  503  0.25358863193E+03  0.10649534850E+03 -0.11162770503E+04  0.11626056539E+04  0.17300000000E+03 0. -1.
</event>
<event>
 4    1  0.5758867E+000  0.1000000E+03  0.7546771E-02  0.1280296E+00
         21   -1    0    0  501  502  0.00000000000E+00  0.00000000000E+00  0.98368368207E+03  0.98368368207E+03  0.00000000000E+00 0. -1.
         21   -1    0    0  502  503 -0.00000000000E+00 -0.00000000000E+00 -0.20298387244E+03  0.20298387244E+03  0.00000000000E+00 0.  1.
          6    1    1    2  501    0 -0.80233697802E+02  0.85253735587E+02  0.91486109019E+03  0.93840580776E+03  0.17300000000E+03 0. -1.
         -6    1    1    2    0  503  0.80233697802E+02 -0.85253735587E+02 -0.13416128056E+03  0.24826174674E+03  0.17300000000E+03 0.  1.
</event>
<event>
 4    1  0.5758867E+000  0.1000000E+03  0.7546771E-02  0.1280296E+00
         21   -1    0    0  501  502  0.00000000000E+00  0.00000000000E+00  0.28130838297E+02  0.28130838297E+02  0.00000000000E+00 0. -1.
         21   -1    0    0  502  503 -0.00000000000E+00 -0.00000000000E+00 -0.15427438624E+04  0.15427438624E+04  0.00000000000E+00 0.  1.
          6    1    1    2  501    0  0.35306823405E+02 -0.10401284462E+03 -0.61601240674E+03  0.64920376530E+03  0.17300000000E+03 0. -1.
         -6    1    1    2    0  503 -0.35306823405E+02  0.10401284462E+03 -0.89860061738E+03  0.92167093541E+03  0.17300000000E+03 0.  1.
</event>
<event>
 4    1  0.5758867E+000  0.1000000E+03  0.7546771E-02  0.1280296E+00
         21   -1    0    0  503  502  0.00000000000E+00  0.00000000000E+00  0.40788073988E+03  0.40788073988E+03  0.00000000000E+00 0. -1.
         21   -1    0    0  501  503 -0.00000000000E+00 -0.00000000000E+00 -0.14439861636E+03  0.14439861636E+03  0.00000000000E+00 0. -1.
          6    1    1    2  501    0  0.61957019238E+02  0.36733940255E+02 -0.43723699787E+02  0.19242873102E+03  0.17300000000E+03 0. -1.
         -6    1    1    2    0  502 -0.61957019238E+02 -0.36733940255E+02  0.30720582331E+03  0.35985062522E+03  0.17300000000E+03 0. -1.
</event>
<event>
 4    1  0.5758867E+000  0.1000000E+03  0.7546771E-02  0.1280296E+00
         21   -1    0    0  503  502  0.00000000000E+00  0.00000000000E+00  0.16486353523E+03  0.16486353523E+03  0.00000000000E+00 0. -1.
         21   -1    0    0  501  503 -0.00000000000E+00 -0.00000000000E+00 -0.31632475863E+03  0.31632475863E+03  0.00000000000E+00 0. -1.
          6    1    1    2  501    0 -0.53847710092E+02 -0.21392162957E+01 -0.22216024995E+03  0.28668506900E+03  0.17300000000E+03 0. -1.
         -6    1    1    2    0  502  0.53847710092E+02  0.21392162957E+01  0.70699026545E+02  0.19450322487E+03  0.17300000000E+03 0. -1.
</event>
<event>
 4    1  0.5758867E+000  0.1000000E+03  0.7546771E-02  0.1280296E+00
         21   -1    0    0  503  502  0.00000000000E+00  0.00000000000E+00  0.37431047296E+03  0.37431047296E+03  0.00000000000E+00 0. -1.
         21   -1    0    0  501  503 -0.00000000000E+00 -0.00000000000E+00 -0.14806424756E+03  0.14806424756E+03  0.00000000000E+00 0. -1.
          6    1    1    2  501    0  0.57521864087E+02  0.17811752959E+02 -0.50937912281E+02  0.19013072950E+03  0.17300000000E+03 0. -1.
         -6    1    1    2    0  502 -0.57521864087E+02 -0.17811752959E+02  0.27718413768E+03  0.33224399102E+03  0.17300000000E+03 0. -1.
</event>
<event>
 4    1  0.5758867E+000  0.1000000E+03  0.7546771E-02  0.1280296E+00
         21   -1    0    0  503  502  0.00000000000E+00  0.00000000000E+00  0.30525629550E+02  0.30525629550E+02  0.00000000000E+00 0. -1.
         21   -1    0    0  501  503 -0.00000000000E+00 -0.00000000000E+00 -0.12395323041E+04  0.12395323041E+04  0.00000000000E+00 0. -1.
          6    1    1    2  501    0  0.30585919783E+02  0.63429503975E+02 -0.78180853855E+03  0.80381116651E+03  0.17300000000E+03 0. -1.
         -6    1    1    2    0  502 -0.30585919783E+02 -0.63429503975E+02 -0.42719813600E+03  0.46624676714E+03  0.17300000000E+03 0. -1.
</event>
<event>
 4    1  0.5758867E+000  0.1000000E+03  0.7546771E-02  0.1280296E+00
         21   -1    0    0  503  502  0.00000000000E+00  0.00000000000E+00  0.53930178682E+02  0.53930178682E+02  0.00000000000E+00 0. -1.
         21   -1    0    0  501  503 -0.00000000000E+00 -0.00000000000E+00 -0.12590282944E+04  0.12590282944E+04  0.00000000000E+00 0. -1.
          6    1    1    2  501    0  0.16169635039E+03  0.28503435353E+02 -0.86692966579E+03  0.89914081266E+03  0.17300000000E+03 0. -1.
         -6    1    1    2    0  502 -0.16169635039E+03 -0.28503435353E+02 -0.33816844994E+03  0.41381766044E+03  0.17300000000E+03 0. -1.
</event>
<event>
 4    1  0.5758867E+000  0.1000000E+03  0.7546771E-02  0.1280296E+00
         21   -1    0    0  501  502  0.00000000000E+00  0.00000000000E+00  0.85204138198E+02  0.85204138198E+02  0.00000000000E+00 0.  1.
         21   -1    0    0  502  503 -0.00000000000E+00 -0.00000000000E+00 -0.56807140360E+03  0.56807140360E+03  0.00000000000E+00 0.  1.
          6    1    1    2  501    0 -0.81450468419E+02 -0.19310374767E+02 -0.82454581373E+02  0.20912873396E+03  0.17300000000E+03 0.  1.
         -6    1    1    2    0  503  0.81450468419E+02  0.19310374767E+02 -0.40041268403E+03  0.44414680784E+03  0.17300000000E+03 0.  1.
</event>
<event>
 4    1  0.5758867E+000  0.1000000E+03  0.7546771E-02  0.1280296E+00
         21   -1    0    0  501  502  0.00000000000E+00  0.00000000000E+00  0.38836098528E+03  0.38836098528E+03  0.00000000000E+00 0.  1.
         21   -1    0    0  502  503 -0.00000000000E+00 -0.00000000000E+00 -0.41213717107E+03  0.41213717107E+03  0.00000000000E+00 0.  1.
          6    1    1    2  501    0 -0.24752347428E+03  0.19227068050E+00  0.25064170153E+03  0.39245148724E+03  0.17300000000E+03 0.  1.
         -6    1    1    2    0  503  0.24752347428E+03 -0.19227068050E+00 -0.27441788732E+03  0.40804666911E+03  0.17300000000E+03 0.  1.
</event>
<event>
 4    1  0.5758867E+000  0.1000000E+03  0.7546771E-02  0.1280296E+00
         21   -1    0    0  501  502  0.00000000000E+00  0.00000000000E+00  0.58230334157E+02  0.58230334157E+02  0.00000000000E+00 0.  1.
         21   -1    0    0  502  503 -0.00000000000E+00 -0.00000000000E+00 -0.71806933997E+03  0.71806933997E+03  0.00000000000E+00 0.  1.
          6    1    1    2  501    0 -0.47686642994E+02  0.95860343075E+02 -0.29096265057E+03  0.35503730131E+03  0.17300000000E+03 0.  1.
         -6    1    1    2    0  503  0.47686642994E+02 -0.95860343075E+02 -0.36887635525E+03  0.42126237282E+03  0.17300000000E+03 0.  1.
</event>
<event>
 4    1  0.5758867E+000  0.1000000E+03  0.7546771E-02  0.1280296E+00
         21   -1    0    0  501  502  0.00000000000E+00  0.00000000000E+00  0.66592633880E+03  0.66592633880E+03  0.00000000000E+00 0.  1.
         21   -1    0    0  502  503 -0.00000000000E+00 -0.00000000000E+00 -0.63348197624E+02  0.63348197624E+02  0.00000000000E+00 0.  1.
          6    1    1    2  501    0 -0.87910607604E+02 -0.53631027909E+02  0.37344011605E+03  0.42425355904E+03  0.17300000000E+03 0.  1.
         -6    1    1    2    0  503  0.87910607604E+02  0.53631027909E+02  0.22913802512E+03  0.30502097738E+03  0.17300000000E+03 0.  1.
</event>
<event>
 4    1  0.5758867E+000  0.1000000E+03  0.7546771E-02  0.1280296E+00
         21   -1    0    0  501  502  0.00000000000E+00  0.00000000000E+00  0.24394432201E+04  0.24394432201E+04  0.00000000000E+00 0. -1.
         21   -1    0    0  502  503 -0.00000000000E+00 -0.00000000000E+00 -0.10876903620E+03  0.10876903620E+03  0.00000000000E+00 0. -1.
          6    1    1    2  501    0  0.34050307819E+02 -0.82361759633E+02  0.23450163630E+04  0.23530774797E+04  0.17300000000E+03 0. -1.
         -6    1    1    2    0  503 -0.34050307819E+02  0.82361759633E+02 -0.14342179121E+02  0.19513477654E+03  0.17300000000E+03 0. -1.
</event>
<event>
 4    1  0.5758867E+000  0.1000000E+03  0.7546771E-02  0.1280296E+00
         21   -1    0    0  503  502  0.00000000000E+00  0.00000000000E+00  0.14410705262E+03  0.14410705262E+03  0.00000000000E+00 0. -1.
         21   -1    0    0  501  503 -0.00000000000E+00 -0.00000000000E+00 -0.25946316810E+03  0.25946316810E+03  0.00000000000E+00 0. -1.
          6    1    1    2  501    0 -0.51647463316E+02  0.22736882627E+02 -0.12592459287E+03  0.22129263293E+03  0.17300000000E+03 0. -1.
         -6    1    1    2    0  502  0.51647463316E+02 -0.22736882627E+02  0.10568477392E+02  0.18227758780E+03  0.17300000000E+03 0. -1.
</event>
<event>
 4    1  0.5758867E+000  0.1000000E+03  0.7546771E-02  0.1280296E+00
         21   -1    0    0  503  502  0.00000000000E+00  0.00000000000E+00  0.23157311177E+02  0.23157311177E+02  0.00000000000E+00 0. -1.
         21   -1    0    0  501  503 -0.00000000000E+00 -0.00000000000E+00 -0.20830333654E+04  0.20830333654E+04  0.00000000000E+00 0. -1.
          6    1    1    2  501    0  0.10437882327E+02  0.56517376979E+02 -0.16172889925E+04  0.16275305984E+04  0.17300000000E+03 0. -1.
         -6    1    1    2    0  502 -0.10437882327E+02 -0.56517376979E+02 -0.44258706171E+03  0.47866007822E+03  0.17300000000E+03 0. -1.
</event>
<event>
 4    1  0.5758867E+000  0.1000000E+03  0.7546771E-02  0.1280296E+00
         21   -1    0    0  503  502  0.00000000000E+00  0.00000000000E+00  0.19494990011E+04  0.19494990011E+04  0.00000000000E+00 0. -1.
         21   -1    0    0  501  503 -0.00000000000E+00 -0.00000000000E+00 -0.31461714549E+02  0.31461714549E+02  0.00000000000E+00 0. -1.
          6    1    1    2  501    0 -0.94430934992E+02  0.48227641605E+02  0.39112752297E+03  0.44062778638E+03  0.17300000000E+03 0. -1.
         -6    1    1    2    0  502  0.94430934992E+02 -0.48227641605E+02  0.15269097636E+04  0.15403329293E+04  0.17300000000E+03 0. -1.
</event>
<event>
 4    1  0.5758867E+000  0.1000000E+03  0.7546771E-02  0.1280296E+00
         21   -1    0    0  501  502  0.00000000000E+00  0.00000000000E+00  0.13498789702E+03  0.13498789702E+03  0.00000000000E+00 0. -1.
         21   -1    0    0  502  503 -0.00000000000E+00 -0.00000000000E+00 -0.43040490303E+03  0.43040490303E+03  0.00000000000E+00 0.  1.
          6    1    1    2  501    0 -0.55463275767E+01  0.76170845973E+02  0.27579994370E+02  0.19110838709E+03  0.17300000000E+03 0. -1.
         -6    1    1    2    0  503  0.55463275767E+01 -0.76170845973E+02 -0.32299700038E+03  0.37428441296E+03  0.17300000000E+03 0.  1.
</event>
<event>
 4    1  0.5758867E+000  0.1000000E+03  0.7546771E-02  0.1280296E+00
         21   -1    0    0  503  502  0.00000000000E+00  0.00000000000E+00  0.31187389281E+03  0.31187389281E+03  0.00000000000E+00 0. -1.
         21   -1    0    0  501  503 -0.00000000000E+00 -0.00000000000E+00 -0.15535311623E+03  0.15535311623E+03  0.00000000000E+00 0. -1.
          6    1    1    2  501    0 -0.33154316061E+01 -0.50507789928E+02 -0.55818005898E+02  0.18869732036E+03  0.17300000000E+03 0. -1.
         -6    1    1    2    0  502  0.33154316061E+01  0.50507789928E+02  0.21233878248E+03  0.27852968868E+03  0.17300000000E+03 0. -1.
</event>
<event>
 4    1  0.5758867E+000  0.1000000E+03  0.7546771E-02  0.1280296E+00
         21   -1    0    0  501  502  0.00000000000E+00  0.00000000000E+00  0.14038608939E+03  0.14038608939E+03  0.00000000000E+00 0. -1.
         21   -1    0    0  502  503 -0.00000000000E+00 -0.00000000000E+00 -0.34095421685E+03  0.34095421685E+03  0.00000000000E+00 0. -1.
          6    1    1    2  501    0 -0.11777830554E+03  0.62898173781E+02 -0.88835110780E+02  0.23589952613E+03  0.17300000000E+03 0. -1.
         -6    1    1    2    0  503  0.11777830554E+03 -0.62898173781E+02 -0.11173301669E+03  0.24544078011E+03  0.17300000000E+03 0. -1.
</event>
<event>
 4    1  0.5758867E+000  0.1000000E+03  0.7546771E-02  0.1280296E+00
         21   -1    0    0  503  502  0.00000000000E+00  0.00000000000E+00  0.18568028291E+03  0.18568028291E+03  0.00000000000E+00 0. -1.
         21   -1    0    0  501  503 -0.00000000000E+00 -0.00000000000E+00 -0.44507273831E+03  0.44507273831E+03  0.00000000000E+00 0. -1.
          6    1    1    2  501    0  0.15300239263E+03 -0.49288170357E+02 -0.30953794924E+03  0.38933507151E+03  0.17300000000E+03 0. -1.
         -6    1    1    2    0  502 -0.15300239263E+03  0.49288170357E+02  0.50145493841E+02  0.24141794971E+03  0.17300000000E+03 0. -1.
</event>
<event>
 4    1  0.5758867E+000  0.1000000E+03  0.7546771E-02  0.1280296E+00
         21   -1    0    0  503  502  0.00000000000E+00  0.00000000000E+00  0.77432956710E+02  0.77432956710E+02  0.00000000000E+00 0. -1.
         21   -1    0    0  501  503 -0.00000000000E+00 -0.00000000000E+00 -0.51574176359E+03  0.51574176359E+03  0.00000000000E+00 0. -1.
          6    1    1    2  501    0 -0.57178637796E+02 -0.23831717311E+02 -0.33572342309E+03  0.38272256817E+03  0.17300000000E+03 0. -1.
         -6    1    1    2    0  502  0.57178637796E+02  0.23831717311E+02 -0.10258538378E+03  0.21045215213E+03  0.17300000000E+03 0. -1.
</event>
<event>
 4    1  0.5758867E+000  0.1000000E+03  0.7546771E-02  0.1280296E+00
         21   -1    0    0  501  502  0.00000000000E+00  0.00000000000E+00  0.55535402673E+03  0.55535402673E+03  0.00000000000E+00 0. -1.
         21   -1    0    0  502  503 -0.00000000000E+00 -0.00000000000E+00 -0.25931109693E+03  0.25931109693E+03  0.00000000000E+00 0.  1.
          6    1    1    2  501    0  0.55154045508E+01 -0.17635238251E+03  0.45716594345E+03  0.51967324576E+03  0.17300000000E+03 0.  1.
         -6    1    1    2    0  503 -0.55154045508E+01  0.17635238251E+03 -0.16112301365E+03  0.29499187791E+03  0.17300000000E+03 0. -1.
</event>
<event>
 4    1  0.5758867E+000  0.1000000E+03  0.7546771E-02  0.1280296E+00
         21   -1    0    0  501  502  0.00000000000E+00  0.00000000000E+00  0.95938088263E+02  0.95938088263E+02  0.00000000000E+00 0. -1.
         21   -1    0    0  502  503 -0.00000000000E+00 -0.00000000000E+00 -0.42469299212E+03  0.42469299212E+03  0.00000000000E+00 0.  1.
          6    1    1    2  501    0 -0.93671522598E+02 -0.43407573525E+02 -0.18051914546E+03  0.27050828723E+03  0.17300000000E+03 0.  1.
         -6    1    1    2    0  503  0.93671522598E+02  0.43407573525E+02 -0.14823575840E+03  0.25012279315E+03  0.17300000000E+03 0. -1.
</event>
<event>
 4    1  0.5758867E+000  0.1000000E+03  0.7546771E-02  0.1280296E+00
         21   -1    0    0  501  502  0.00000000000E+00  0.00000000000E+00  0.18644208885E+03  0.18644208885E+03  0.00000000000E+00 0. -1.
         21   -1    0    0  502  503 -0.00000000000E+00 -0.00000000000E+00 -0.42887410680E+03  0.42887410680E+03  0.00000000000E+00 0.  1.
          6    1    1    2  501    0 -0.13280798951E+02  0.13149826271E+03  0.75117188402E+02  0.23030363590E+03  0.17300000000E+03 0.  1.
         -6    1    1    2    0  503  0.13280798951E+02 -0.13149826271E+03 -0.31754920635E+03  0.38501255976E+03  0.17300000000E+03 0. -1.
</event>
<event>
 4    1  0.5758867E+000  0.1000000E+03  0.7546771E-02  0.1280296E+00
         21   -1    0    0  503  502  0.00000000000E+00  0.00000000000E+00  0.17981909000E+03  0.17981909000E+03  0.00000000000E+00 0. -1.
         21   -1    0    0  501  503 -0.00000000000E+00 -0.00000000000E+00 -0.30219117537E+03  0.30219117537E+03  0.00000000000E+00 0. -1.
          6    1    1    2  501    0  0.46913123494E+01  0.88072628496E+01 -0.22238803255E+03  0.28193086619E+03  0.17300000000E+03 0. -1.
         -6    1    1    2    0  502 -0.46913123494E+01 -0.88072628496E+01  0.10001594717E+03  0.20007939919E+03  0.17300000000E+03 0. -1.
</event>
<event>
 4    1  0.5758867E+000  0.1000000E+03  0.7546771E-02  0.1280296E+00
         21   -1    0    0  501  502  0.00000000000E+00  0.00000000000E+00  0.22042221979E+04  0.22042221979E+04  0.00000000000E+00 0. -1.
         21   -1    0    0  502  503 -0.00000000000E+00 -0.00000000000E+00 -0.78207561638E+02  0.78207561638E+02  0.00000000000E+00 0. -1.
          6    1    1    2  501    0  0.80848549599E+02  0.90577716277E+02  0.20452974405E+04  0.20561885689E+04  0.17300000000E+03 0. -1.
         -6    1    1    2    0  503 -0.80848549599E+02 -0.90577716277E+02  0.80717195752E+02  0.22624119065E+03  0.17300000000E+03 0. -1.
</event>
<event>
 4    1  0.5758867E+000  0.1000000E+03  0.7546771E-02  0.1280296E+00
         21   -1    0    0  503  502  0.00000000000E+00  0.00000000000E+00  0.44440052509E+03  0.44440052509E+03  0.00000000000E+00 0.  1.
         21   -1    0    0  501  503 -0.00000000000E+00 -0.00000000000E+00 -0.62430199463E+03  0.62430199463E+03  0.00000000000E+00 0.  1.
          6    1    1    2  501    0  0.22689868247E+03 -0.41877810842E+03 -0.23574282310E+03  0.55889336625E+03  0.17300000000E+03 0.  1.
         -6    1    1    2    0  502 -0.22689868247E+03  0.41877810842E+03  0.55841353548E+02  0.50980915347E+03  0.17300000000E+03 0.  1.
</event>
<event>
 4    1  0.5758867E+000  0.1000000E+03  0.7546771E-02  0.1280296E+00
         21   -1    0    0  503  502  0.00000000000E+00  0.00000000000E+00  0.24981081752E+03  0.24981081752E+03  0.00000000000E+00 0. -1.
         21   -1    0    0  501  503 -0.00000000000E+00 -0.00000000000E+00 -0.18374100615E+03  0.18374100615E+03  0.00000000000E+00 0. -1.
          6    1    1    2  501    0 -0.19546385317E+02  0.12216745785E+03  0.69515429680E+01  0.21280101712E+03  0.17300000000E+03 0. -1.
         -6    1    1    2    0  502  0.19546385317E+02 -0.12216745785E+03  0.59118268401E+02  0.22075080656E+03  0.17300000000E+03 0. -1.
</event>
<event>
 4    1  0.5758867E+000  0.1000000E+03  0.7546771E-02  0.1280296E+00
         21   -1    0    0  503  502  0.00000000000E+00  0.00000000000E+00  0.42277813710E+03  0.42277813710E+03  0.00000000000E+00 0. -1.
         21   -1    0    0  501  503 -0.00000000000E+00 -0.00000000000E+00 -0.22342172347E+03  0.22342172347E+03  0.00000000000E+00 0. -1.
          6    1    1    2  501    0  0.64781581105E+02 -0.22170807553E+03 -0.11467848218E+02  0.28881072617E+03  0.17300000000E+03 0. -1.
         -6    1    1    2    0  502 -0.64781581105E+02  0.22170807553E+03  0.21082426184E+03  0.35738913440E+03  0.17300000000E+03 0. -1.
</event>
<event>
 4    1  0.5758867E+000  0.1000000E+03  0.7546771E-02  0.1280296E+00
         21   -1    0    0  501  502  0.00000000000E+00  0.00000000000E+00  0.12116174133E+03  0.12116174133E+03  0.00000000000E+00 0.  1.
         21   -1    0    0  502  503 -0.00000000000E+00 -0.00000000000E+00 -0.33576513483E+03  0.33576513483E+03  0.00000000000E+00 0.  1.
          6    1    1    2  501    0  0.69923070594E+02 -0.54580889910E+02 -0.46466154999E+02  0.19989100256E+03  0.17300000000E+03 0.  1.
         -6    1    1    2    0  503 -0.69923070594E+02  0.54580889910E+02 -0.16813723850E+03  0.25703587360E+03  0.17300000000E+03 0.  1.
</event>
<event>
 4    1  0.5758867E+000  0.1000000E+03  0.7546771E-02  0.1280296E+00
         21   -1    0    0  501  502  0.00000000000E+00  0.00000000000E+00  0.21936045380E+03  0.21936045380E+03  0.00000000000E+00 0.  1.
         21   -1    0    0  502  503 -0.00000000000E+00 -0.00000000000E+00 -0.66356353686E+03  0.66356353686E+03  0.00000000000E+00 0.  1.
          6    1    1    2  501    0 -0.41404520535E+02 -0.35715673708E+02  0.16624592895E+03  0.24608261329E+03  0.17300000000E+03 0.  1.
         -6    1    1    2    0  503  0.41404520535E+02  0.35715673708E+02 -0.61044901201E+03  0.63684137737E+03  0.17300000000E+03 0.  1.
</event>
<event>
 4    1  0.5758867E+000  0.1000000E+03  0.7546771E-02  0.1280296E+00
         21   -1    0    0  501  502  0.00000000000E+00  0.00000000000E+00  0.16330939022E+03  0.16330939022E+03  0.00000000000E+00 0.  1.
         21   -1    0    0  502  503 -0.00000000000E+00 -0.00000000000E+00 -0.49809812609E+03  0.49809812609E+03  0.00000000000E+00 0.  1.
          6    1    1    2  501    0  0.13100944125E+03 -0.18098869893E+03 -0.21222303113E+03  0.35339496004E+03  0.17300000000E+03 0.  1.
         -6    1    1    2    0  503 -0.13100944125E+03  0.18098869893E+03 -0.12256570475E+03  0.30801255627E+03  0.17300000000E+03 0.  1.
</event>
<event>
 4    1  0.5758867E+000  0.1000000E+03  0.7546771E-02  0.1280296E+00
         21   -1    0    0  501  502  0.00000000000E+00  0.00000000000E+00  0.17598149750E+03  0.17598149750E+03  0.00000000000E+00 0. -1.
         21   -1    0    0  502  503 -0.00000000000E+00 -0.00000000000E+00 -0.10469568919E+04  0.10469568919E+04  0.00000000000E+00 0. -1.
          6    1    1    2  501    0 -0.89994813955E+02 -0.15375033238E+03  0.63261957091E+02  0.25626023191E+03  0.17300000000E+03 0. -1.
         -6    1    1    2    0  503  0.89994813955E+02  0.15375033238E+03 -0.93423735148E+03  0.96667815748E+03  0.17300000000E+03 0. -1.
</event>
<event>
 4    1  0.5758867E+000  0.1000000E+03  0.7546771E-02  0.1280296E+00
         21   -1    0    0  501  502  0.00000000000E+00  0.00000000000E+00  0.15556663509E+03  0.15556663509E+03  0.00000000000E+00 0. -1.
         21   -1    0    0  502  503 -0.00000000000E+00 -0.00000000000E+00 -0.34970271823E+03  0.34970271823E+03  0.00000000000E+00 0. -1.
          6    1    1    2  501    0  0.26632143153E+02  0.18675830876E+02  0.68673918855E+02  0.18895281114E+03  0.17300000000E+03 0. -1.
         -6    1    1    2    0  503 -0.26632143153E+02 -0.18675830876E+02 -0.26281000200E+03  0.31631654218E+03  0.17300000000E+03 0. -1.
</event>
<event>
 4    1  0.5758867E+000  0.1000000E+03  0.7546771E-02  0.1280296E+00
         21   -1    0    0  501  502  0.00000000000E+00  0.00000000000E+00  0.39666684236E+03  0.39666684236E+03  0.00000000000E+00 0. -1.
         21   -1    0    0  502  503 -0.00000000000E+00 -0.00000000000E+00 -0.11654815549E+04  0.11654815549E+04  0.00000000000E+00 0. -1.
          6    1    1    2  501    0 -0.88412889263E+02  0.60018513454E+03 -0.93022703379E+02  0.63766861147E+03  0.17300000000E+03 0. -1.
         -6    1    1    2    0  503  0.88412889263E+02 -0.60018513454E+03 -0.67579200918E+03  0.92447978582E+03  0.17300000000E+03 0. -1.
</event>
<event>
 4    1  0.5758867E+000  0.1000000E+03  0.7546771E-02  0.1280296E+00
         21   -1    0    0  503  502  0.00000000000E+00  0.00000000000E+00  0.36435997793E+03  0.36435997793E+03  0.00000000000E+00 0. -1.
         21   -1    0    0  501  503 -0.00000000000E+00 -0.00000000000E+00 -0.12784979105E+03  0.12784979105E+03  0.00000000000E+00 0.  1.
          6    1    1    2  501    0 -0.35761767749E+02  0.40857160542E+02 -0.15239106875E+02  0.18196000104E+03  0.17300000000E+03 0.  1.
         -6    1    1    2    0  502  0.35761767749E+02 -0.40857160542E+02  0.25174929376E+03  0.31024976794E+03  0.17300000000E+03 0. -1.
</event>
<event>
 4    1  0.5758867E+000  0.1000000E+03  0.7546771E-02  0.1280296E+00
         21   -1    0    0  501  502  0.00000000000E+00  0.00000000000E+00  0.19872146846E+03  0.19872146846E+03  0.00000000000E+00 0.  1.
         21   -1    0    0  502  503 -0.00000000000E+00 -0.00000000000E+00 -0.97591477821E+03  0.97591477821E+03  0.00000000000E+00 0.  1.
          6    1    1    2  501    0  0.12715148097E+02  0.61593953000E+01  0.15117585869E+03  0.23017982838E+03  0.17300000000E+03 0.  1.
         -6    1    1    2    0  503 -0.12715148097E+02 -0.61593953000E+01 -0.92836916844E+03  0.94445641829E+03  0.17300000000E+03 0.  1.
</event>
<event>
 4    1  0.5758867E+000  0.1000000E+03  0.7546771E-02  0.1280296E+00
         21   -1    0    0  501  502  0.00000000000E+00  0.00000000000E+00  0.70474146816E+03  0.70474146816E+03  0.00000000000E+00 0.  1.
         21   -1    0    0  502  503 -0.00000000000E+00 -0.00000000000E+00 -0.14353934147E+03  0.14353934147E+03  0.00000000000E+00 0.  1.
          6    1    1    2  501    0 -0.10431607510E+03 -0.24531045703E+03  0.26321051009E+03  0.41263523417E+03  0.17300000000E+03 0.  1.
         -6    1    1    2    0  503  0.10431607510E+03  0.24531045703E+03  0.29799161660E+03  0.43564557546E+03  0.17300000000E+03 0.  1.
</event>
<event>
 4    1  0.5758867E+000  0.1000000E+03  0.7546771E-02  0.1280296E+00
         21   -1    0    0  501  502  0.00000000000E+00  0.00000000000E+00  0.97329611370E+03  0.97329611370E+03  0.00000000000E+00 0.  1.
         21   -1    0    0  502  503 -0.00000000000E+00 -0.00000000000E+00 -0.60907633631E+02  0.60907633631E+02  0.00000000000E+00 0.  1.
          6    1    1    2  501    0 -0.86710075817E+02 -0.28500292068E+02  0.76412077653E+03  0.78875881296E+03  0.17300000000E+03 0.  1.
         -6    1    1    2    0  503  0.86710075817E+02  0.28500292068E+02  0.14826770354E+03  0.24544493437E+03  0.17300000000E+03 0.  1.
</event>
<event>
 4    1  0.5758867E+000  0.1000000E+03  0.7546771E-02  0.1280296E+00
         21   -1    0    0  501  502  0.00000000000E+00  0.00000000000E+00  0.22648296545E+03  0.22648296545E+03  0.00000000000E+00 0. -1.
         21   -1    0    0  502  503 -0.00000000000E+00 -0.00000000000E+00 -0.39198766856E+03  0.39198766856E+03  0.00000000000E+00 0. -1.
          6    1    1    2  501    0 -0.11689291147E+02  0.21143917862E+03  0.40075771490E+02  0.27636612174E+03  0.17300000000E+03 0. -1.
         -6    1    1    2    0  503  0.11689291147E+02 -0.21143917862E+03 -0.20558047459E+03  0.34210451227E+03  0.17300000000E+03 0. -1.
</event>
<event>
 4    1  0.5758867E+000  0.1000000E+03  0.7546771E-02  0.1280296E+00
         21   -1    0    0  501  502  0.00000000000E+00  0.00000000000E+00  0.55830377895E+03  0.55830377895E+03  0.00000000000E+00 0. -1.
         21   -1    0    0  502  503 -0.00000000000E+00 -0.00000000000E+00 -0.93288688393E+02  0.93288688393E+02  0.00000000000E+00 0. -1.
          6    1    1    2  501    0 -0.68781027513E+01 -0.53721374712E+02  0.43042576349E+03  0.46704243091E+03  0.17300000000E+03 0. -1.
         -6    1    1    2    0  503  0.68781027513E+01  0.53721374712E+02  0.34589327065E+02  0.18455003643E+03  0.17300000000E+03 0. -1.
</event>
<event>
 4    1  0.5758867E+000  0.1000000E+03  0.7546771E-02  0.1280296E+00
         21   -1    0    0  501  502  0.00000000000E+00  0.00000000000E+00  0.13904353497E+03  0.13904353497E+03  0.00000000000E+00 0. -1.
         21   -1    0    0  502  503 -0.00000000000E+00 -0.00000000000E+00 -0.38531702812E+03  0.38531702812E+03  0.00000000000E+00 0. -1.
          6    1    1    2  501    0  0.16588197334E+02 -0.10377586049E+03  0.40200180053E+01  0.20245927506E+03  0.17300000000E+03 0. -1.
         -6    1    1    2    0  503 -0.16588197334E+02  0.10377586049E+03 -0.25029351116E+03  0.32190128804E+03  0.17300000000E+03 0. -1.
</event>
<event>
 4    1  0.5758867E+000  0.1000000E+03  0.7546771E-02  0.1280296E+00
         21   -1    0    0  501  502  0.00000000000E+00  0.00000000000E+00  0.70174428886E+03  0.70174428886E+03  0.00000000000E+00 0.  1.
         21   -1    0    0  502  503 -0.00000000000E+00 -0.00000000000E+00 -0.52548473656E+02  0.52548473656E+02  0.00000000000E+00 0.  1.
          6    1    1    2  501    0  0.45682715906E+02 -0.69312852340E+02  0.33921737542E+03  0.38972889272E+03  0.17300000000E+03 0.  1.
         -6    1    1    2    0  503 -0.45682715906E+02  0.69312852340E+02  0.30997843978E+03  0.36456386980E+03  0.17300000000E+03 0.  1.
</event>
<event>
 4    1  0.5758867E+000  0.1000000E+03  0.7546771E-02  0.1280296E+00
         21   -1    0    0  501  502  0.00000000000E+00  0.00000000000E+00  0.58213221027E+03  0.58213221027E+03  0.00000000000E+00 0.  1.
         21   -1    0    0  502  503 -0.00000000000E+00 -0.00000000000E+00 -0.41512099010E+03  0.41512099010E+03  0.00000000000E+00 0.  1.
          6    1    1    2  501    0  0.73411757436E+02  0.29241707155E+03  0.43609022381E+03  0.55767437916E+03  0.17300000000E+03 0.  1.
         -6    1    1    2    0  503 -0.73411757436E+02 -0.29241707155E+03 -0.26907900364E+03  0.43957882121E+03  0.17300000000E+03 0.  1.
</event>
<event>
 4    1  0.5758867E+000  0.1000000E+03  0.7546771E-02  0.1280296E+00
         21   -1    0    0  501  502  0.00000000000E+00  0.00000000000E+00  0.49508004262E+03  0.49508004262E+03  0.00000000000E+00 0.  1.
         21   -1    0    0  502  503 -0.00000000000E+00 -0.00000000000E+00 -0.12890765222E+03  0.12890765222E+03  0.00000000000E+00 0.  1.
          6    1    1    2  501    0 -0.47791623881E+02 -0.17778030774E+03  0.18414053302E+03  0.31261256058E+03  0.17300000000E+03 0.  1.
         -6    1    1    2    0  503  0.47791623881E+02  0.17778030774E+03  0.18203185739E+03  0.31137513426E+03  0.17300000000E+03 0.  1.
</event>
<event>
 4    1  0.5758867E+000  0.1000000E+03  0.7546771E-02  0.1280296E+00
         21   -1    0    0  503  502  0.00000000000E+00  0.00000000000E+00  0.45687013692E+02  0.45687013692E+02  0.00000000000E+00 0.  1.
         21   -1    0    0  501  503 -0.00000000000E+00 -0.00000000000E+00 -0.75679124081E+03  0.75679124081E+03  0.00000000000E+00 0.  1.
          6    1    1    2  501    0 -0.54045087422E+02 -0.34354441059E+02 -0.40594734256E+03  0.44589611349E+03  0.17300000000E+03 0.  1.
         -6    1    1    2    0  502  0.54045087422E+02  0.34354441059E+02 -0.30515688456E+03  0.35658214101E+03  0.17300000000E+03 0.  1.
</event>
<event>
 4    1  0.5758867E+000  0.1000000E+03  0.7546771E-02  0.1280296E+00
         21   -1    0    0  501  502  0.00000000000E+00  0.00000000000E+00  0.11689175137E+04  0.11689175137E+04  0.00000000000E+00 0.  1.
         21   -1    0    0  502  503 -0.00000000000E+00 -0.00000000000E+00 -0.34377540086E+02  0.34377540086E+02  0.00000000000E+00 0.  1.
          6    1    1    2  501    0  0.20266436279E+02  0.75992193612E+02  0.75874329259E+03  0.78218023880E+03  0.17300000000E+03 0.  1.
         -6    1    1    2    0  503 -0.20266436279E+02 -0.75992193612E+02  0.37579668105E+03  0.42111481501E+03  0.17300000000E+03 0.  1.
</event>
<event>
 4    1  0.5758867E+000  0.1000000E+03  0.7546771E-02  0.1280296E+00
         21   -1    0    0  501  502  0.00000000000E+00  0.00000000000E+00  0.80456960711E+03  0.80456960711E+03  0.00000000000E+00 0.  1.
         21   -1    0    0  502  503 -0.00000000000E+00 -0.00000000000E+00 -0.70840142416E+02  0.70840142416E+02  0.00000000000E+00 0.  1.
          6    1    1    2  501    0 -0.50566344366E+02  0.93630559719E+02  0.59690624202E+03  0.63051542301E+03  0.17300000000E+03 0.  1.
         -6    1    1    2    0  503  0.50566344366E+02 -0.93630559719E+02  0.13682322268E+03  0.24489432652E+03  0.17300000000E+03 0.  1.
</event>
<event>
 4    1  0.5758867E+000  0.1000000E+03  0.7546771E-02  0.1280296E+00
         21   -1    0    0  501  502  0.00000000000E+00  0.00000000000E+00  0.27237640159E+03  0.27237640159E+03  0.00000000000E+00 0.  1.
         21   -1    0    0  502  503 -0.00000000000E+00 -0.00000000000E+00 -0.39864154427E+03  0.39864154427E+03  0.00000000000E+00 0.  1.
          6    1    1    2  501    0 -0.79128646772E+02 -0.25161442378E+03  0.33891687484E+02  0.31725196213E+03  0.17300000000E+03 0.  1.
         -6    1    1    2    0  503  0.79128646772E+02  0.25161442378E+03 -0.16015683016E+03  0.35376598373E+03  0.17300000000E+03 0.  1.
</event>
<event>
 4    1  0.5758867E+000  0.1000000E+03  0.7546771E-02  0.1280296E+00
         21   -1    0    0  503  502  0.00000000000E+00  0.00000000000E+00  0.96067512821E+02  0.96067512821E+02  0.00000000000E+00 0. -1.
         21   -1    0    0  501  503 -0.00000000000E+00 -0.00000000000E+00 -0.11605905542E+04  0.11605905542E+04  0.00000000000E+00 0. -1.
          6    1    1    2  501    0 -0.21625109025E+03 -0.11495163480E+03 -0.80874034720E+03  0.86253600595E+03  0.17300000000E+03 0. -1.
         -6    1    1    2    0  502  0.21625109025E+03  0.11495163480E+03 -0.25578269417E+03  0.39412206106E+03  0.17300000000E+03 0. -1.
</event>
<event>
 4    1  0.5758867E+000  0.1000000E+03  0.7546771E-02  0.1280296E+00
         21   -1    0    0  503  502  0.00000000000E+00  0.00000000000E+00  0.45418385421E+02  0.45418385421E+02  0.00000000000E+00 0. -1.
         21   -1    0    0  501  503 -0.00000000000E+00 -0.00000000000E+00 -0.68316375007E+03  0.68316375007E+03  0.00000000000E+00 0. -1.
          6    1    1    2  501    0 -0.67328654171E+01 -0.32360417301E+02 -0.32421237979E+03  0.36896503261E+03  0.17300000000E+03 0. -1.
         -6    1    1    2    0  502  0.67328654171E+01  0.32360417301E+02 -0.31353298486E+03  0.35961710288E+03  0.17300000000E+03 0. -1.
</event>
<event>
 4    1  0.5758867E+000  0.1000000E+03  0.7546771E-02  0.1280296E+00
         21   -1    0    0  503  502  0.00000000000E+00  0.00000000000E+00  0.59892252962E+03  0.59892252962E+03  0.00000000000E+00 0. -1.
         21   -1    0    0  501  503 -0.00000000000E+00 -0.00000000000E+00 -0.12708060084E+03  0.12708060084E+03  0.00000000000E+00 0. -1.
          6    1    1    2  501    0  0.67607229962E+02  0.51608779159E+02 -0.23752404902E+02  0.19423537363E+03  0.17300000000E+03 0. -1.
         -6    1    1    2    0  502 -0.67607229962E+02 -0.51608779159E+02  0.49559433368E+03  0.53176775684E+03  0.17300000000E+03 0. -1.
</event>
<event>
 4    1  0.5758867E+000  0.1000000E+03  0.7546771E-02  0.1280296E+00
         21   -1    0    0  503  502  0.00000000000E+00  0.00000000000E+00  0.89028327475E+03  0.89028327475E+03  0.00000000000E+00 0. -1.
         21   -1    0    0  501  503 -0.00000000000E+00 -0.00000000000E+00 -0.93551815057E+02  0.93551815057E+02  0.00000000000E+00 0. -1.
          6    1    1    2  501    0  0.16782353736E+03  0.15823695825E+03  0.37714862406E+03  0.47473546242E+03  0.17300000000E+03 0. -1.
         -6    1    1    2    0  502 -0.16782353736E+03 -0.15823695825E+03  0.41958283563E+03  0.50909962739E+03  0.17300000000E+03 0. -1.
</event>
<event>
 4    1  0.5758867E+000  0.1000000E+03  0.7546771E-02  0.1280296E+00
         21   -1    0    0  501  502  0.00000000000E+00  0.00000000000E+00  0.21307685498E+03  0.21307685498E+03  0.00000000000E+00 0. -1.
         21   -1    0    0  502  503 -0.00000000000E+00 -0.00000000000E+00 -0.17288579925E+03  0.17288579925E+03  0.00000000000E+00 0. -1.
          6    1    1    2  501    0 -0.38498277035E+02 -0.73515415079E+02  0.24846692267E+02  0.19347607528E+03  0.17300000000E+03 0. -1.
         -6    1    1    2    0  503  0.38498277035E+02  0.73515415079E+02  0.15344363462E+02  0.19248657896E+03  0.17300000000E+03 0. -1.
</event>
<event>
 4    1  0.5758867E+000  0.1000000E+03  0.7546771E-02  0.1280296E+00
         21   -1    0    0  501  502  0.00000000000E+00  0.00000000000E+00  0.10870308384E+03  0.10870308384E+03  0.00000000000E+00 0. -1.
         21   -1    0    0  502  503 -0.00000000000E+00 -0.00000000000E+00 -0.43641617645E+03  0.43641617645E+03  0.00000000000E+00 0.  1.
          6    1    1    2  501    0  0.45811058381E+02 -0.11943117023E+03 -0.20626211730E+03  0.29805287874E+03  0.17300000000E+03 0.  1.
         -6    1    1    2    0  503 -0.45811058381E+02  0.11943117023E+03 -0.12145097530E+03  0.24706638155E+03  0.17300000000E+03 0. -1.
</event>
<event>
 4    1  0.5758867E+000  0.1000000E+03  0.7546771E-02  0.1280296E+00
         21   -1    0    0  501  502  0.00000000000E+00  0.00000000000E+00  0.26311669772E+03  0.26311669772E+03  0.00000000000E+00 0. -1.
         21   -1    0    0  502  503 -0.00000000000E+00 -0.00000000000E+00 -0.59358709688E+03  0.59358709688E+03  0.00000000000E+00 0.  1.
          6    1    1    2  501    0  0.12939173975E+03 -0.14079513040E+03  0.15936731763E+03  0.30313764693E+03  0.17300000000E+03 0.  1.
         -6    1    1    2    0  503 -0.12939173975E+03  0.14079513040E+03 -0.48983771678E+03  0.55356614767E+03  0.17300000000E+03 0. -1.
</event>
<event>
 4    1  0.5758867E+000  0.1000000E+03  0.7546771E-02  0.1280296E+00
         21   -1    0    0  501  502  0.00000000000E+00  0.00000000000E+00  0.26169093742E+03  0.26169093742E+03  0.00000000000E+00 0.  1.
         21   -1    0    0  502  503 -0.00000000000E+00 -0.00000000000E+00 -0.25796495111E+03  0.25796495111E+03  0.00000000000E+00 0.  1.
          6    1    1    2  501    0  0.99514961877E+02  0.14236937692E+03  0.87922295450E+02  0.26044499834E+03  0.17300000000E+03 0.  1.
         -6    1    1    2    0  503 -0.99514961877E+02 -0.14236937692E+03 -0.84196309140E+02  0.25921089020E+03  0.17300000000E+03 0.  1.
</event>
<event>
 4    1  0.5758867E+000  0.1000000E+03  0.7546771E-02  0.1280296E+00
         21   -1    0    0  501  502  0.00000000000E+00  0.00000000000E+00  0.37919375689E+03  0.37919375689E+03  0.00000000000E+00 0.  1.
         21   -1    0    0  502  503 -0.00000000000E+00 -0.00000000000E+00 -0.28776283123E+03  0.28776283123E+03  0.00000000000E+00 0.  1.
          6    1    1    2  501    0  0.64728776242E+02 -0.15272222730E+03  0.27520335361E+03  0.36493804820E+03  0.17300000000E+03 0.  1.
         -6    1    1    2    0  503 -0.64728776242E+02  0.15272222730E+03 -0.18377242795E+03  0.30201853992E+03  0.17300000000E+03 0.  1.
</event>
<event>
 4    1  0.5758867E+000  0.1000000E+03  0.7546771E-02  0.1280296E+00
         21   -1    0    0  501  502  0.00000000000E+00  0.00000000000E+00  0.21950827757E+03  0.21950827757E+03  0.00000000000E+00 0.  1.
         21   -1    0    0  502  503 -0.00000000000E+00 -0.00000000000E+00 -0.34564266431E+03  0.34564266431E+03  0.00000000000E+00 0.  1.
          6    1    1    2  501    0  0.10095494092E+03  0.11505355613E+03  0.90859521339E+02  0.24822101743E+03  0.17300000000E+03 0.  1.
         -6    1    1    2    0  503 -0.10095494092E+03 -0.11505355613E+03 -0.21699390808E+03  0.31692992446E+03  0.17300000000E+03 0.  1.
</event>
<event>
 4    1  0.5758867E+000  0.1000000E+03  0.7546771E-02  0.1280296E+00
         21   -1    0    0  503  502  0.00000000000E+00  0.00000000000E+00  0.82121428373E+02  0.82121428373E+02  0.00000000000E+00 0. -1.
         21   -1    0    0  501  503 -0.00000000000E+00 -0.00000000000E+00 -0.91425818038E+03  0.91425818038E+03  0.00000000000E+00 0.  1.
          6    1    1    2  501    0 -0.11154498551E+03  0.22038451419E+02 -0.74244313565E+03  0.77076506590E+03  0.17300000000E+03 0.  1.
         -6    1    1    2    0  502  0.11154498551E+03 -0.22038451419E+02 -0.89693616357E+02  0.22561454286E+03  0.17300000000E+03 0. -1.
</event>
<event>
 4    1  0.5758867E+000  0.1000000E+03  0.7546771E-02  0.1280296E+00
         21   -1    0    0  503  502  0.00000000000E+00  0.00000000000E+00  0.31577219523E+03  0.31577219523E+03  0.00000000000E+00 0. -1.
         21   -1    0    0  501  503 -0.00000000000E+00 -0.00000000000E+00 -0.76580893552E+03  0.76580893552E+03  0.00000000000E+00 0.  1.
          6    1    1    2  501    0  0.13760597107E+03  0.16205287214E+03 -0.67401601034E+03  0.72761467745E+03  0.17300000000E+03 0.  1.
         -6    1    1    2    0  502 -0.13760597107E+03 -0.16205287214E+03  0.22397927005E+03  0.35396645329E+03  0.17300000000E+03 0. -1.
</event>
<event>
 4    1  0.5758867E+000  0.1000000E+03  0.7546771E-02  0.1280296E+00
         21   -1    0    0  503  502  0.00000000000E+00  0.00000000000E+00  0.14014765488E+04  0.14014765488E+04  0.00000000000E+00 0. -1.
         21   -1    0    0  501  503 -0.00000000000E+00 -0.00000000000E+00 -0.27649753743E+02  0.27649753743E+02  0.00000000000E+00 0.  1.
          6    1    1    2  501    0  0.33978650344E+02  0.59850046587E+02  0.45491070267E+03  0.49153771387E+03  0.17300000000E+03 0.  1.
         -6    1    1    2    0  502 -0.33978650344E+02 -0.59850046587E+02  0.91891609238E+03  0.93758858867E+03  0.17300000000E+03 0. -1.
</event>
<event>
 4    1  0.5758867E+000  0.1000000E+03  0.7546771E-02  0.1280296E+00
         21   -1    0    0  503  502  0.00000000000E+00  0.00000000000E+00  0.22101349999E+04  0.22101349999E+04  0.00000000000E+00 0. -1.
         21   -1    0    0  501  503 -0.00000000000E+00 -0.00000000000E+00 -0.71303740318E+02  0.71303740318E+02  0.00000000000E+00 0. -1.
          6    1    1    2  501    0  0.50030432430E+02  0.14664703070E+03  0.14428036256E+03  0.27341217750E+03  0.17300000000E+03 0. -1.
         -6    1    1    2    0  502 -0.50030432430E+02 -0.14664703070E+03  0.19945508970E+04  0.20080265627E+04  0.17300000000E+03 0. -1.
</event>
<event>
 4    1  0.5758867E+000  0.1000000E+03  0.7546771E-02  0.1280296E+00
         21   -1    0    0  503  502  0.00000000000E+00  0.00000000000E+00  0.99469905766E+03  0.99469905766E+03  0.00000000000E+00 0. -1.
         21   -1    0    0  501  503 -0.00000000000E+00 -0.00000000000E+00 -0.35988838940E+02  0.35988838940E+02  0.00000000000E+00 0. -1.
          6    1    1    2  501    0 -0.43303334870E+02 -0.52789801337E+02  0.38472201619E+03  0.42731951942E+03  0.17300000000E+03 0. -1.
         -6    1    1    2    0  502  0.43303334870E+02  0.52789801337E+02  0.57398820253E+03  0.60336837718E+03  0.17300000000E+03 0. -1.
</event>
<event>
 4    1  0.5758867E+000  0.1000000E+03  0.7546771E-02  0.1280296E+00
         21   -1    0    0  503  502  0.00000000000E+00  0.00000000000E+00  0.72740953888E+02  0.72740953888E+02  0.00000000000E+00 0. -1.
         21   -1    0    0  501  503 -0.00000000000E+00 -0.00000000000E+00 -0.44491292990E+03  0.44491292990E+03  0.00000000000E+00 0. -1.
          6    1    1    2  501    0 -0.13998297643E+02  0.43006472763E+02 -0.15771389816E+03  0.23842856941E+03  0.17300000000E+03 0. -1.
         -6    1    1    2    0  502  0.13998297643E+02 -0.43006472763E+02 -0.21445807785E+03  0.27922531438E+03  0.17300000000E+03 0. -1.
</event>
<event>
 4    1  0.5758867E+000  0.1000000E+03  0.7546771E-02  0.1280296E+00
         21   -1    0    0  503  502  0.00000000000E+00  0.00000000000E+00  0.48434216126E+03  0.48434216126E+03  0.00000000000E+00 0.  1.
         21   -1    0    0  501  503 -0.00000000000E+00 -0.00000000000E+00 -0.19772625366E+03  0.19772625366E+03  0.00000000000E+00 0.  1.
          6    1    1    2  501    0 -0.29391999200E+02  0.34505948980E+02 -0.13501189987E+03  0.22407981444E+03  0.17300000000E+03 0.  1.
         -6    1    1    2    0  502  0.29391999200E+02 -0.34505948980E+02  0.42162780747E+03  0.45798860048E+03  0.17300000000E+03 0.  1.
</event>
<event>
 4    1  0.5758867E+000  0.1000000E+03  0.7546771E-02  0.1280296E+00
         21   -1    0    0  503  502  0.00000000000E+00  0.00000000000E+00  0.48382585166E+02  0.48382585166E+02  0.00000000000E+00 0.  1.
         21   -1    0    0  501  503 -0.00000000000E+00 -0.00000000000E+00 -0.10274262847E+04  0.10274262847E+04  0.00000000000E+00 0.  1.
          6    1    1    2  501    0 -0.13127551955E+03  0.37293415394E+02 -0.57156722453E+03  0.61257012090E+03  0.17300000000E+03 0.  1.
         -6    1    1    2    0  502  0.13127551955E+03 -0.37293415394E+02 -0.40747647504E+03  0.46323874900E+03  0.17300000000E+03 0.  1.
</event>
<event>
 4    1  0.5758867E+000  0.1000000E+03  0.7546771E-02  0.1280296E+00
         21   -1    0    0  503  502  0.00000000000E+00  0.00000000000E+00  0.17735039963E+04  0.17735039963E+04  0.00000000000E+00 0.  1.
         21   -1    0    0  501  503 -0.00000000000E+00 -0.00000000000E+00 -0.23979427316E+02  0.23979427316E+02  0.00000000000E+00 0. -1.
          6    1    1    2  501    0  0.44139085352E+02  0.28947818697E+02  0.44305787933E+03  0.47855565977E+03  0.17300000000E+03 0.  1.
         -6    1    1    2    0  502 -0.44139085352E+02 -0.28947818697E+02  0.13064666896E+04  0.13189277638E+04  0.17300000000E+03 0. -1.
</event>
<event>
 4    1  0.5758867E+000  0.1000000E+03  0.7546771E-02  0.1280296E+00
         21   -1    0    0  503  502  0.00000000000E+00  0.00000000000E+00  0.15165307900E+04  0.15165307900E+04  0.00000000000E+00 0.  1.
         21   -1    0    0  501  503 -0.00000000000E+00 -0.00000000000E+00 -0.11804987651E+03  0.11804987651E+03  0.00000000000E+00 0. -1.
          6    1    1    2  501    0  0.32612481222E+02 -0.55134855921E+02 -0.36276624124E+02  0.18801175422E+03  0.17300000000E+03 0.  1.
         -6    1    1    2    0  502 -0.32612481222E+02  0.55134855921E+02  0.14347575376E+04  0.14465689123E+04  0.17300000000E+03 0. -1.
</event>
<event>
 4    1  0.5758867E+000  0.1000000E+03  0.7546771E-02  0.1280296E+00
         21   -1    0    0  503  502  0.00000000000E+00  0.00000000000E+00  0.79183549860E+03  0.79183549860E+03  0.00000000000E+00 0.  1.
         21   -1    0    0  501  503 -0.00000000000E+00 -0.00000000000E+00 -0.13932091217E+03  0.13932091217E+03  0.00000000000E+00 0. -1.
          6    1    1    2  501    0  0.76279028199E+02  0.22689083875E+02 -0.55203530010E+02  0.19826677582E+03  0.17300000000E+03 0.  1.
         -6    1    1    2    0  502 -0.76279028199E+02 -0.22689083875E+02  0.70771811644E+03  0.73288963495E+03  0.17300000000E+03 0. -1.
</event>
<event>
 4    1  0.5758867E+000  0.1000000E+03  0.7546771E-02  0.1280296E+00
         21   -1    0    0  503  502  0.00000000000E+00  0.00000000000E+00  0.87438022681E+03  0.87438022681E+03  0.00000000000E+00 0.  1.
         21   -1    0    0  501  503 -0.00000000000E+00 -0.00000000000E+00 -0.47820843598E+02  0.47820843598E+02  0.00000000000E+00 0. -1.
          6    1    1    2  501    0 -0.88573791056E+02 -0.61138175118E+02  0.45242805612E+03  0.49618881374E+03  0.17300000000E+03 0.  1.
         -6    1    1    2    0  502  0.88573791056E+02  0.61138175118E+02  0.37413132710E+03  0.42601225667E+03  0.17300000000E+03 0. -1.
</event>
<event>
 4    1  0.5758867E+000  0.1000000E+03  0.7546771E-02  0.1280296E+00
         21   -1    0    0  503  502  0.00000000000E+00  0.00000000000E+00  0.44540681539E+02  0.44540681539E+02  0.00000000000E+00 0.  1.
         21   -1    0    0  501  503 -0.00000000000E+00 -0.00000000000E+00 -0.11914343993E+04  0.11914343993E+04  0.00000000000E+00 0. -1.
          6    1    1    2  501    0  0.53675008547E+02 -0.12223991369E+03 -0.76901832075E+03  0.79946343300E+03  0.17300000000E+03 0.  1.
         -6    1    1    2    0  502 -0.53675008547E+02  0.12223991369E+03 -0.37787539703E+03  0.43651164786E+03  0.17300000000E+03 0. -1.
</event>
<event>
 4    1  0.5758867E+000  0.1000000E+03  0.7546771E-02  0.1280296E+00
         21   -1    0    0  503  502  0.00000000000E+00  0.00000000000E+00  0.19020304896E+03  0.19020304896E+03  0.00000000000E+00 0.  1.
         21   -1    0    0  501  503 -0.00000000000E+00 -0.00000000000E+00 -0.30388622056E+03  0.30388622056E+03  0.00000000000E+00 0. -1.
          6    1    1    2  501    0  0.14328607441E+03 -0.77648987637E+02 -0.94045011189E+02  0.25560463323E+03  0.17300000000E+03 0.  1.
         -6    1    1    2    0  502 -0.14328607441E+03  0.77648987637E+02 -0.19638160417E+02  0.23848463629E+03  0.17300000000E+03 0. -1.
</event>
<event>
 4    1  0.5758867E+000  0.1000000E+03  0.7546771E-02  0.1280296E+00
         21   -1    0    0  503  502  0.00000000000E+00  0.00000000000E+00  0.12994766911E+03  0.12994766911E+03  0.00000000000E+00 0.  1.
         21   -1    0    0  501  503 -0.00000000000E+00 -0.00000000000E+00 -0.44692283170E+03  0.44692283170E+03  0.00000000000E+00 0.  1.
          6    1    1    2  501    0 -0.11897837121E+03  0.10282068368E+03 -0.22847784973E+03  0.32689306145E+03  0.17300000000E+03 0.  1.
         -6    1    1    2    0  502  0.11897837121E+03 -0.10282068368E+03 -0.88497312864E+02  0.24997743937E+03  0.17300000000E+03 0.  1.
</event>
<event>
 4    1  0.5758867E+000  0.1000000E+03  0.7546771E-02  0.1280296E+00
         21   -1    0    0  503  502  0.00000000000E+00  0.00000000000E+00  0.77752678441E+02  0.77752678441E+02  0.00000000000E+00 0.  1.
         21   -1    0    0  501  503 -0.00000000000E+00 -0.00000000000E+00 -0.50828954478E+03  0.50828954478E+03  0.00000000000E+00 0.  1.
          6    1    1    2  501    0 -0.89671936444E+02 -0.35522948357E+02 -0.24032303978E+03  0.31142751884E+03  0.17300000000E+03 0.  1.
         -6    1    1    2    0  502  0.89671936444E+02  0.35522948357E+02 -0.19021382657E+03  0.27461470438E+03  0.17300000000E+03 0.  1.
</event>
<event>
 4    1  0.5758867E+000  0.1000000E+03  0.7546771E-02  0.1280296E+00
         21   -1    0    0  503  502  0.00000000000E+00  0.00000000000E+00  0.10367318891E+03  0.10367318891E+03  0.00000000000E+00 0.  1.
         21   -1    0    0  501  503 -0.00000000000E+00 -0.00000000000E+00 -0.34971195213E+03  0.34971195213E+03  0.00000000000E+00 0.  1.
          6    1    1    2  501    0 -0.51505188544E+02 -0.16261511818E+02 -0.19253721208E+03  0.26441784972E+03  0.17300000000E+03 0.  1.
         -6    1    1    2    0  502  0.51505188544E+02  0.16261511818E+02 -0.53501551140E+02  0.18896729132E+03  0.17300000000E+03 0.  1.
</event>
<event>
 4    1  0.5758867E+000  0.1000000E+03  0.7546771E-02  0.1280296E+00
         21   -1    0    0  501  502  0.00000000000E+00  0.00000000000E+00  0.27133738665E+03  0.27133738665E+03  0.00000000000E+00 0. -1.
         21   -1    0    0  502  503 -0.00000000000E+00 -0.00000000000E+00 -0.19254444140E+03  0.19254444140E+03  0.00000000000E+00 0. -1.
          6    1    1    2  501    0  0.77374773978E+01  0.44360037934E+01  0.19071251835E+03  0.25764279796E+03  0.17300000000E+03 0. -1.
         -6    1    1    2    0  503 -0.77374773978E+01 -0.44360037934E+01 -0.11191957310E+03  0.20623903008E+03  0.17300000000E+03 0. -1.
</event>
<event>
 4    1  0.5758867E+000  0.1000000E+03  0.7546771E-02  0.1280296E+00
         21   -1    0    0  501  502  0.00000000000E+00  0.00000000000E+00  0.16800556555E+03  0.16800556555E+03  0.00000000000E+00 0. -1.
         21   -1    0    0  502  503 -0.00000000000E+00 -0.00000000000E+00 -0.20104764103E+03  0.20104764103E+03  0.00000000000E+00 0.  1.
          6    1    1    2  501    0 -0.22337371426E+02 -0.95932446064E+01  0.40780395359E+02  0.17939629079E+03  0.17300000000E+03 0.  1.
         -6    1    1    2    0  503  0.22337371426E+02  0.95932446064E+01 -0.73822470843E+02  0.18965691579E+03  0.17300000000E+03 0. -1.
</event>
<event>
 4    1  0.5758867E+000  0.1000000E+03  0.7546771E-02  0.1280296E+00
         21   -1    0    0  501  502  0.00000000000E+00  0.00000000000E+00  0.33111831082E+03  0.33111831082E+03  0.00000000000E+00 0. -1.
         21   -1    0    0  502  503 -0.00000000000E+00 -0.00000000000E+00 -0.23959686580E+03  0.23959686580E+03  0.00000000000E+00 0.  1.
          6    1    1    2  501    0  0.54948048191E+02 -0.77084156753E+02  0.24950612807E+03  0.31803075821E+03  0.17300000000E+03 0.  1.
         -6    1    1    2    0  503 -0.54948048191E+02  0.77084156753E+02 -0.15798468306E+03  0.25268441840E+03  0.17300000000E+03 0. -1.
</event>
<event>
 4    1  0.5758867E+000  0.1000000E+03  0.7546771E-02  0.1280296E+00
         21   -1    0    0  501  502  0.00000000000E+00  0.00000000000E+00  0.78891538429E+03  0.78891538429E+03  0.00000000000E+00 0. -1.
         21   -1    0    0  502  503 -0.00000000000E+00 -0.00000000000E+00 -0.11265048248E+03  0.11265048248E+03  0.00000000000E+00 0.  1.
          6    1    1    2  501    0 -0.52955638678E+02  0.74361660314E+01  0.69623032256E+03  0.71939228401E+03  0.17300000000E+03 0.  1.
         -6    1    1    2    0  503  0.52955638678E+02 -0.74361660314E+01 -0.19965420756E+02  0.18217358277E+03  0.17300000000E+03 0. -1.
</event>
<event>
 4    1  0.5758867E+000  0.1000000E+03  0.7546771E-02  0.1280296E+00
         21   -1    0    0  501  502  0.00000000000E+00  0.00000000000E+00  0.10891830019E+04  0.10891830019E+04  0.00000000000E+00 0. -1.
         21   -1    0    0  502  503 -0.00000000000E+00 -0.00000000000E+00 -0.11281237724E+03  0.11281237724E+03  0.00000000000E+00 0.  1.
          6    1    1    2  501    0 -0.15148873877E+03  0.72520251972E+01  0.94162110406E+03  0.96931972716E+03  0.17300000000E+03 0.  1.
         -6    1    1    2    0  503  0.15148873877E+03 -0.72520251972E+01  0.34749520604E+02  0.23267565199E+03  0.17300000000E+03 0. -1.
</event>
<event>
 4    1  0.5758867E+000  0.1000000E+03  0.7546771E-02  0.1280296E+00
         21   -1    0    0  503  502  0.00000000000E+00  0.00000000000E+00  0.14080026913E+04  0.14080026913E+04  0.00000000000E+00 0.  1.
         21   -1    0    0  501  503 -0.00000000000E+00 -0.00000000000E+00 -0.25094002096E+02  0.25094002096E+02  0.00000000000E+00 0.  1.
          6    1    1    2  501    0 -0.30821996798E+02 -0.57016841942E+02  0.82364554597E+03  0.84411012382E+03  0.17300000000E+03 0.  1.
         -6    1    1    2    0  502  0.30821996798E+02  0.57016841942E+02  0.55926314322E+03  0.58898656955E+03  0.17300000000E+03 0.  1.
</event>
<event>
 4    1  0.5758867E+000  0.1000000E+03  0.7546771E-02  0.1280296E+00
         21   -1    0    0  503  502  0.00000000000E+00  0.00000000000E+00  0.12888521519E+04  0.12888521519E+04  0.00000000000E+00 0.  1.
         21   -1    0    0  501  503 -0.00000000000E+00 -0.00000000000E+00 -0.11135316776E+03  0.11135316776E+03  0.00000000000E+00 0.  1.
          6    1    1    2  501    0  0.98366138252E+01 -0.15417901264E+03  0.35201140679E+02  0.23459762832E+03  0.17300000000E+03 0.  1.
         -6    1    1    2    0  502 -0.98366138252E+01  0.15417901264E+03  0.11422978435E+04  0.11656076913E+04  0.17300000000E+03 0.  1.
</event>
<event>
 4    1  0.5758867E+000  0.1000000E+03  0.7546771E-02  0.1280296E+00
         21   -1    0    0  503  502  0.00000000000E+00  0.00000000000E+00  0.49601958500E+03  0.49601958500E+03  0.00000000000E+00 0.  1.
         21   -1    0    0  501  503 -0.00000000000E+00 -0.00000000000E+00 -0.10160231571E+03  0.10160231571E+03  0.00000000000E+00 0.  1.
          6    1    1    2  501    0 -0.51735528295E+02  0.12305783082E+03  0.12871508407E+03  0.25360671813E+03  0.17300000000E+03 0.  1.
         -6    1    1    2    0  502  0.51735528295E+02 -0.12305783082E+03  0.26570218522E+03  0.34401518258E+03  0.17300000000E+03 0.  1.
</event>
<event>
 4    1  0.5758867E+000  0.1000000E+03  0.7546771E-02  0.1280296E+00
         21   -1    0    0  503  502  0.00000000000E+00  0.00000000000E+00  0.15586498728E+04  0.15586498728E+04  0.00000000000E+00 0.  1.
         21   -1    0    0  501  503 -0.00000000000E+00 -0.00000000000E+00 -0.13956341428E+03  0.13956341428E+03  0.00000000000E+00 0.  1.
          6    1    1    2  501    0  0.92455226659E+02  0.32971202985E+03  0.22669108079E+03  0.44561848893E+03  0.17300000000E+03 0.  1.
         -6    1    1    2    0  502 -0.92455226659E+02 -0.32971202985E+03  0.11923953778E+04  0.12525947982E+04  0.17300000000E+03 0.  1.
</event>
<event>
 4    1  0.5758867E+000  0.1000000E+03  0.7546771E-02  0.1280296E+00
         21   -1    0    0  503  502  0.00000000000E+00  0.00000000000E+00  0.26816409144E+03  0.26816409144E+03  0.00000000000E+00 0.  1.
         21   -1    0    0  501  503 -0.00000000000E+00 -0.00000000000E+00 -0.14556517461E+03  0.14556517461E+03  0.00000000000E+00 0.  1.
          6    1    1    2  501    0 -0.70309943304E+01  0.94793912913E+02  0.52475078972E+02  0.20424973616E+03  0.17300000000E+03 0.  1.
         -6    1    1    2    0  502  0.70309943304E+01 -0.94793912913E+02  0.70123837865E+02  0.20947952989E+03  0.17300000000E+03 0.  1.
</event>
<event>
 4    1  0.5758867E+000  0.1000000E+03  0.7546771E-02  0.1280296E+00
         21   -1    0    0  501  502  0.00000000000E+00  0.00000000000E+00  0.11019114444E+04  0.11019114444E+04  0.00000000000E+00 0. -1.
         21   -1    0    0  502  503 -0.00000000000E+00 -0.00000000000E+00 -0.10791196596E+03  0.10791196596E+03  0.00000000000E+00 0. -1.
          6    1    1    2  501    0 -0.13103618088E+03  0.88735634373E+02  0.94056380481E+03  0.96934708150E+03  0.17300000000E+03 0. -1.
         -6    1    1    2    0  503  0.13103618088E+03 -0.88735634373E+02  0.53435673584E+02  0.24047632881E+03  0.17300000000E+03 0. -1.
</event>
<event>
 4    1  0.5758867E+000  0.1000000E+03  0.7546771E-02  0.1280296E+00
         21   -1    0    0  501  502  0.00000000000E+00  0.00000000000E+00  0.31467589106E+03  0.31467589106E+03  0.00000000000E+00 0. -1.
         21   -1    0    0  502  503 -0.00000000000E+00 -0.00000000000E+00 -0.19017870795E+03  0.19017870795E+03  0.00000000000E+00 0. -1.
          6    1    1    2  501    0  0.16717677414E+03  0.30950293751E+02  0.29460873564E+02  0.24434184571E+03  0.17300000000E+03 0. -1.
         -6    1    1    2    0  503 -0.16717677414E+03 -0.30950293751E+02  0.95036309547E+02  0.26051275329E+03  0.17300000000E+03 0. -1.
</event>
<event>
 4    1  0.5758867E+000  0.1000000E+03  0.7546771E-02  0.1280296E+00
         21   -1    0    0  503  502  0.00000000000E+00  0.00000000000E+00  0.10266510425E+04  0.10266510425E+04  0.00000000000E+00 0.  1.
         21   -1    0    0  501  503 -0.00000000000E+00 -0.00000000000E+00 -0.59080057611E+03  0.59080057611E+03  0.00000000000E+00 0. -1.
          6    1    1    2  501    0 -0.48166270270E+02  0.47581363740E+03 -0.39456003915E+03  0.64368100145E+03  0.17300000000E+03 0. -1.
         -6    1    1    2    0  502  0.48166270270E+02 -0.47581363740E+03  0.83041050550E+03  0.97377061712E+03  0.17300000000E+03 0.  1.
</event>
<event>
 4    1  0.5758867E+000  0.1000000E+03  0.7546771E-02  0.1280296E+00
         21   -1    0    0  501  502  0.00000000000E+00  0.00000000000E+00  0.11570285053E+04  0.11570285053E+04  0.00000000000E+00 0. -1.
         21   -1    0    0  502  503 -0.00000000000E+00 -0.00000000000E+00 -0.46016483082E+02  0.46016483082E+02  0.00000000000E+00 0.  1.
          6    1    1    2  501    0 -0.92679241405E+02 -0.49193860457E+02  0.84467027170E+03  0.86856568294E+03  0.17300000000E+03 0.  1.
         -6    1    1    2    0  503  0.92679241405E+02  0.49193860457E+02  0.26634175050E+03  0.33447930542E+03  0.17300000000E+03 0.  1.
</event>
<event>
 4    1  0.5758867E+000  0.1000000E+03  0.7546771E-02  0.1280296E+00
         21   -1    0    0  501  502  0.00000000000E+00  0.00000000000E+00  0.91282253346E+03  0.91282253346E+03  0.00000000000E+00 0. -1.
         21   -1    0    0  502  503 -0.00000000000E+00 -0.00000000000E+00 -0.65392149494E+02  0.65392149494E+02  0.00000000000E+00 0.  1.
          6    1    1    2  501    0 -0.51159362166E+02  0.91215974712E+02  0.69838650634E+03  0.72705594463E+03  0.17300000000E+03 0.  1.
         -6    1    1    2    0  503  0.51159362166E+02 -0.91215974712E+02  0.14904387762E+03  0.25115873833E+03  0.17300000000E+03 0.  1.
</event>
<event>
 4    1  0.5758867E+000  0.1000000E+03  0.7546771E-02  0.1280296E+00
         21   -1    0    0  501  502  0.00000000000E+00  0.00000000000E+00  0.11582010536E+04  0.11582010536E+04  0.00000000000E+00 0. -1.
         21   -1    0    0  502  503 -0.00000000000E+00 -0.00000000000E+00 -0.38507327980E+02  0.38507327980E+02  0.00000000000E+00 0.  1.
          6    1    1    2  501    0 -0.10045360278E+03  0.65157093445E+02  0.50807742904E+03  0.54991640005E+03  0.17300000000E+03 0.  1.
         -6    1    1    2    0  503  0.10045360278E+03 -0.65157093445E+02  0.61161629661E+03  0.64679198156E+03  0.17300000000E+03 0.  1.
</event>
<event>
 4    1  0.5758867E+000  0.1000000E+03  0.7546771E-02  0.1280296E+00
         21   -1    0    0  501  502  0.00000000000E+00  0.00000000000E+00  0.39287604342E+03  0.39287604342E+03  0.00000000000E+00 0. -1.
         21   -1    0    0  502  503 -0.00000000000E+00 -0.00000000000E+00 -0.36171256111E+03  0.36171256111E+03  0.00000000000E+00 0.  1.
          6    1    1    2  501    0 -0.17078941649E+03 -0.10750320460E+03  0.28311737117E+03  0.38834315965E+03  0.17300000000E+03 0.  1.
         -6    1    1    2    0  503  0.17078941649E+03  0.10750320460E+03 -0.25195388886E+03  0.36624544488E+03  0.17300000000E+03 0.  1.
</event>
<event>
 4    1  0.5758867E+000  0.1000000E+03  0.7546771E-02  0.1280296E+00
         21   -1    0    0  503  502  0.00000000000E+00  0.00000000000E+00  0.11227545292E+03  0.11227545292E+03  0.00000000000E+00 0.  1.
         21   -1    0    0  501  503 -0.00000000000E+00 -0.00000000000E+00 -0.60615132218E+03  0.60615132218E+03  0.00000000000E+00 0.  1.
          6    1    1    2  501    0  0.15457140152E+03 -0.82928733180E+02 -0.36504677076E+03  0.44040621907E+03  0.17300000000E+03 0.  1.
         -6    1    1    2    0  502 -0.15457140152E+03  0.82928733180E+02 -0.12882909850E+03  0.27802055603E+03  0.17300000000E+03 0.  1.
</event>
<event>
 4    1  0.5758867E+000  0.1000000E+03  0.7546771E-02  0.1280296E+00
         21   -1    0    0  503  502  0.00000000000E+00  0.00000000000E+00  0.63467522739E+03  0.63467522739E+03  0.00000000000E+00 0.  1.
         21   -1    0    0  501  503 -0.00000000000E+00 -0.00000000000E+00 -0.13070066858E+03  0.13070066858E+03  0.00000000000E+00 0.  1.
          6    1    1    2  501    0 -0.10473365324E+03  0.69956193838E+02 -0.41487674363E+01  0.21403088433E+03  0.17300000000E+03 0.  1.
         -6    1    1    2    0  502  0.10473365324E+03 -0.69956193838E+02  0.50812332624E+03  0.55134501163E+03  0.17300000000E+03 0.  1.
</event>
<event>
 4    1  0.5758867E+000  0.1000000E+03  0.7546771E-02  0.1280296E+00
         21   -1    0    0  503  502  0.00000000000E+00  0.00000000000E+00  0.51311321242E+02  0.51311321242E+02  0.00000000000E+00 0.  1.
         21   -1    0    0  501  503 -0.00000000000E+00 -0.00000000000E+00 -0.59856861138E+03  0.59856861138E+03  0.00000000000E+00 0.  1.
          6    1    1    2  501    0  0.11206661895E+01  0.46972012980E+01 -0.22247936647E+03  0.28186767835E+03  0.17300000000E+03 0.  1.
         -6    1    1    2    0  502 -0.11206661895E+01 -0.46972012980E+01 -0.32477792367E+03  0.36801225428E+03  0.17300000000E+03 0.  1.
</event>
<event>
 4    1  0.5758867E+000  0.1000000E+03  0.7546771E-02  0.1280296E+00
         21   -1    0    0  501  502  0.00000000000E+00  0.00000000000E+00  0.81761285823E+03  0.81761285823E+03  0.00000000000E+00 0. -1.
         21   -1    0    0  502  503 -0.00000000000E+00 -0.00000000000E+00 -0.83017895645E+02  0.83017895645E+02  0.00000000000E+00 0.  1.
          6    1    1    2  501    0 -0.51185777399E+02  0.18468484157E+03  0.30694942804E+03  0.40109278962E+03  0.17300000000E+03 0. -1.
         -6    1    1    2    0  503  0.51185777399E+02 -0.18468484157E+03  0.42764553454E+03  0.49953796425E+03  0.17300000000E+03 0.  1.
</event>
<event>
 4    1  0.5758867E+000  0.1000000E+03  0.7546771E-02  0.1280296E+00
         21   -1    0    0  501  502  0.00000000000E+00  0.00000000000E+00  0.63217355369E+02  0.63217355369E+02  0.00000000000E+00 0. -1.
         21   -1    0    0  502  503 -0.00000000000E+00 -0.00000000000E+00 -0.14163935655E+04  0.14163935655E+04  0.00000000000E+00 0.  1.
          6    1    1    2  501    0 -0.20372598477E+03  0.28322041082E+02 -0.35135389754E+03  0.44236294623E+03  0.17300000000E+03 0. -1.
         -6    1    1    2    0  503  0.20372598477E+03 -0.28322041082E+02 -0.10018223126E+04  0.10372479746E+04  0.17300000000E+03 0.  1.
</event>
<event>
 4    1  0.5758867E+000  0.1000000E+03  0.7546771E-02  0.1280296E+00
         21   -1    0    0  503  502  0.00000000000E+00  0.00000000000E+00  0.13265605186E+03  0.13265605186E+03  0.00000000000E+00 0. -1.
         21   -1    0    0  501  503 -0.00000000000E+00 -0.00000000000E+00 -0.65943821251E+03  0.65943821251E+03  0.00000000000E+00 0. -1.
          6    1    1    2  501    0  0.11984719154E+02  0.60181908065E+02 -0.57393478457E+03  0.60257417178E+03  0.17300000000E+03 0. -1.
         -6    1    1    2    0  502 -0.11984719154E+02 -0.60181908065E+02  0.47152623924E+02  0.18952009259E+03  0.17300000000E+03 0. -1.
</event>
<event>
 4    1  0.5758867E+000  0.1000000E+03  0.7546771E-02  0.1280296E+00
         21   -1    0    0  503  502  0.00000000000E+00  0.00000000000E+00  0.48617518649E+03  0.48617518649E+03  0.00000000000E+00 0. -1.
         21   -1    0    0  501  503 -0.00000000000E+00 -0.00000000000E+00 -0.87561846888E+02  0.87561846888E+02  0.00000000000E+00 0. -1.
          6    1    1    2  501    0  0.23271377836E+02  0.41966365069E+02  0.57935368441E+02  0.18864845544E+03  0.17300000000E+03 0. -1.
         -6    1    1    2    0  502 -0.23271377836E+02 -0.41966365069E+02  0.34067797116E+03  0.38508857794E+03  0.17300000000E+03 0. -1.
</event>
<event>
 4    1  0.5758867E+000  0.1000000E+03  0.7546771E-02  0.1280296E+00
         21   -1    0    0  503  502  0.00000000000E+00  0.00000000000E+00  0.12398185497E+04  0.12398185497E+04  0.00000000000E+00 0. -1.
         21   -1    0    0  501  503 -0.00000000000E+00 -0.00000000000E+00 -0.25960350174E+02  0.25960350174E+02  0.00000000000E+00 0. -1.
          6    1    1    2  501    0 -0.53863992518E+01 -0.46977750573E+02  0.62317243955E+03  0.64846650781E+03  0.17300000000E+03 0. -1.
         -6    1    1    2    0  502  0.53863992518E+01  0.46977750573E+02  0.59068575994E+03  0.61731239202E+03  0.17300000000E+03 0. -1.
</event>
<event>
 4    1  0.5758867E+000  0.1000000E+03  0.7546771E-02  0.1280296E+00
         21   -1    0    0  503  502  0.00000000000E+00  0.00000000000E+00  0.11574076627E+03  0.11574076627E+03  0.00000000000E+00 0. -1.
         21   -1    0    0  501  503 -0.00000000000E+00 -0.00000000000E+00 -0.52750954292E+03  0.52750954292E+03  0.00000000000E+00 0. -1.
          6    1    1    2  501    0 -0.11251587506E+03  0.17864215873E+01 -0.38274662185E+03  0.43484133886E+03  0.17300000000E+03 0. -1.
         -6    1    1    2    0  502  0.11251587506E+03 -0.17864215873E+01 -0.29022154792E+02  0.20840897033E+03  0.17300000000E+03 0. -1.
</event>
<event>
 4    1  0.5758867E+000  0.1000000E+03  0.7546771E-02  0.1280296E+00
         21   -1    0    0  503  502  0.00000000000E+00  0.00000000000E+00  0.19996507709E+03  0.19996507709E+03  0.00000000000E+00 0. -1.
         21   -1    0    0  501  503 -0.00000000000E+00 -0.00000000000E+00 -0.60019372356E+03  0.60019372356E+03  0.00000000000E+00 0. -1.
          6    1    1    2  501    0 -0.25150225194E+03  0.10240120922E+03 -0.52450463574E+02  0.32621992813E+03  0.17300000000E+03 0. -1.
         -6    1    1    2    0  502  0.25150225194E+03 -0.10240120922E+03 -0.34777818289E+03  0.47393887251E+03  0.17300000000E+03 0. -1.
</event>
<event>
 4    1  0.5758867E+000  0.1000000E+03  0.7546771E-02  0.1280296E+00
         21   -1    0    0  503  502  0.00000000000E+00  0.00000000000E+00  0.57705116323E+03  0.57705116323E+03  0.00000000000E+00 0. -1.
         21   -1    0    0  501  503 -0.00000000000E+00 -0.00000000000E+00 -0.56575084186E+02  0.56575084186E+02  0.00000000000E+00 0. -1.
          6    1    1    2  501    0 -0.34286958386E+00 -0.52120754479E+02  0.26201542280E+03  0.31827310975E+03  0.17300000000E+03 0. -1.
         -6    1    1    2    0  502  0.34286958386E+00  0.52120754479E+02  0.25846065624E+03  0.31535313766E+03  0.17300000000E+03 0. -1.
</event>
<event>
 4    1  0.5758867E+000  0.1000000E+03  0.7546771E-02  0.1280296E+00
         21   -1    0    0  501  502  0.00000000000E+00  0.00000000000E+00  0.13737569240E+03  0.13737569240E+03  0.00000000000E+00 0. -1.
         21   -1    0    0  502  503 -0.00000000000E+00 -0.00000000000E+00 -0.44417938726E+03  0.44417938726E+03  0.00000000000E+00 0. -1.
          6    1    1    2  501    0 -0.74358244717E+02 -0.66386243410E+02  0.17806405310E+02  0.20045535648E+03  0.17300000000E+03 0. -1.
         -6    1    1    2    0  503  0.74358244717E+02  0.66386243410E+02 -0.32461010017E+03  0.38109972317E+03  0.17300000000E+03 0. -1.
</event>
<event>
 4    1  0.5758867E+000  0.1000000E+03  0.7546771E-02  0.1280296E+00
         21   -1    0    0  501  502  0.00000000000E+00  0.00000000000E+00  0.22604826535E+03  0.22604826535E+03  0.00000000000E+00 0. -1.
         21   -1    0    0  502  503 -0.00000000000E+00 -0.00000000000E+00 -0.19157098592E+03  0.19157098592E+03  0.00000000000E+00 0. -1.
          6    1    1    2  501    0 -0.80155659894E+02  0.48888694331E+02  0.84999609564E+02  0.21440374967E+03  0.17300000000E+03 0. -1.
         -6    1    1    2    0  503  0.80155659894E+02 -0.48888694331E+02 -0.50522330132E+02  0.20321550159E+03  0.17300000000E+03 0. -1.
</event>
<event>
 4    1  0.5758867E+000  0.1000000E+03  0.7546771E-02  0.1280296E+00
         21   -1    0    0  503  502  0.00000000000E+00  0.00000000000E+00  0.19208550170E+04  0.19208550170E+04  0.00000000000E+00 0.  1.
         21   -1    0    0  501  503 -0.00000000000E+00 -0.00000000000E+00 -0.16900000160E+02  0.16900000160E+02  0.00000000000E+00 0.  1.
          6    1    1    2  501    0  0.23820701552E+02 -0.29365659934E+02  0.11306263743E+04  0.11444102263E+04  0.17300000000E+03 0.  1.
         -6    1    1    2    0  502 -0.23820701552E+02  0.29365659934E+02  0.77332864257E+03  0.79334479088E+03  0.17300000000E+03 0.  1.
</event>
<event>
 4    1  0.5758867E+000  0.1000000E+03  0.7546771E-02  0.1280296E+00
         21   -1    0    0  503  502  0.00000000000E+00  0.00000000000E+00  0.12636877383E+03  0.12636877383E+03  0.00000000000E+00 0.  1.
         21   -1    0    0  501  503 -0.00000000000E+00 -0.00000000000E+00 -0.33829417286E+03  0.33829417286E+03  0.00000000000E+00 0.  1.
          6    1    1    2  501    0 -0.47152253614E+01 -0.34716151869E+02 -0.22695168891E+03  0.28751263216E+03  0.17300000000E+03 0.  1.
         -6    1    1    2    0  502  0.47152253614E+01  0.34716151869E+02  0.15026289876E+02  0.17715031453E+03  0.17300000000E+03 0.  1.
</event>
<event>
 4    1  0.5758867E+000  0.1000000E+03  0.7546771E-02  0.1280296E+00
         21   -1    0    0  503  502  0.00000000000E+00  0.00000000000E+00  0.12386127420E+03  0.12386127420E+03  0.00000000000E+00 0.  1.
         21   -1    0    0  501  503 -0.00000000000E+00 -0.00000000000E+00 -0.29285342833E+03  0.29285342833E+03  0.00000000000E+00 0.  1.
          6    1    1    2  501    0  0.54450462906E+02  0.52746690191E+02 -0.11122929708E+03  0.21919859207E+03  0.17300000000E+03 0.  1.
         -6    1    1    2    0  502 -0.54450462906E+02 -0.52746690191E+02 -0.57762857044E+02  0.19751611046E+03  0.17300000000E+03 0.  1.
</event>
<event>
 4    1  0.5758867E+000  0.1000000E+03  0.7546771E-02  0.1280296E+00
         21   -1    0    0  501  502  0.00000000000E+00  0.00000000000E+00  0.28695184409E+03  0.28695184409E+03  0.00000000000E+00 0.  1.
         21   -1    0    0  502  503 -0.00000000000E+00 -0.00000000000E+00 -0.21425963092E+03  0.21425963092E+03  0.00000000000E+00 0. -1.
          6    1    1    2  501    0 -0.92948831068E+02 -0.89369925064E+02  0.15982667664E+03  0.26851449732E+03  0.17300000000E+03 0. -1.
         -6    1    1    2    0  503  0.92948831068E+02  0.89369925064E+02 -0.87134463466E+02  0.23269697769E+03  0.17300000000E+03 0.  1.
</event>
<event>
 4    1  0.5758867E+000  0.1000000E+03  0.7546771E-02  0.1280296E+00
         21   -1    0    0  501  502  0.00000000000E+00  0.00000000000E+00  0.54729838059E+02  0.54729838059E+02  0.00000000000E+00 0.  1.
         21   -1    0    0  502  503 -0.00000000000E+00 -0.00000000000E+00 -0.64206644855E+03  0.64206644855E+03  0.00000000000E+00 0.  1.
          6    1    1    2  501    0 -0.62256131968E+02  0.82832457144E+01 -0.22751980356E+03  0.29264090476E+03  0.17300000000E+03 0.  1.
         -6    1    1    2    0  503  0.62256131968E+02 -0.82832457144E+01 -0.35981680693E+03  0.40415538185E+03  0.17300000000E+03 0.  1.
</event>
<event>
 4    1  0.5758867E+000  0.1000000E+03  0.7546771E-02  0.1280296E+00
         21   -1    0    0  501  502  0.00000000000E+00  0.00000000000E+00  0.20493236311E+04  0.20493236311E+04  0.00000000000E+00 0.  1.
         21   -1    0    0  502  503 -0.00000000000E+00 -0.00000000000E+00 -0.21120758834E+02  0.21120758834E+02  0.00000000000E+00 0.  1.
          6    1    1    2  501    0 -0.39660686793E+02  0.88654749740E+02  0.70249447424E+03  0.72997268515E+03  0.17300000000E+03 0.  1.
         -6    1    1    2    0  503  0.39660686793E+02 -0.88654749740E+02  0.13257083981E+04  0.13404717048E+04  0.17300000000E+03 0.  1.
</event>
<event>
 4    1  0.5758867E+000  0.1000000E+03  0.7546771E-02  0.1280296E+00
         21   -1    0    0  501  502  0.00000000000E+00  0.00000000000E+00  0.33765472839E+03  0.33765472839E+03  0.00000000000E+00 0.  1.
         21   -1    0    0  502  503 -0.00000000000E+00 -0.00000000000E+00 -0.23416005761E+03  0.23416005761E+03  0.00000000000E+00 0. -1.
          6    1    1    2  501    0  0.17396951366E+03 -0.14346486809E+02  0.19066164676E+03  0.31104995887E+03  0.17300000000E+03 0.  1.
         -6    1    1    2    0  503 -0.17396951366E+03  0.14346486809E+02 -0.87166975979E+02  0.26076482713E+03  0.17300000000E+03 0. -1.
</event>
<event>
 4    1  0.5758867E+000  0.1000000E+03  0.7546771E-02  0.1280296E+00
         21   -1    0    0  501  502  0.00000000000E+00  0.00000000000E+00  0.16030291668E+04  0.16030291668E+04  0.00000000000E+00 0.  1.
         21   -1    0    0  502  503 -0.00000000000E+00 -0.00000000000E+00 -0.25495831209E+02  0.25495831209E+02  0.00000000000E+00 0. -1.
          6    1    1    2  501    0 -0.86946647936E+02 -0.35919908521E+00  0.10229885529E+04  0.10411505309E+04  0.17300000000E+03 0.  1.
         -6    1    1    2    0  503  0.86946647936E+02  0.35919908521E+00  0.55454478268E+03  0.58737446710E+03  0.17300000000E+03 0. -1.
</event>
<event>
 4    1  0.5758867E+000  0.1000000E+03  0.7546771E-02  0.1280296E+00
         21   -1    0    0  501  502  0.00000000000E+00  0.00000000000E+00  0.23632615196E+03  0.23632615196E+03  0.00000000000E+00 0.  1.
         21   -1    0    0  502  503 -0.00000000000E+00 -0.00000000000E+00 -0.66910923445E+03  0.66910923445E+03  0.00000000000E+00 0.  1.
          6    1    1    2  501    0 -0.31346424877E+02  0.24829355099E+03  0.75126078695E+02  0.31337711071E+03  0.17300000000E+03 0.  1.
         -6    1    1    2    0  503  0.31346424877E+02 -0.24829355099E+03 -0.50790916118E+03  0.59205827570E+03  0.17300000000E+03 0.  1.
</event>
<event>
 4    1  0.5758867E+000  0.1000000E+03  0.7546771E-02  0.1280296E+00
         21   -1    0    0  501  502  0.00000000000E+00  0.00000000000E+00  0.16628236501E+04  0.16628236501E+04  0.00000000000E+00 0. -1.
         21   -1    0    0  502  503 -0.00000000000E+00 -0.00000000000E+00 -0.41401015292E+02  0.41401015292E+02  0.00000000000E+00 0. -1.
          6    1    1    2  501    0  0.19394875702E+03  0.35811656272E+02  0.79813648226E+03  0.84014846270E+03  0.17300000000E+03 0. -1.
         -6    1    1    2    0  503 -0.19394875702E+03 -0.35811656272E+02  0.82328615257E+03  0.86407620271E+03  0.17300000000E+03 0. -1.
</event>
<event>
 4    1  0.5758867E+000  0.1000000E+03  0.7546771E-02  0.1280296E+00
         21   -1    0    0  501  502  0.00000000000E+00  0.00000000000E+00  0.13534052895E+03  0.13534052895E+03  0.00000000000E+00 0. -1.
         21   -1    0    0  502  503 -0.00000000000E+00 -0.00000000000E+00 -0.28606401081E+03  0.28606401081E+03  0.00000000000E+00 0. -1.
          6    1    1    2  501    0  0.36476314547E+02  0.35027720859E+02  0.91570863128E+01  0.18047247707E+03  0.17300000000E+03 0. -1.
         -6    1    1    2    0  503 -0.36476314547E+02 -0.35027720859E+02 -0.15988056817E+03  0.24093206268E+03  0.17300000000E+03 0. -1.
</event>
<event>
 4    1  0.5758867E+000  0.1000000E+03  0.7546771E-02  0.1280296E+00
         21   -1    0    0  501  502  0.00000000000E+00  0.00000000000E+00  0.79247799012E+03  0.79247799012E+03  0.00000000000E+00 0. -1.
         21   -1    0    0  502  503 -0.00000000000E+00 -0.00000000000E+00 -0.98425841485E+02  0.98425841485E+02  0.00000000000E+00 0. -1.
          6    1    1    2  501    0 -0.69819239319E+02 -0.74168790342E+02  0.65669516457E+03  0.68669736771E+03  0.17300000000E+03 0. -1.
         -6    1    1    2    0  503  0.69819239319E+02  0.74168790342E+02  0.37356984060E+02  0.20420646390E+03  0.17300000000E+03 0. -1.
</event>
<event>
 4    1  0.5758867E+000  0.1000000E+03  0.7546771E-02  0.1280296E+00
         21   -1    0    0  501  502  0.00000000000E+00  0.00000000000E+00  0.83999757059E+02  0.83999757059E+02  0.00000000000E+00 0. -1.
         21   -1    0    0  502  503 -0.00000000000E+00 -0.00000000000E+00 -0.42777693790E+03  0.42777693790E+03  0.00000000000E+00 0. -1.
          6    1    1    2  501    0  0.56735622903E+02 -0.32490866917E+02 -0.11574863369E+03  0.21817729841E+03  0.17300000000E+03 0. -1.
         -6    1    1    2    0  503 -0.56735622903E+02  0.32490866917E+02 -0.22802854714E+03  0.29359939654E+03  0.17300000000E+03 0. -1.
</event>
<event>
 4    1  0.5758867E+000  0.1000000E+03  0.7546771E-02  0.1280296E+00
         21   -1    0    0  501  502  0.00000000000E+00  0.00000000000E+00  0.50113387651E+03  0.50113387651E+03  0.00000000000E+00 0. -1.
         21   -1    0    0  502  503 -0.00000000000E+00 -0.00000000000E+00 -0.17424191801E+03  0.17424191801E+03  0.00000000000E+00 0. -1.
          6    1    1    2  501    0 -0.17278469617E+03 -0.64523129286E+02  0.33815198657E+03  0.42224821073E+03  0.17300000000E+03 0. -1.
         -6    1    1    2    0  503  0.17278469617E+03  0.64523129286E+02 -0.11260028076E+02  0.25312758379E+03  0.17300000000E+03 0. -1.
</event>
<event>
 4    1  0.5758867E+000  0.1000000E+03  0.7546771E-02  0.1280296E+00
         21   -1    0    0  501  502  0.00000000000E+00  0.00000000000E+00  0.77731823474E+02  0.77731823474E+02  0.00000000000E+00 0.  1.
         21   -1    0    0  502  503 -0.00000000000E+00 -0.00000000000E+00 -0.94791621071E+03  0.94791621071E+03  0.00000000000E+00 0. -1.
          6    1    1    2  501    0  0.10913900816E+03 -0.22817190855E+02 -0.10073487564E+03  0.22914725063E+03  0.17300000000E+03 0.  1.
         -6    1    1    2    0  503 -0.10913900816E+03  0.22817190855E+02 -0.76944951160E+03  0.79650078356E+03  0.17300000000E+03 0. -1.
</event>
<event>
 4    1  0.5758867E+000  0.1000000E+03  0.7546771E-02  0.1280296E+00
         21   -1    0    0  501  502  0.00000000000E+00  0.00000000000E+00  0.30869757231E+03  0.30869757231E+03  0.00000000000E+00 0.  1.
         21   -1    0    0  502  503 -0.00000000000E+00 -0.00000000000E+00 -0.25813790719E+03  0.25813790719E+03  0.00000000000E+00 0. -1.
          6    1    1    2  501    0 -0.26988468355E+02 -0.21258747031E+03  0.87460996396E+02  0.28896407363E+03  0.17300000000E+03 0.  1.
         -6    1    1    2    0  503  0.26988468355E+02  0.21258747031E+03 -0.36901331275E+02  0.27787140588E+03  0.17300000000E+03 0. -1.
</event>
<event>
 4    1  0.5758867E+000  0.1000000E+03  0.7546771E-02  0.1280296E+00
         21   -1    0    0  503  502  0.00000000000E+00  0.00000000000E+00  0.18995199922E+03  0.18995199922E+03  0.00000000000E+00 0.  1.
         21   -1    0    0  501  503 -0.00000000000E+00 -0.00000000000E+00 -0.10009123079E+04  0.10009123079E+04  0.00000000000E+00 0. -1.
          6    1    1    2  501    0 -0.18362968464E+03 -0.10386671611E+03 -0.86994917188E+03  0.91172842308E+03  0.17300000000E+03 0.  1.
         -6    1    1    2    0  502  0.18362968464E+03  0.10386671611E+03  0.58988863175E+02  0.27913588407E+03  0.17300000000E+03 0.  1.
</event>
<event>
 4    1  0.5758867E+000  0.1000000E+03  0.7546771E-02  0.1280296E+00
         21   -1    0    0  503  502  0.00000000000E+00  0.00000000000E+00  0.34340547142E+03  0.34340547142E+03  0.00000000000E+00 0.  1.
         21   -1    0    0  501  503 -0.00000000000E+00 -0.00000000000E+00 -0.18058542964E+03  0.18058542964E+03  0.00000000000E+00 0. -1.
          6    1    1    2  501    0  0.14231300367E+03 -0.98350926000E+02  0.13029642354E+03  0.27718595499E+03  0.17300000000E+03 0.  1.
         -6    1    1    2    0  502 -0.14231300367E+03  0.98350926000E+02  0.32523618242E+02  0.24680494606E+03  0.17300000000E+03 0.  1.
</event>
<event>
 4    1  0.5758867E+000  0.1000000E+03  0.7546771E-02  0.1280296E+00
         21   -1    0    0  503  502  0.00000000000E+00  0.00000000000E+00  0.35367337386E+03  0.35367337386E+03  0.00000000000E+00 0. -1.
         21   -1    0    0  501  503 -0.00000000000E+00 -0.00000000000E+00 -0.11044883888E+03  0.11044883888E+03  0.00000000000E+00 0. -1.
          6    1    1    2  501    0  0.49071945059E+02 -0.22519946344E+02  0.29021592785E+02  0.18353870606E+03  0.17300000000E+03 0. -1.
         -6    1    1    2    0  502 -0.49071945059E+02  0.22519946344E+02  0.21420294219E+03  0.28058350668E+03  0.17300000000E+03 0. -1.
</event>
<event>
 4    1  0.5758867E+000  0.1000000E+03  0.7546771E-02  0.1280296E+00
         21   -1    0    0  503  502  0.00000000000E+00  0.00000000000E+00  0.24082089594E+03  0.24082089594E+03  0.00000000000E+00 0. -1.
         21   -1    0    0  501  503 -0.00000000000E+00 -0.00000000000E+00 -0.17589941549E+03  0.17589941549E+03  0.00000000000E+00 0. -1.
          6    1    1    2  501    0  0.87766626722E+02 -0.68399780170E+02  0.39600874003E+02  0.20947252783E+03  0.17300000000E+03 0. -1.
         -6    1    1    2    0  502 -0.87766626722E+02  0.68399780170E+02  0.25320606448E+02  0.20724778359E+03  0.17300000000E+03 0. -1.
</event>
<event>
 4    1  0.5758867E+000  0.1000000E+03  0.7546771E-02  0.1280296E+00
         21   -1    0    0  503  502  0.00000000000E+00  0.00000000000E+00  0.21785868779E+03  0.21785868779E+03  0.00000000000E+00 0. -1.
         21   -1    0    0  501  503 -0.00000000000E+00 -0.00000000000E+00 -0.20457870211E+03  0.20457870211E+03  0.00000000000E+00 0. -1.
          6    1    1    2  501    0  0.69975799323E+02  0.88471763355E+02  0.50438142857E+02  0.21259555888E+03  0.17300000000E+03 0. -1.
         -6    1    1    2    0  502 -0.69975799323E+02 -0.88471763355E+02 -0.37158157176E+02  0.20984183102E+03  0.17300000000E+03 0. -1.
</event>
<event>
 4    1  0.5758867E+000  0.1000000E+03  0.7546771E-02  0.1280296E+00
         21   -1    0    0  501  502  0.00000000000E+00  0.00000000000E+00  0.47867941125E+03  0.47867941125E+03  0.00000000000E+00 0. -1.
         21   -1    0    0  502  503 -0.00000000000E+00 -0.00000000000E+00 -0.69290152574E+02  0.69290152574E+02  0.00000000000E+00 0. -1.
          6    1    1    2  501    0  0.29752398495E+02  0.42745685493E+02  0.23921012529E+03  0.29977138437E+03  0.17300000000E+03 0. -1.
         -6    1    1    2    0  503 -0.29752398495E+02 -0.42745685493E+02  0.17017913338E+03  0.24819817945E+03  0.17300000000E+03 0. -1.
</event>
<event>
 4    1  0.5758867E+000  0.1000000E+03  0.7546771E-02  0.1280296E+00
         21   -1    0    0  501  502  0.00000000000E+00  0.00000000000E+00  0.51057798378E+03  0.51057798378E+03  0.00000000000E+00 0.  1.
         21   -1    0    0  502  503 -0.00000000000E+00 -0.00000000000E+00 -0.23874876346E+03  0.23874876346E+03  0.00000000000E+00 0.  1.
          6    1    1    2  501    0  0.16360128703E+03  0.16800689550E+03  0.34227112173E+03  0.44952221171E+03  0.17300000000E+03 0.  1.
         -6    1    1    2    0  503 -0.16360128703E+03 -0.16800689550E+03 -0.70441901404E+02  0.29980453553E+03  0.17300000000E+03 0.  1.
</event>
<event>
 4    1  0.5758867E+000  0.1000000E+03  0.7546771E-02  0.1280296E+00
         21   -1    0    0  501  502  0.00000000000E+00  0.00000000000E+00  0.13117639612E+03  0.13117639612E+03  0.00000000000E+00 0.  1.
         21   -1    0    0  502  503 -0.00000000000E+00 -0.00000000000E+00 -0.32055718464E+03  0.32055718464E+03  0.00000000000E+00 0.  1.
          6    1    1    2  501    0  0.20023207781E+02 -0.89409447470E+02 -0.27459723405E+02  0.19768159893E+03  0.17300000000E+03 0.  1.
         -6    1    1    2    0  503 -0.20023207781E+02  0.89409447470E+02 -0.16192106511E+03  0.25405198183E+03  0.17300000000E+03 0.  1.
</event>
<event>
 4    1  0.5758867E+000  0.1000000E+03  0.7546771E-02  0.1280296E+00
         21   -1    0    0  501  502  0.00000000000E+00  0.00000000000E+00  0.90788649131E+03  0.90788649131E+03  0.00000000000E+00 0.  1.
         21   -1    0    0  502  503 -0.00000000000E+00 -0.00000000000E+00 -0.89981449033E+02  0.89981449033E+02  0.00000000000E+00 0.  1.
          6    1    1    2  501    0  0.67771006133E+02 -0.28178227290E+02  0.78487840250E+03  0.80706259267E+03  0.17300000000E+03 0.  1.
         -6    1    1    2    0  503 -0.67771006133E+02  0.28178227290E+02  0.33026639769E+02  0.19080534767E+03  0.17300000000E+03 0.  1.
</event>
<event>
 4    1  0.5758867E+000  0.1000000E+03  0.7546771E-02  0.1280296E+00
         21   -1    0    0  501  502  0.00000000000E+00  0.00000000000E+00  0.18688238606E+04  0.18688238606E+04  0.00000000000E+00 0.  1.
         21   -1    0    0  502  503 -0.00000000000E+00 -0.00000000000E+00 -0.46341339737E+02  0.46341339737E+02  0.00000000000E+00 0.  1.
          6    1    1    2  501    0  0.18905144171E+03  0.12817385715E+03  0.69282020437E+03  0.74973183262E+03  0.17300000000E+03 0.  1.
         -6    1    1    2    0  503 -0.18905144171E+03 -0.12817385715E+03  0.11296623165E+04  0.11654333677E+04  0.17300000000E+03 0.  1.
</event>
<event>
 4    1  0.5758867E+000  0.1000000E+03  0.7546771E-02  0.1280296E+00
         21   -1    0    0  501  502  0.00000000000E+00  0.00000000000E+00  0.78526178531E+02  0.78526178531E+02  0.00000000000E+00 0. -1.
         21   -1    0    0  502  503 -0.00000000000E+00 -0.00000000000E+00 -0.89002990548E+03  0.89002990548E+03  0.00000000000E+00 0.  1.
          6    1    1    2  501    0  0.21259428080E+02 -0.19869267278E+03 -0.41593554795E+03  0.49281043165E+03  0.17300000000E+03 0. -1.
         -6    1    1    2    0  503 -0.21259428080E+02  0.19869267278E+03 -0.39556817900E+03  0.47574565236E+03  0.17300000000E+03 0.  1.
</event>
<event>
 4    1  0.5758867E+000  0.1000000E+03  0.7546771E-02  0.1280296E+00
         21   -1    0    0  501  502  0.00000000000E+00  0.00000000000E+00  0.41586069451E+03  0.41586069451E+03  0.00000000000E+00 0.  1.
         21   -1    0    0  502  503 -0.00000000000E+00 -0.00000000000E+00 -0.12364340473E+03  0.12364340473E+03  0.00000000000E+00 0.  1.
          6    1    1    2  501    0 -0.41750214635E+02 -0.22623825874E+02  0.31109421037E+03  0.35911491983E+03  0.17300000000E+03 0.  1.
         -6    1    1    2    0  503  0.41750214635E+02  0.22623825874E+02 -0.18876920581E+02  0.18038917941E+03  0.17300000000E+03 0.  1.
</event>
<event>
 4    1  0.5758867E+000  0.1000000E+03  0.7546771E-02  0.1280296E+00
         21   -1    0    0  501  502  0.00000000000E+00  0.00000000000E+00  0.52924958932E+02  0.52924958932E+02  0.00000000000E+00 0.  1.
         21   -1    0    0  502  503 -0.00000000000E+00 -0.00000000000E+00 -0.12346718056E+04  0.12346718056E+04  0.00000000000E+00 0.  1.
          6    1    1    2  501    0 -0.13628387261E+03 -0.75293928676E+02 -0.85709188866E+03  0.88813173305E+03  0.17300000000E+03 0.  1.
         -6    1    1    2    0  503  0.13628387261E+03  0.75293928676E+02 -0.32465495804E+03  0.39946503152E+03  0.17300000000E+03 0.  1.
</event>
<event>
 4    1  0.5758867E+000  0.1000000E+03  0.7546771E-02  0.1280296E+00
         21   -1    0    0  503  502  0.00000000000E+00  0.00000000000E+00  0.63544717485E+02  0.63544717485E+02  0.00000000000E+00 0.  1.
         21   -1    0    0  501  503 -0.00000000000E+00 -0.00000000000E+00 -0.70856075638E+03  0.70856075638E+03  0.00000000000E+00 0. -1.
          6    1    1    2  501    0 -0.87075568372E+02 -0.11698948385E+02 -0.47877466568E+03  0.51659771631E+03  0.17300000000E+03 0. -1.
         -6    1    1    2    0  502  0.87075568372E+02  0.11698948385E+02 -0.16624137321E+03  0.25550775755E+03  0.17300000000E+03 0.  1.
</event>
<event>
 4    1  0.5758867E+000  0.1000000E+03  0.7546771E-02  0.1280296E+00
         21   -1    0    0  503  502  0.00000000000E+00  0.00000000000E+00  0.66235106180E+03  0.66235106180E+03  0.00000000000E+00 0.  1.
         21   -1    0    0  501  503 -0.00000000000E+00 -0.00000000000E+00 -0.13822597744E+03  0.13822597744E+03  0.00000000000E+00 0. -1.
          6    1    1    2  501    0  0.10366348162E+03 -0.11096483762E+03  0.22647764596E+01  0.23020304477E+03  0.17300000000E+03 0. -1.
         -6    1    1    2    0  502 -0.10366348162E+03  0.11096483762E+03  0.52186030790E+03  0.57037399448E+03  0.17300000000E+03 0.  1.
</event>
<event>
 4    1  0.5758867E+000  0.1000000E+03  0.7546771E-02  0.1280296E+00
         21   -1    0    0  503  502  0.00000000000E+00  0.00000000000E+00  0.10340021635E+03  0.10340021635E+03  0.00000000000E+00 0.  1.
         21   -1    0    0  501  503 -0.00000000000E+00 -0.00000000000E+00 -0.48211163895E+03  0.48211163895E+03  0.00000000000E+00 0. -1.
          6    1    1    2  501    0  0.28369229450E+02 -0.11556772210E+03 -0.28887566369E+03  0.35712583307E+03  0.17300000000E+03 0. -1.
         -6    1    1    2    0  502 -0.28369229450E+02  0.11556772210E+03 -0.89835758912E+02  0.22838602223E+03  0.17300000000E+03 0.  1.
</event>
<event>
 4    1  0.5758867E+000  0.1000000E+03  0.7546771E-02  0.1280296E+00
         21   -1    0    0  503  502  0.00000000000E+00  0.00000000000E+00  0.40842866989E+03  0.40842866989E+03  0.00000000000E+00 0.  1.
         21   -1    0    0  501  503 -0.00000000000E+00 -0.00000000000E+00 -0.23899186966E+03  0.23899186966E+03  0.00000000000E+00 0. -1.
          6    1    1    2  501    0  0.39633878790E+01 -0.35621008205E+02 -0.18226415584E+03  0.25383811214E+03  0.17300000000E+03 0. -1.
         -6    1    1    2    0  502 -0.39633878790E+01  0.35621008205E+02  0.35170095607E+03  0.39358242741E+03  0.17300000000E+03 0.  1.
</event>
<event>
 4    1  0.5758867E+000  0.1000000E+03  0.7546771E-02  0.1280296E+00
         21   -1    0    0  501  502  0.00000000000E+00  0.00000000000E+00  0.92742674468E+02  0.92742674468E+02  0.00000000000E+00 0.  1.
         21   -1    0    0  502  503 -0.00000000000E+00 -0.00000000000E+00 -0.47339170777E+03  0.47339170777E+03  0.00000000000E+00 0. -1.
          6    1    1    2  501    0 -0.68985527010E+02  0.27660553084E+01 -0.60689868273E+02  0.19590537029E+03  0.17300000000E+03 0.  1.
         -6    1    1    2    0  503  0.68985527010E+02 -0.27660553084E+01 -0.31995916503E+03  0.37022901194E+03  0.17300000000E+03 0. -1.
</event>
<event>
 4    1  0.5758867E+000  0.1000000E+03  0.7546771E-02  0.1280296E+00
         21   -1    0    0  501  502  0.00000000000E+00  0.00000000000E+00  0.36989848020E+03  0.36989848020E+03  0.00000000000E+00 0.  1.
         21   -1    0    0  502  503 -0.00000000000E+00 -0.00000000000E+00 -0.21039236284E+03  0.21039236284E+03  0.00000000000E+00 0. -1.
          6    1    1    2  501    0 -0.16779509675E+03 -0.39718886959E+02  0.21991873167E+03  0.32867314008E+03  0.17300000000E+03 0.  1.
         -6    1    1    2    0  503  0.16779509675E+03  0.39718886959E+02 -0.60412614303E+02  0.25161770296E+03  0.17300000000E+03 0. -1.
</event>
<event>
 4    1  0.5758867E+000  0.1000000E+03  0.7546771E-02  0.1280296E+00
         21   -1    0    0  501  502  0.00000000000E+00  0.00000000000E+00  0.37878570457E+03  0.37878570457E+03  0.00000000000E+00 0.  1.
         21   -1    0    0  502  503 -0.00000000000E+00 -0.00000000000E+00 -0.28994951416E+03  0.28994951416E+03  0.00000000000E+00 0. -1.
          6    1    1    2  501    0 -0.15804149855E+03  0.86447310488E+02  0.26419494191E+03  0.36356322709E+03  0.17300000000E+03 0.  1.
         -6    1    1    2    0  503  0.15804149855E+03 -0.86447310488E+02 -0.17535875150E+03  0.30517199164E+03  0.17300000000E+03 0. -1.
</event>
<event>
 4    1  0.5758867E+000  0.1000000E+03  0.7546771E-02  0.1280296E+00
         21   -1    0    0  501  502  0.00000000000E+00  0.00000000000E+00  0.67541224607E+03  0.67541224607E+03  0.00000000000E+00 0. -1.
         21   -1    0    0  502  503 -0.00000000000E+00 -0.00000000000E+00 -0.51691870182E+02  0.51691870182E+02  0.00000000000E+00 0. -1.
          6    1    1    2  501    0 -0.26723794330E+02 -0.43577324794E+02  0.40660448391E+03  0.44482507883E+03  0.17300000000E+03 0. -1.
         -6    1    1    2    0  503  0.26723794330E+02  0.43577324794E+02  0.21711589198E+03  0.28227903742E+03  0.17300000000E+03 0. -1.
</event>
<event>
 4    1  0.5758867E+000  0.1000000E+03  0.7546771E-02  0.1280296E+00
         21   -1    0    0  501  502  0.00000000000E+00  0.00000000000E+00  0.47396878000E+02  0.47396878000E+02  0.00000000000E+00 0. -1.
         21   -1    0    0  502  503 -0.00000000000E+00 -0.00000000000E+00 -0.10793919481E+04  0.10793919481E+04  0.00000000000E+00 0. -1.
          6    1    1    2  501    0 -0.92560409205E+01  0.31309011998E+02 -0.16228870529E+03  0.23944216920E+03  0.17300000000E+03 0. -1.
         -6    1    1    2    0  503  0.92560409205E+01 -0.31309011998E+02 -0.86970636483E+03  0.88734665692E+03  0.17300000000E+03 0. -1.
</event>
<event>
 4    1  0.5758867E+000  0.1000000E+03  0.7546771E-02  0.1280296E+00
         21   -1    0    0  503  502  0.00000000000E+00  0.00000000000E+00  0.74581635755E+03  0.74581635755E+03  0.00000000000E+00 0.  1.
         21   -1    0    0  501  503 -0.00000000000E+00 -0.00000000000E+00 -0.60335281129E+02  0.60335281129E+02  0.00000000000E+00 0. -1.
          6    1    1    2  501    0 -0.10718884668E+02  0.10764236452E+03  0.23246267450E+03  0.30930513763E+03  0.17300000000E+03 0. -1.
         -6    1    1    2    0  502  0.10718884668E+02 -0.10764236452E+03  0.45301840192E+03  0.49684650105E+03  0.17300000000E+03 0. -1.
</event>
<event>
 4    1  0.5758867E+000  0.1000000E+03  0.7546771E-02  0.1280296E+00
         21   -1    0    0  503  502  0.00000000000E+00  0.00000000000E+00  0.32324781471E+02  0.32324781471E+02  0.00000000000E+00 0.  1.
         21   -1    0    0  501  503 -0.00000000000E+00 -0.00000000000E+00 -0.99902250917E+03  0.99902250917E+03  0.00000000000E+00 0. -1.
          6    1    1    2  501    0 -0.35783629147E+02  0.24752858668E+02 -0.54562699381E+03  0.57404789740E+03  0.17300000000E+03 0. -1.
         -6    1    1    2    0  502  0.35783629147E+02 -0.24752858668E+02 -0.42107073388E+03  0.45729939324E+03  0.17300000000E+03 0. -1.
</event>
<event>
 4    1  0.5758867E+000  0.1000000E+03  0.7546771E-02  0.1280296E+00
         21   -1    0    0  503  502  0.00000000000E+00  0.00000000000E+00  0.53952919806E+02  0.53952919806E+02  0.00000000000E+00 0.  1.
         21   -1    0    0  501  503 -0.00000000000E+00 -0.00000000000E+00 -0.82526220921E+03  0.82526220921E+03  0.00000000000E+00 0. -1.
          6    1    1    2  501    0 -0.11667427378E+03 -0.14450098301E+02 -0.44363814828E+03  0.49047476807E+03  0.17300000000E+03 0. -1.
         -6    1    1    2    0  502  0.11667427378E+03  0.14450098301E+02 -0.32767114112E+03  0.38874036095E+03  0.17300000000E+03 0. -1.
</event>
<event>
 4    1  0.5758867E+000  0.1000000E+03  0.7546771E-02  0.1280296E+00
         21   -1    0    0  503  502  0.00000000000E+00  0.00000000000E+00  0.58387058281E+02  0.58387058281E+02  0.00000000000E+00 0.  1.
         21   -1    0    0  501  503 -0.00000000000E+00 -0.00000000000E+00 -0.99362046703E+03  0.99362046703E+03  0.00000000000E+00 0. -1.
          6    1    1    2  501    0 -0.11688129201E+02  0.13016772319E+03 -0.69671495680E+03  0.72967183004E+03  0.17300000000E+03 0. -1.
         -6    1    1    2    0  502  0.11688129201E+02 -0.13016772319E+03 -0.23851845195E+03  0.32233569527E+03  0.17300000000E+03 0.  1.
</event>
<event>
 4    1  0.5758867E+000  0.1000000E+03  0.7546771E-02  0.1280296E+00
         21   -1    0    0  503  502  0.00000000000E+00  0.00000000000E+00  0.23009792930E+04  0.23009792930E+04  0.00000000000E+00 0. -1.
         21   -1    0    0  501  503 -0.00000000000E+00 -0.00000000000E+00 -0.11293459888E+03  0.11293459888E+03  0.00000000000E+00 0.  1.
          6    1    1    2  501    0  0.25895099936E+03 -0.25538170129E+03  0.35412613459E+03  0.53629259982E+03  0.17300000000E+03 0.  1.
         -6    1    1    2    0  502 -0.25895099936E+03  0.25538170129E+03  0.18339185595E+04  0.18776212921E+04  0.17300000000E+03 0. -1.
</event>
<event>
 4    1  0.5758867E+000  0.1000000E+03  0.7546771E-02  0.1280296E+00
         21   -1    0    0  501  502  0.00000000000E+00  0.00000000000E+00  0.32747901491E+03  0.32747901491E+03  0.00000000000E+00 0. -1.
         21   -1    0    0  502  503 -0.00000000000E+00 -0.00000000000E+00 -0.48850268938E+03  0.48850268938E+03  0.00000000000E+00 0.  1.
          6    1    1    2  501    0  0.18635215088E+03 -0.12021015470E+03  0.20956493412E+03  0.35074786819E+03  0.17300000000E+03 0. -1.
         -6    1    1    2    0  503 -0.18635215088E+03  0.12021015470E+03 -0.37058860859E+03  0.46523383609E+03  0.17300000000E+03 0.  1.
</event>
<event>
 4    1  0.5758867E+000  0.1000000E+03  0.7546771E-02  0.1280296E+00
         21   -1    0    0  501  502  0.00000000000E+00  0.00000000000E+00  0.46939698101E+03  0.46939698101E+03  0.00000000000E+00 0. -1.
         21   -1    0    0  502  503 -0.00000000000E+00 -0.00000000000E+00 -0.12579719818E+03  0.12579719818E+03  0.00000000000E+00 0.  1.
          6    1    1    2  501    0 -0.15534213906E+03 -0.45288360160E+02  0.23817726551E+03  0.33591609896E+03  0.17300000000E+03 0. -1.
         -6    1    1    2    0  503  0.15534213906E+03  0.45288360160E+02  0.10542251731E+03  0.25927808023E+03  0.17300000000E+03 0.  1.
</event>
<event>
 4    1  0.5758867E+000  0.1000000E+03  0.7546771E-02  0.1280296E+00
         21   -1    0    0  501  502  0.00000000000E+00  0.00000000000E+00  0.90742015302E+03  0.90742015302E+03  0.00000000000E+00 0. -1.
         21   -1    0    0  502  503 -0.00000000000E+00 -0.00000000000E+00 -0.49645541167E+02  0.49645541167E+02  0.00000000000E+00 0. -1.
          6    1    1    2  501    0  0.10116733759E+01 -0.20230281968E+01  0.15169889818E+03  0.23010143814E+03  0.17300000000E+03 0. -1.
         -6    1    1    2    0  503 -0.10116733759E+01  0.20230281968E+01  0.70607571367E+03  0.72696425604E+03  0.17300000000E+03 0. -1.
</event>
<event>
 4    1  0.5758867E+000  0.1000000E+03  0.7546771E-02  0.1280296E+00
         21   -1    0    0  501  502  0.00000000000E+00  0.00000000000E+00  0.40726432285E+03  0.40726432285E+03  0.00000000000E+00 0. -1.
         21   -1    0    0  502  503 -0.00000000000E+00 -0.00000000000E+00 -0.30161021330E+03  0.30161021330E+03  0.00000000000E+00 0. -1.
          6    1    1    2  501    0  0.28272861697E+03 -0.36971900354E+02  0.16176424721E+03  0.37067379722E+03  0.17300000000E+03 0. -1.
         -6    1    1    2    0  503 -0.28272861697E+03  0.36971900354E+02 -0.56110137662E+02  0.33820073894E+03  0.17300000000E+03 0. -1.
</event>
<event>
 4    1  0.5758867E+000  0.1000000E+03  0.7546771E-02  0.1280296E+00
         21   -1    0    0  501  502  0.00000000000E+00  0.00000000000E+00  0.96009378104E+03  0.96009378104E+03  0.00000000000E+00 0. -1.
         21   -1    0    0  502  503 -0.00000000000E+00 -0.00000000000E+00 -0.66373006257E+02  0.66373006257E+02  0.00000000000E+00 0. -1.
          6    1    1    2  501    0  0.15337398447E+03 -0.10133675696E+03  0.45013434443E+03  0.51608395195E+03  0.17300000000E+03 0. -1.
         -6    1    1    2    0  503 -0.15337398447E+03  0.10133675696E+03  0.44358643035E+03  0.51038283535E+03  0.17300000000E+03 0. -1.
</event>
<event>
 4    1  0.5758867E+000  0.1000000E+03  0.7546771E-02  0.1280296E+00
         21   -1    0    0  503  502  0.00000000000E+00  0.00000000000E+00  0.25026842821E+03  0.25026842821E+03  0.00000000000E+00 0. -1.
         21   -1    0    0  501  503 -0.00000000000E+00 -0.00000000000E+00 -0.18639029456E+03  0.18639029456E+03  0.00000000000E+00 0. -1.
          6    1    1    2  501    0 -0.26361032193E+02 -0.77843809576E+02 -0.68966532950E+02  0.20356803623E+03  0.17300000000E+03 0. -1.
         -6    1    1    2    0  502  0.26361032193E+02  0.77843809576E+02  0.13284466660E+03  0.23309068654E+03  0.17300000000E+03 0. -1.
</event>
<event>
 4    1  0.5758867E+000  0.1000000E+03  0.7546771E-02  0.1280296E+00
         21   -1    0    0  503  502  0.00000000000E+00  0.00000000000E+00  0.11599433249E+03  0.11599433249E+03  0.00000000000E+00 0. -1.
         21   -1    0    0  501  503 -0.00000000000E+00 -0.00000000000E+00 -0.26665640953E+03  0.26665640953E+03  0.00000000000E+00 0. -1.
          6    1    1    2  501    0  0.22137237646E+02 -0.22155802452E+02 -0.80280005957E+02  0.19327394090E+03  0.17300000000E+03 0. -1.
         -6    1    1    2    0  502 -0.22137237646E+02  0.22155802452E+02 -0.70382071078E+02  0.18937680112E+03  0.17300000000E+03 0. -1.
</event>
<event>
 4    1  0.5758867E+000  0.1000000E+03  0.7546771E-02  0.1280296E+00
         21   -1    0    0  503  502  0.00000000000E+00  0.00000000000E+00  0.16309085854E+04  0.16309085854E+04  0.00000000000E+00 0. -1.
         21   -1    0    0  501  503 -0.00000000000E+00 -0.00000000000E+00 -0.24301365921E+02  0.24301365921E+02  0.00000000000E+00 0. -1.
          6    1    1    2  501    0 -0.22291587891E+02  0.87885496778E+02  0.64318521153E+03  0.67218821157E+03  0.17300000000E+03 0. -1.
         -6    1    1    2    0  502  0.22291587891E+02 -0.87885496778E+02  0.96342200794E+03  0.98302173975E+03  0.17300000000E+03 0. -1.
</event>
<event>
 4    1  0.5758867E+000  0.1000000E+03  0.7546771E-02  0.1280296E+00
         21   -1    0    0  503  502  0.00000000000E+00  0.00000000000E+00  0.57402499903E+03  0.57402499903E+03  0.00000000000E+00 0. -1.
         21   -1    0    0  501  503 -0.00000000000E+00 -0.00000000000E+00 -0.23421413712E+03  0.23421413712E+03  0.00000000000E+00 0. -1.
          6    1    1    2  501    0  0.27089764601E+01 -0.32147052355E+03  0.20752603967E+03  0.41993653474E+03  0.17300000000E+03 0. -1.
         -6    1    1    2    0  502 -0.27089764601E+01  0.32147052355E+03  0.13228482225E+03  0.38830260141E+03  0.17300000000E+03 0. -1.
</event>
<event>
 4    1  0.5758867E+000  0.1000000E+03  0.7546771E-02  0.1280296E+00
         21   -1    0    0  503  502  0.00000000000E+00  0.00000000000E+00  0.58748099888E+03  0.58748099888E+03  0.00000000000E+00 0. -1.
         21   -1    0    0  501  503 -0.00000000000E+00 -0.00000000000E+00 -0.61371240085E+02  0.61371240085E+02  0.00000000000E+00 0. -1.
          6    1    1    2  501    0  0.56753743751E+02 -0.90902806777E+00  0.17098732355E+03  0.24977485577E+03  0.17300000000E+03 0. -1.
         -6    1    1    2    0  502 -0.56753743751E+02  0.90902806777E+00  0.35512243525E+03  0.39907738320E+03  0.17300000000E+03 0. -1.
</event>
<event>
 4    1  0.5758867E+000  0.1000000E+03  0.7546771E-02  0.1280296E+00
         21   -1    0    0  503  502  0.00000000000E+00  0.00000000000E+00  0.27491198136E+03  0.27491198136E+03  0.00000000000E+00 0. -1.
         21   -1    0    0  501  503 -0.00000000000E+00 -0.00000000000E+00 -0.11977867483E+03  0.11977867483E+03  0.00000000000E+00 0. -1.
          6    1    1    2  501    0  0.23052467391E+02  0.24413769321E+02  0.30511202350E+02  0.17885016593E+03  0.17300000000E+03 0. -1.
         -6    1    1    2    0  502 -0.23052467391E+02 -0.24413769321E+02  0.12462210418E+03  0.21584049026E+03  0.17300000000E+03 0. -1.
</event>
<event>
 4    1  0.5758867E+000  0.1000000E+03  0.7546771E-02  0.1280296E+00
         21   -1    0    0  501  502  0.00000000000E+00  0.00000000000E+00  0.82986894932E+02  0.82986894932E+02  0.00000000000E+00 0. -1.
         21   -1    0    0  502  503 -0.00000000000E+00 -0.00000000000E+00 -0.98215140274E+03  0.98215140274E+03  0.00000000000E+00 0. -1.
          6    1    1    2  501    0  0.11614919174E+03  0.12201493993E+03 -0.16545611951E+03  0.29271659979E+03  0.17300000000E+03 0. -1.
         -6    1    1    2    0  503 -0.11614919174E+03 -0.12201493993E+03 -0.73370838829E+03  0.77242169788E+03  0.17300000000E+03 0. -1.
</event>
<event>
 4    1  0.5758867E+000  0.1000000E+03  0.7546771E-02  0.1280296E+00
         21   -1    0    0  503  502  0.00000000000E+00  0.00000000000E+00  0.31665653212E+02  0.31665653212E+02  0.00000000000E+00 0.  1.
         21   -1    0    0  501  503 -0.00000000000E+00 -0.00000000000E+00 -0.19370608161E+04  0.19370608161E+04  0.00000000000E+00 0.  1.
          6    1    1    2  501    0 -0.38991431747E+02  0.43337584222E+02 -0.16178978681E+04  0.16281649147E+04  0.17300000000E+03 0.  1.
         -6    1    1    2    0  502  0.38991431747E+02 -0.43337584222E+02 -0.28749729485E+03  0.34056155465E+03  0.17300000000E+03 0.  1.
</event>
<event>
 4    1  0.5758867E+000  0.1000000E+03  0.7546771E-02  0.1280296E+00
         21   -1    0    0  503  502  0.00000000000E+00  0.00000000000E+00  0.58968809977E+02  0.58968809977E+02  0.00000000000E+00 0. -1.
         21   -1    0    0  501  503 -0.00000000000E+00 -0.00000000000E+00 -0.13577327036E+04  0.13577327036E+04  0.00000000000E+00 0.  1.
          6    1    1    2  501    0 -0.14525779468E+03  0.91972559993E+02 -0.10084788043E+04  0.10375535058E+04  0.17300000000E+03 0.  1.
         -6    1    1    2    0  502  0.14525779468E+03 -0.91972559993E+02 -0.29028508932E+03  0.37914800776E+03  0.17300000000E+03 0. -1.
</event>
<event>
 4    1  0.5758867E+000  0.1000000E+03  0.7546771E-02  0.1280296E+00
         21   -1    0    0  501  502  0.00000000000E+00  0.00000000000E+00  0.15313133231E+04  0.15313133231E+04  0.00000000000E+00 0.  1.
         21   -1    0    0  502  503 -0.00000000000E+00 -0.00000000000E+00 -0.88456247470E+02  0.88456247470E+02  0.00000000000E+00 0.  1.
          6    1    1    2  501    0  0.23883269783E+03 -0.80161710659E+01  0.12056443413E+04  0.12412141613E+04  0.17300000000E+03 0.  1.
         -6    1    1    2    0  503 -0.23883269783E+03  0.80161710659E+01  0.23721273436E+03  0.37855540928E+03  0.17300000000E+03 0.  1.
</event>
<event>
 4    1  0.5758867E+000  0.1000000E+03  0.7546771E-02  0.1280296E+00
         21   -1    0    0  501  502  0.00000000000E+00  0.00000000000E+00  0.11107123258E+03  0.11107123258E+03  0.00000000000E+00 0.  1.
         21   -1    0    0  502  503 -0.00000000000E+00 -0.00000000000E+00 -0.11810832000E+04  0.11810832000E+04  0.00000000000E+00 0.  1.
          6    1    1    2  501    0 -0.12146172360E+03 -0.18244326761E+03 -0.12350767877E+03  0.30532219525E+03  0.17300000000E+03 0.  1.
         -6    1    1    2    0  503  0.12146172360E+03  0.18244326761E+03 -0.94650428864E+03  0.98683223732E+03  0.17300000000E+03 0.  1.
</event>
<event>
 4    1  0.5758867E+000  0.1000000E+03  0.7546771E-02  0.1280296E+00
         21   -1    0    0  501  502  0.00000000000E+00  0.00000000000E+00  0.76152678157E+02  0.76152678157E+02  0.00000000000E+00 0. -1.
         21   -1    0    0  502  503 -0.00000000000E+00 -0.00000000000E+00 -0.21120314873E+04  0.21120314873E+04  0.00000000000E+00 0. -1.
          6    1    1    2  501    0 -0.82571348553E+02  0.11137985927E+02 -0.57407080048E+02  0.20041620486E+03  0.17300000000E+03 0.  1.
         -6    1    1    2    0  503  0.82571348553E+02 -0.11137985927E+02 -0.19784717291E+04  0.19877679606E+04  0.17300000000E+03 0.  1.
</event>
<event>
 4    1  0.5758867E+000  0.1000000E+03  0.7546771E-02  0.1280296E+00
         21   -1    0    0  501  502  0.00000000000E+00  0.00000000000E+00  0.22153290940E+03  0.22153290940E+03  0.00000000000E+00 0. -1.
         21   -1    0    0  502  503 -0.00000000000E+00 -0.00000000000E+00 -0.25156595713E+03  0.25156595713E+03  0.00000000000E+00 0. -1.
          6    1    1    2  501    0  0.67346698827E+02 -0.51951780234E+02  0.12151807753E+03  0.22788200561E+03  0.17300000000E+03 0.  1.
         -6    1    1    2    0  503 -0.67346698827E+02  0.51951780234E+02 -0.15155112526E+03  0.24521686092E+03  0.17300000000E+03 0.  1.
</event>
<event>
 4    1  0.5758867E+000  0.1000000E+03  0.7546771E-02  0.1280296E+00
         21   -1    0    0  501  502  0.00000000000E+00  0.00000000000E+00  0.42216210132E+03  0.42216210132E+03  0.00000000000E+00 0. -1.
         21   -1    0    0  502  503 -0.00000000000E+00 -0.00000000000E+00 -0.29131139933E+03  0.29131139933E+03  0.00000000000E+00 0. -1.
          6    1    1    2  501    0 -0.23270738746E+03 -0.19645492236E+03  0.47678192384E+02  0.35348192984E+03  0.17300000000E+03 0. -1.
         -6    1    1    2    0  503  0.23270738746E+03  0.19645492236E+03  0.83172509603E+02  0.35999157080E+03  0.17300000000E+03 0. -1.
</event>
<event>
 4    1  0.5758867E+000  0.1000000E+03  0.7546771E-02  0.1280296E+00
         21   -1    0    0  501  502  0.00000000000E+00  0.00000000000E+00  0.79348489649E+03  0.79348489649E+03  0.00000000000E+00 0. -1.
         21   -1    0    0  502  503 -0.00000000000E+00 -0.00000000000E+00 -0.17277265284E+03  0.17277265284E+03  0.00000000000E+00 0. -1.
          6    1    1    2  501    0 -0.27571405733E+03  0.10896571976E+03  0.12921530499E+03  0.36676608968E+03  0.17300000000E+03 0. -1.
         -6    1    1    2    0  503  0.27571405733E+03 -0.10896571976E+03  0.49149693866E+03  0.59949145966E+03  0.17300000000E+03 0. -1.
</event>
<event>
 4    1  0.5758867E+000  0.1000000E+03  0.7546771E-02  0.1280296E+00
         21   -1    0    0  503  502  0.00000000000E+00  0.00000000000E+00  0.95007667527E+02  0.95007667527E+02  0.00000000000E+00 0.  1.
         21   -1    0    0  501  503 -0.00000000000E+00 -0.00000000000E+00 -0.93587390537E+03  0.93587390537E+03  0.00000000000E+00 0.  1.
          6    1    1    2  501    0  0.19671822860E+03 -0.98670527598E+02 -0.59800065736E+03  0.66027851751E+03  0.17300000000E+03 0.  1.
         -6    1    1    2    0  502 -0.19671822860E+03  0.98670527598E+02 -0.24286558048E+03  0.37060305539E+03  0.17300000000E+03 0.  1.
</event>
<event>
 4    1  0.5758867E+000  0.1000000E+03  0.7546771E-02  0.1280296E+00
         21   -1    0    0  503  502  0.00000000000E+00  0.00000000000E+00  0.21360754576E+03  0.21360754576E+03  0.00000000000E+00 0.  1.
         21   -1    0    0  501  503 -0.00000000000E+00 -0.00000000000E+00 -0.19972331842E+03  0.19972331842E+03  0.00000000000E+00 0.  1.
          6    1    1    2  501    0 -0.82020244340E+02 -0.65519239629E+02 -0.34473487954E+02  0.20527423758E+03  0.17300000000E+03 0.  1.
         -6    1    1    2    0  502  0.82020244340E+02  0.65519239629E+02  0.48357715299E+02  0.20805662660E+03  0.17300000000E+03 0.  1.
</event>
<event>
 4    1  0.5758867E+000  0.1000000E+03  0.7546771E-02  0.1280296E+00
         21   -1    0    0  503  502  0.00000000000E+00  0.00000000000E+00  0.25454859158E+03  0.25454859158E+03  0.00000000000E+00 0. -1.
         21   -1    0    0  501  503 -0.00000000000E+00 -0.00000000000E+00 -0.34963165813E+03  0.34963165813E+03  0.00000000000E+00 0. -1.
          6    1    1    2  501    0 -0.21823793279E+02 -0.20198020104E+03 -0.18263016318E+03  0.32334974265E+03  0.17300000000E+03 0. -1.
         -6    1    1    2    0  502  0.21823793279E+02  0.20198020104E+03  0.87547096638E+02  0.28083050706E+03  0.17300000000E+03 0. -1.
</event>
<event>
 4    1  0.5758867E+000  0.1000000E+03  0.7546771E-02  0.1280296E+00
         21   -1    0    0  503  502  0.00000000000E+00  0.00000000000E+00  0.19763347897E+02  0.19763347897E+02  0.00000000000E+00 0. -1.
         21   -1    0    0  501  503 -0.00000000000E+00 -0.00000000000E+00 -0.28793976150E+04  0.28793976150E+04  0.00000000000E+00 0. -1.
          6    1    1    2  501    0  0.13563063606E+03 -0.28800235662E+02 -0.19648490958E+04  0.19773179037E+04  0.17300000000E+03 0. -1.
         -6    1    1    2    0  502 -0.13563063606E+03  0.28800235662E+02 -0.89478517132E+03  0.92184305922E+03  0.17300000000E+03 0. -1.
</event>
<event>
 4    1  0.5758867E+000  0.1000000E+03  0.7546771E-02  0.1280296E+00
         21   -1    0    0  503  502  0.00000000000E+00  0.00000000000E+00  0.12575981713E+03  0.12575981713E+03  0.00000000000E+00 0. -1.
         21   -1    0    0  501  503 -0.00000000000E+00 -0.00000000000E+00 -0.42212665137E+03  0.42212665137E+03  0.00000000000E+00 0. -1.
          6    1    1    2  501    0  0.10479281848E+03  0.86850495749E+02 -0.22911176278E+03  0.31771959848E+03  0.17300000000E+03 0. -1.
         -6    1    1    2    0  502 -0.10479281848E+03 -0.86850495749E+02 -0.67255071467E+02  0.23016687002E+03  0.17300000000E+03 0. -1.
</event>
<event>
 4    1  0.5758867E+000  0.1000000E+03  0.7546771E-02  0.1280296E+00
         21   -1    0    0  503  502  0.00000000000E+00  0.00000000000E+00  0.37248133631E+03  0.37248133631E+03  0.00000000000E+00 0. -1.
         21   -1    0    0  501  503 -0.00000000000E+00 -0.00000000000E+00 -0.81767262687E+03  0.81767262687E+03  0.00000000000E+00 0. -1.
          6    1    1    2  501    0 -0.12002455705E+02 -0.15884828775E+03 -0.76093875916E+03  0.79645064672E+03  0.17300000000E+03 0. -1.
         -6    1    1    2    0  502  0.12002455705E+02  0.15884828775E+03  0.31574746860E+03  0.39370331646E+03  0.17300000000E+03 0. -1.
</event>
<event>
 4    1  0.5758867E+000  0.1000000E+03  0.7546771E-02  0.1280296E+00
         21   -1    0    0  503  502  0.00000000000E+00  0.00000000000E+00  0.51891767223E+03  0.51891767223E+03  0.00000000000E+00 0.  1.
         21   -1    0    0  501  503 -0.00000000000E+00 -0.00000000000E+00 -0.62616260892E+02  0.62616260892E+02  0.00000000000E+00 0. -1.
          6    1    1    2  501    0  0.20674509308E+02 -0.41500173147E+02  0.26097114448E+03  0.31651956963E+03  0.17300000000E+03 0. -1.
         -6    1    1    2    0  502 -0.20674509308E+02  0.41500173147E+02  0.19533026685E+03  0.26501436349E+03  0.17300000000E+03 0.  1.
</event>
<event>
 4    1  0.5758867E+000  0.1000000E+03  0.7546771E-02  0.1280296E+00
         21   -1    0    0  501  502  0.00000000000E+00  0.00000000000E+00  0.52192755160E+02  0.52192755160E+02  0.00000000000E+00 0. -1.
         21   -1    0    0  502  503 -0.00000000000E+00 -0.00000000000E+00 -0.16955156983E+04  0.16955156983E+04  0.00000000000E+00 0.  1.
          6    1    1    2  501    0  0.13170071550E+03  0.20325891047E+02 -0.22826194533E+03  0.31589671729E+03  0.17300000000E+03 0. -1.
         -6    1    1    2    0  503 -0.13170071550E+03 -0.20325891047E+02 -0.14150609978E+04  0.14318117361E+04  0.17300000000E+03 0.  1.
</event>
<event>
 4    1  0.5758867E+000  0.1000000E+03  0.7546771E-02  0.1280296E+00
         21   -1    0    0  501  502  0.00000000000E+00  0.00000000000E+00  0.30354355724E+03  0.30354355724E+03  0.00000000000E+00 0. -1.
         21   -1    0    0  502  503 -0.00000000000E+00 -0.00000000000E+00 -0.25318630429E+03  0.25318630429E+03  0.00000000000E+00 0.  1.
          6    1    1    2  501    0  0.16817381878E+02 -0.76789019727E+02  0.22786261136E+03  0.29669807472E+03  0.17300000000E+03 0. -1.
         -6    1    1    2    0  503 -0.16817381878E+02  0.76789019727E+02 -0.17750535842E+03  0.26003178681E+03  0.17300000000E+03 0.  1.
</event>
<event>
 4    1  0.5758867E+000  0.1000000E+03  0.7546771E-02  0.1280296E+00
         21   -1    0    0  503  502  0.00000000000E+00  0.00000000000E+00  0.71501513241E+02  0.71501513241E+02  0.00000000000E+00 0. -1.
         21   -1    0    0  501  503 -0.00000000000E+00 -0.00000000000E+00 -0.78067024986E+03  0.78067024986E+03  0.00000000000E+00 0. -1.
          6    1    1    2  501    0  0.10566418247E+03  0.91624571142E+02 -0.49807111117E+03  0.54549410013E+03  0.17300000000E+03 0. -1.
         -6    1    1    2    0  502 -0.10566418247E+03 -0.91624571142E+02 -0.21109762545E+03  0.30667766297E+03  0.17300000000E+03 0. -1.
</event>
<event>
 4    1  0.5758867E+000  0.1000000E+03  0.7546771E-02  0.1280296E+00
         21   -1    0    0  503  502  0.00000000000E+00  0.00000000000E+00  0.21884077353E+03  0.21884077353E+03  0.00000000000E+00 0. -1.
         21   -1    0    0  501  503 -0.00000000000E+00 -0.00000000000E+00 -0.22638574497E+03  0.22638574497E+03  0.00000000000E+00 0. -1.
          6    1    1    2  501    0  0.61100321315E+02  0.33453255172E+02 -0.12528504593E+03  0.22467245555E+03  0.17300000000E+03 0. -1.
         -6    1    1    2    0  502 -0.61100321315E+02 -0.33453255172E+02  0.11774007449E+03  0.22055406296E+03  0.17300000000E+03 0. -1.
</event>
<event>
 4    1  0.5758867E+000  0.1000000E+03  0.7546771E-02  0.1280296E+00
         21   -1    0    0  503  502  0.00000000000E+00  0.00000000000E+00  0.43804527283E+03  0.43804527283E+03  0.00000000000E+00 0. -1.
         21   -1    0    0  501  503 -0.00000000000E+00 -0.00000000000E+00 -0.12102667855E+03  0.12102667855E+03  0.00000000000E+00 0. -1.
          6    1    1    2  501    0  0.10315239560E+03 -0.23724399017E+02  0.26166934284E+02  0.20449198585E+03  0.17300000000E+03 0. -1.
         -6    1    1    2    0  502 -0.10315239560E+03  0.23724399017E+02  0.29085166000E+03  0.35457996553E+03  0.17300000000E+03 0. -1.
</event>
<event>
 4    1  0.5758867E+000  0.1000000E+03  0.7546771E-02  0.1280296E+00
         21   -1    0    0  501  502  0.00000000000E+00  0.00000000000E+00  0.33106261414E+03  0.33106261414E+03  0.00000000000E+00 0.  1.
         21   -1    0    0  502  503 -0.00000000000E+00 -0.00000000000E+00 -0.16596767671E+03  0.16596767671E+03  0.00000000000E+00 0.  1.
          6    1    1    2  501    0 -0.10638626232E+03  0.47320920313E+02  0.19603985296E+03  0.28621308541E+03  0.17300000000E+03 0.  1.
         -6    1    1    2    0  503  0.10638626232E+03 -0.47320920313E+02 -0.30944915529E+02  0.21081720544E+03  0.17300000000E+03 0.  1.
</event>
<event>
 4    1  0.5758867E+000  0.1000000E+03  0.7546771E-02  0.1280296E+00
         21   -1    0    0  501  502  0.00000000000E+00  0.00000000000E+00  0.38087592919E+03  0.38087592919E+03  0.00000000000E+00 0.  1.
         21   -1    0    0  502  503 -0.00000000000E+00 -0.00000000000E+00 -0.13398100073E+03  0.13398100073E+03  0.00000000000E+00 0.  1.
          6    1    1    2  501    0  0.45118527263E+02 -0.13202773494E+03  0.16951415421E+03  0.27951932451E+03  0.17300000000E+03 0.  1.
         -6    1    1    2    0  503 -0.45118527263E+02  0.13202773494E+03  0.77380774251E+02  0.23533760541E+03  0.17300000000E+03 0.  1.
</event>
<event>
 4    1  0.5758867E+000  0.1000000E+03  0.7546771E-02  0.1280296E+00
         21   -1    0    0  503  502  0.00000000000E+00  0.00000000000E+00  0.13939239401E+03  0.13939239401E+03  0.00000000000E+00 0. -1.
         21   -1    0    0  501  503 -0.00000000000E+00 -0.00000000000E+00 -0.11797373102E+04  0.11797373102E+04  0.00000000000E+00 0. -1.
          6    1    1    2  501    0 -0.17572114498E+03 -0.39971636131E+02 -0.10397307366E+04  0.10693197170E+04  0.17300000000E+03 0. -1.
         -6    1    1    2    0  502  0.17572114498E+03  0.39971636131E+02 -0.61417956394E+00  0.24980998720E+03  0.17300000000E+03 0. -1.
</event>
<event>
 4    1  0.5758867E+000  0.1000000E+03  0.7546771E-02  0.1280296E+00
         21   -1    0    0  503  502  0.00000000000E+00  0.00000000000E+00  0.27457988112E+02  0.27457988112E+02  0.00000000000E+00 0. -1.
         21   -1    0    0  501  503 -0.00000000000E+00 -0.00000000000E+00 -0.18920808828E+04  0.18920808828E+04  0.00000000000E+00 0. -1.
          6    1    1    2  501    0 -0.70430664012E+02  0.11316752077E+03 -0.12070264041E+04  0.12266250879E+04  0.17300000000E+03 0. -1.
         -6    1    1    2    0  502  0.70430664012E+02 -0.11316752077E+03 -0.65759649064E+03  0.69291378301E+03  0.17300000000E+03 0. -1.
</event>
<event>
 4    1  0.5758867E+000  0.1000000E+03  0.7546771E-02  0.1280296E+00
         21   -1    0    0  501  502  0.00000000000E+00  0.00000000000E+00  0.76775009174E+03  0.76775009174E+03  0.00000000000E+00 0. -1.
         21   -1    0    0  502  503 -0.00000000000E+00 -0.00000000000E+00 -0.10116013503E+03  0.10116013503E+03  0.00000000000E+00 0. -1.
          6    1    1    2  501    0 -0.75513393092E+02  0.57085677163E+02  0.64027481499E+03  0.66995662978E+03  0.17300000000E+03 0. -1.
         -6    1    1    2    0  503  0.75513393092E+02 -0.57085677163E+02  0.26315141716E+02  0.19895359699E+03  0.17300000000E+03 0. -1.
</event>
<event>
 4    1  0.5758867E+000  0.1000000E+03  0.7546771E-02  0.1280296E+00
         21   -1    0    0  503  502  0.00000000000E+00  0.00000000000E+00  0.11019365837E+04  0.11019365837E+04  0.00000000000E+00 0.  1.
         21   -1    0    0  501  503 -0.00000000000E+00 -0.00000000000E+00 -0.13241184880E+03  0.13241184880E+03  0.00000000000E+00 0.  1.
          6    1    1    2  501    0  0.37715095786E+01 -0.33062683550E+03  0.35298328872E+03  0.51366772407E+03  0.17300000000E+03 0.  1.
         -6    1    1    2    0  502 -0.37715095786E+01  0.33062683550E+03  0.61654144616E+03  0.72068070841E+03  0.17300000000E+03 0.  1.
</event>
<event>
 4    1  0.5758867E+000  0.1000000E+03  0.7546771E-02  0.1280296E+00
         21   -1    0    0  503  502  0.00000000000E+00  0.00000000000E+00  0.63200693182E+03  0.63200693182E+03  0.00000000000E+00 0. -1.
         21   -1    0    0  501  503 -0.00000000000E+00 -0.00000000000E+00 -0.13480746474E+03  0.13480746474E+03  0.00000000000E+00 0. -1.
          6    1    1    2  501    0 -0.45868760465E+02  0.24900313663E+02 -0.52502080940E+02  0.18817395492E+03  0.17300000000E+03 0. -1.
         -6    1    1    2    0  502  0.45868760465E+02 -0.24900313663E+02  0.54970154802E+03  0.57864044164E+03  0.17300000000E+03 0. -1.
</event>
<event>
 4    1  0.5758867E+000  0.1000000E+03  0.7546771E-02  0.1280296E+00
         21   -1    0    0  503  502  0.00000000000E+00  0.00000000000E+00  0.87707902451E+02  0.87707902451E+02  0.00000000000E+00 0. -1.
         21   -1    0    0  501  503 -0.00000000000E+00 -0.00000000000E+00 -0.59828952492E+03  0.59828952492E+03  0.00000000000E+00 0. -1.
          6    1    1    2  501    0  0.14590409677E+03 -0.74146793166E+01 -0.30721893729E+03  0.38164834384E+03  0.17300000000E+03 0. -1.
         -6    1    1    2    0  502 -0.14590409677E+03  0.74146793166E+01 -0.20336268518E+03  0.30434908353E+03  0.17300000000E+03 0. -1.
</event>
<event>
 4    1  0.5758867E+000  0.1000000E+03  0.7546771E-02  0.1280296E+00
         21   -1    0    0  503  502  0.00000000000E+00  0.00000000000E+00  0.78480104912E+02  0.78480104912E+02  0.00000000000E+00 0. -1.
         21   -1    0    0  501  503 -0.00000000000E+00 -0.00000000000E+00 -0.47408798870E+03  0.47408798870E+03  0.00000000000E+00 0. -1.
          6    1    1    2  501    0 -0.45691251720E+02 -0.69348163257E+02 -0.16985981427E+03  0.25627761263E+03  0.17300000000E+03 0. -1.
         -6    1    1    2    0  502  0.45691251720E+02  0.69348163257E+02 -0.22574806952E+03  0.29629048098E+03  0.17300000000E+03 0. -1.
</event>
<event>
 4    1  0.5758867E+000  0.1000000E+03  0.7546771E-02  0.1280296E+00
         21   -1    0    0  503  502  0.00000000000E+00  0.00000000000E+00  0.22066823170E+03  0.22066823170E+03  0.00000000000E+00 0. -1.
         21   -1    0    0  501  503 -0.00000000000E+00 -0.00000000000E+00 -0.16819330487E+03  0.16819330487E+03  0.00000000000E+00 0. -1.
          6    1    1    2  501    0  0.10385994286E+02  0.79522608899E+02 -0.14788476184E+01  0.19069059021E+03  0.17300000000E+03 0. -1.
         -6    1    1    2    0  502 -0.10385994286E+02 -0.79522608899E+02  0.53953774454E+02  0.19817094636E+03  0.17300000000E+03 0. -1.
</event>
<event>
 4    1  0.5758867E+000  0.1000000E+03  0.7546771E-02  0.1280296E+00
         21   -1    0    0  503  502  0.00000000000E+00  0.00000000000E+00  0.34311789117E+02  0.34311789117E+02  0.00000000000E+00 0. -1.
         21   -1    0    0  501  503 -0.00000000000E+00 -0.00000000000E+00 -0.99592314194E+03  0.99592314194E+03  0.00000000000E+00 0. -1.
          6    1    1    2  501    0 -0.32839104661E+02 -0.41126819115E+02 -0.58775677680E+03  0.61494459158E+03  0.17300000000E+03 0. -1.
         -6    1    1    2    0  502  0.32839104661E+02  0.41126819115E+02 -0.37385457603E+03  0.41529033947E+03  0.17300000000E+03 0. -1.
</event>
<event>
 4    1  0.5758867E+000  0.1000000E+03  0.7546771E-02  0.1280296E+00
         21   -1    0    0  503  502  0.00000000000E+00  0.00000000000E+00  0.10494378663E+03  0.10494378663E+03  0.00000000000E+00 0.  1.
         21   -1    0    0  501  503 -0.00000000000E+00 -0.00000000000E+00 -0.76336171951E+03  0.76336171951E+03  0.00000000000E+00 0.  1.
          6    1    1    2  501    0  0.41844065084E+02 -0.28246806811E+01 -0.66674574881E+03  0.69009984652E+03  0.17300000000E+03 0.  1.
         -6    1    1    2    0  502 -0.41844065084E+02  0.28246806811E+01  0.83278159263E+01  0.17820565962E+03  0.17300000000E+03 0.  1.
</event>
<event>
 4    1  0.5758867E+000  0.1000000E+03  0.7546771E-02  0.1280296E+00
         21   -1    0    0  503  502  0.00000000000E+00  0.00000000000E+00  0.23065090294E+03  0.23065090294E+03  0.00000000000E+00 0.  1.
         21   -1    0    0  501  503 -0.00000000000E+00 -0.00000000000E+00 -0.44684412395E+03  0.44684412395E+03  0.00000000000E+00 0.  1.
          6    1    1    2  501    0 -0.14551401438E+02  0.21958859351E+03 -0.27394600116E+03  0.39167116978E+03  0.17300000000E+03 0.  1.
         -6    1    1    2    0  502  0.14551401438E+02 -0.21958859351E+03  0.57752780151E+02  0.28582385712E+03  0.17300000000E+03 0.  1.
</event>
<event>
 4    1  0.5758867E+000  0.1000000E+03  0.7546771E-02  0.1280296E+00
         21   -1    0    0  503  502  0.00000000000E+00  0.00000000000E+00  0.25891946000E+03  0.25891946000E+03  0.00000000000E+00 0.  1.
         21   -1    0    0  501  503 -0.00000000000E+00 -0.00000000000E+00 -0.41969183718E+03  0.41969183718E+03  0.00000000000E+00 0.  1.
          6    1    1    2  501    0  0.15304805291E+02 -0.27387003132E+03 -0.14126627777E+03  0.35372898151E+03  0.17300000000E+03 0.  1.
         -6    1    1    2    0  502 -0.15304805291E+02  0.27387003132E+03 -0.19506099408E+02  0.32488231567E+03  0.17300000000E+03 0.  1.
</event>
<event>
 4    1  0.5758867E+000  0.1000000E+03  0.7546771E-02  0.1280296E+00
         21   -1    0    0  503  502  0.00000000000E+00  0.00000000000E+00  0.33203589739E+03  0.33203589739E+03  0.00000000000E+00 0.  1.
         21   -1    0    0  501  503 -0.00000000000E+00 -0.00000000000E+00 -0.10458733341E+03  0.10458733341E+03  0.00000000000E+00 0.  1.
          6    1    1    2  501    0  0.41823363401E+02  0.52836507314E+02  0.94948758038E+02  0.20853094946E+03  0.17300000000E+03 0.  1.
         -6    1    1    2    0  502 -0.41823363401E+02 -0.52836507314E+02  0.13249980594E+03  0.22809228133E+03  0.17300000000E+03 0.  1.
</event>
<event>
 4    1  0.5758867E+000  0.1000000E+03  0.7546771E-02  0.1280296E+00
         21   -1    0    0  503  502  0.00000000000E+00  0.00000000000E+00  0.19617273637E+04  0.19617273637E+04  0.00000000000E+00 0.  1.
         21   -1    0    0  501  503 -0.00000000000E+00 -0.00000000000E+00 -0.16976280382E+02  0.16976280382E+02  0.00000000000E+00 0.  1.
          6    1    1    2  501    0  0.55620290962E+01  0.51836310165E+02  0.83353152438E+03  0.85289022819E+03  0.17300000000E+03 0.  1.
         -6    1    1    2    0  502 -0.55620290962E+01 -0.51836310165E+02  0.11112195589E+04  0.11258134159E+04  0.17300000000E+03 0.  1.
</event>
<event>
 4    1  0.5758867E+000  0.1000000E+03  0.7546771E-02  0.1280296E+00
         21   -1    0    0  501  502  0.00000000000E+00  0.00000000000E+00  0.53022023606E+03  0.53022023606E+03  0.00000000000E+00 0. -1.
         21   -1    0    0  502  503 -0.00000000000E+00 -0.00000000000E+00 -0.16687096069E+03  0.16687096069E+03  0.00000000000E+00 0. -1.
          6    1    1    2  501    0 -0.48402421703E+01  0.84981098015E+02  0.44708464757E+03  0.48688694484E+03  0.17300000000E+03 0. -1.
         -6    1    1    2    0  503  0.48402421703E+01 -0.84981098015E+02 -0.83735372204E+02  0.21020425191E+03  0.17300000000E+03 0. -1.
</event>
<event>
 4    1  0.5758867E+000  0.1000000E+03  0.7546771E-02  0.1280296E+00
         21   -1    0    0  501  502  0.00000000000E+00  0.00000000000E+00  0.21307797676E+03  0.21307797676E+03  0.00000000000E+00 0. -1.
         21   -1    0    0  502  503 -0.00000000000E+00 -0.00000000000E+00 -0.27736688844E+03  0.27736688844E+03  0.00000000000E+00 0. -1.
          6    1    1    2  501    0  0.11648068317E+03  0.10827541843E+03  0.30691060954E+02  0.23698577385E+03  0.17300000000E+03 0. -1.
         -6    1    1    2    0  503 -0.11648068317E+03 -0.10827541843E+03 -0.94979972625E+02  0.25345909135E+03  0.17300000000E+03 0. -1.
</event>
<event>
 4    1  0.5758867E+000  0.1000000E+03  0.7546771E-02  0.1280296E+00
         21   -1    0    0  501  502  0.00000000000E+00  0.00000000000E+00  0.76167401949E+02  0.76167401949E+02  0.00000000000E+00 0. -1.
         21   -1    0    0  502  503 -0.00000000000E+00 -0.00000000000E+00 -0.54441223871E+03  0.54441223871E+03  0.00000000000E+00 0. -1.
          6    1    1    2  501    0 -0.32783364999E+02  0.99639914678E+02 -0.26935424806E+03  0.33687322922E+03  0.17300000000E+03 0. -1.
         -6    1    1    2    0  503  0.32783364999E+02 -0.99639914678E+02 -0.19889058871E+03  0.28370641144E+03  0.17300000000E+03 0. -1.
</event>
<event>
 4    1  0.5758867E+000  0.1000000E+03  0.7546771E-02  0.1280296E+00
         21   -1    0    0  503  502  0.00000000000E+00  0.00000000000E+00  0.13936789130E+04  0.13936789130E+04  0.00000000000E+00 0. -1.
         21   -1    0    0  501  503 -0.00000000000E+00 -0.00000000000E+00 -0.34472358398E+02  0.34472358398E+02  0.00000000000E+00 0. -1.
          6    1    1    2  501    0  0.97832985686E+01 -0.59952400620E+02  0.28833362311E+03  0.34169471972E+03  0.17300000000E+03 0. -1.
         -6    1    1    2    0  502 -0.97832985686E+01  0.59952400620E+02  0.10708729314E+04  0.10864565516E+04  0.17300000000E+03 0. -1.
</event>
<event>
 4    1  0.5758867E+000  0.1000000E+03  0.7546771E-02  0.1280296E+00
         21   -1    0    0  503  502  0.00000000000E+00  0.00000000000E+00  0.82088734061E+02  0.82088734061E+02  0.00000000000E+00 0. -1.
         21   -1    0    0  501  503 -0.00000000000E+00 -0.00000000000E+00 -0.10312404226E+04  0.10312404226E+04  0.00000000000E+00 0. -1.
          6    1    1    2  501    0 -0.45286483714E+02  0.76292299531E+02 -0.88870881286E+03  0.90972728585E+03  0.17300000000E+03 0. -1.
         -6    1    1    2    0  502  0.45286483714E+02 -0.76292299531E+02 -0.60442875678E+02  0.20360187080E+03  0.17300000000E+03 0. -1.
</event>
<event>
 4    1  0.5758867E+000  0.1000000E+03  0.7546771E-02  0.1280296E+00
         21   -1    0    0  503  502  0.00000000000E+00  0.00000000000E+00  0.27766772476E+03  0.27766772476E+03  0.00000000000E+00 0. -1.
         21   -1    0    0  501  503 -0.00000000000E+00 -0.00000000000E+00 -0.13527199082E+03  0.13527199082E+03  0.00000000000E+00 0.  1.
          6    1    1    2  501    0  0.15307423001E+02 -0.30979675319E+02 -0.14279728270E+02  0.17699426014E+03  0.17300000000E+03 0. -1.
         -6    1    1    2    0  502 -0.15307423001E+02  0.30979675319E+02  0.15667546221E+03  0.23594545544E+03  0.17300000000E+03 0. -1.
</event>
<event>
 4    1  0.5758867E+000  0.1000000E+03  0.7546771E-02  0.1280296E+00
         21   -1    0    0  503  502  0.00000000000E+00  0.00000000000E+00  0.19200869822E+03  0.19200869822E+03  0.00000000000E+00 0. -1.
         21   -1    0    0  501  503 -0.00000000000E+00 -0.00000000000E+00 -0.19635456117E+03  0.19635456117E+03  0.00000000000E+00 0. -1.
          6    1    1    2  501    0 -0.76876012738E+02 -0.34433767536E+02 -0.28197204843E+02  0.19447284654E+03  0.17300000000E+03 0. -1.
         -6    1    1    2    0  502  0.76876012738E+02  0.34433767536E+02  0.23851341894E+02  0.19389041284E+03  0.17300000000E+03 0. -1.
</event>
<event>
 4    1  0.5758867E+000  0.1000000E+03  0.7546771E-02  0.1280296E+00
         21   -1    0    0  503  502  0.00000000000E+00  0.00000000000E+00  0.23663223281E+03  0.23663223281E+03  0.00000000000E+00 0. -1.
         21   -1    0    0  501  503 -0.00000000000E+00 -0.00000000000E+00 -0.19745413687E+03  0.19745413687E+03  0.00000000000E+00 0. -1.
          6    1    1    2  501    0 -0.28796991087E+02 -0.98408973422E+02 -0.59991150753E+02  0.20986074172E+03  0.17300000000E+03 0.  1.
         -6    1    1    2    0  502  0.28796991087E+02  0.98408973422E+02  0.99169246699E+02  0.22422562797E+03  0.17300000000E+03 0.  1.
</event>
<event>
 4    1  0.5758867E+000  0.1000000E+03  0.7546771E-02  0.1280296E+00
         21   -1    0    0  503  502  0.00000000000E+00  0.00000000000E+00  0.97126918425E+02  0.97126918425E+02  0.00000000000E+00 0. -1.
         21   -1    0    0  501  503 -0.00000000000E+00 -0.00000000000E+00 -0.40610593020E+03  0.40610593020E+03  0.00000000000E+00 0. -1.
          6    1    1    2  501    0  0.64272359004E+02  0.40737164781E+02 -0.23180661797E+03  0.29908821585E+03  0.17300000000E+03 0.  1.
         -6    1    1    2    0  502 -0.64272359004E+02 -0.40737164781E+02 -0.77172393813E+02  0.20414463278E+03  0.17300000000E+03 0.  1.
</event>
<event>
 4    1  0.5758867E+000  0.1000000E+03  0.7546771E-02  0.1280296E+00
         21   -1    0    0  501  502  0.00000000000E+00  0.00000000000E+00  0.97163360915E+02  0.97163360915E+02  0.00000000000E+00 0.  1.
         21   -1    0    0  502  503 -0.00000000000E+00 -0.00000000000E+00 -0.40311063990E+03  0.40311063990E+03  0.00000000000E+00 0.  1.
          6    1    1    2  501    0  0.11894939154E+02  0.75832092828E+02 -0.79857085709E+02  0.20542188301E+03  0.17300000000E+03 0.  1.
         -6    1    1    2    0  503 -0.11894939154E+02 -0.75832092828E+02 -0.22609019327E+03  0.29485211780E+03  0.17300000000E+03 0.  1.
</event>
<event>
 4    1  0.5758867E+000  0.1000000E+03  0.7546771E-02  0.1280296E+00
         21   -1    0    0  503  502  0.00000000000E+00  0.00000000000E+00  0.10082585342E+03  0.10082585342E+03  0.00000000000E+00 0. -1.
         21   -1    0    0  501  503 -0.00000000000E+00 -0.00000000000E+00 -0.43761219282E+03  0.43761219282E+03  0.00000000000E+00 0. -1.
          6    1    1    2  501    0 -0.24022391145E+02 -0.44777235010E+02 -0.30650157843E+03  0.35560412488E+03  0.17300000000E+03 0. -1.
         -6    1    1    2    0  502  0.24022391145E+02  0.44777235010E+02 -0.30284760976E+02  0.18283392136E+03  0.17300000000E+03 0. -1.
</event>
<event>
 4    1  0.5758867E+000  0.1000000E+03  0.7546771E-02  0.1280296E+00
         21   -1    0    0  503  502  0.00000000000E+00  0.00000000000E+00  0.20572836469E+03  0.20572836469E+03  0.00000000000E+00 0. -1.
         21   -1    0    0  501  503 -0.00000000000E+00 -0.00000000000E+00 -0.22681001239E+03  0.22681001239E+03  0.00000000000E+00 0. -1.
          6    1    1    2  501    0 -0.11176865641E+03 -0.24443438222E+02 -0.70966085672E+02  0.21921427769E+03  0.17300000000E+03 0. -1.
         -6    1    1    2    0  502  0.11176865641E+03  0.24443438222E+02  0.49884437970E+02  0.21332409939E+03  0.17300000000E+03 0. -1.
</event>
<event>
 4    1  0.5758867E+000  0.1000000E+03  0.7546771E-02  0.1280296E+00
         21   -1    0    0  503  502  0.00000000000E+00  0.00000000000E+00  0.21048993562E+03  0.21048993562E+03  0.00000000000E+00 0. -1.
         21   -1    0    0  501  503 -0.00000000000E+00 -0.00000000000E+00 -0.24236562177E+03  0.24236562177E+03  0.00000000000E+00 0. -1.
          6    1    1    2  501    0 -0.10147812895E+03 -0.61639860548E+02 -0.99747398994E+02  0.23232698222E+03  0.17300000000E+03 0. -1.
         -6    1    1    2    0  502  0.10147812895E+03  0.61639860548E+02  0.67871712838E+02  0.22052857517E+03  0.17300000000E+03 0. -1.
</event>
<event>
 4    1  0.5758867E+000  0.1000000E+03  0.7546771E-02  0.1280296E+00
         21   -1    0    0  503  502  0.00000000000E+00  0.00000000000E+00  0.77533024319E+03  0.77533024319E+03  0.00000000000E+00 0.  1.
         21   -1    0    0  501  503 -0.00000000000E+00 -0.00000000000E+00 -0.20937907843E+03  0.20937907843E+03  0.00000000000E+00 0.  1.
          6    1    1    2  501    0 -0.96896422898E+02 -0.18646791712E+03 -0.80039562478E+02  0.28371558372E+03  0.17300000000E+03 0.  1.
         -6    1    1    2    0  502  0.96896422898E+02  0.18646791712E+03  0.64599072724E+03  0.70099373790E+03  0.17300000000E+03 0.  1.
</event>
<event>
 4    1  0.5758867E+000  0.1000000E+03  0.7546771E-02  0.1280296E+00
         21   -1    0    0  503  502  0.00000000000E+00  0.00000000000E+00  0.21967880246E+04  0.21967880246E+04  0.00000000000E+00 0.  1.
         21   -1    0    0  501  503 -0.00000000000E+00 -0.00000000000E+00 -0.16565717989E+03  0.16565717989E+03  0.00000000000E+00 0.  1.
          6    1    1    2  501    0  0.52179304050E+03 -0.21158905407E+03  0.76066154337E+03  0.96206698753E+03  0.17300000000E+03 0.  1.
         -6    1    1    2    0  502 -0.52179304050E+03  0.21158905407E+03  0.12704693013E+04  0.14003782169E+04  0.17300000000E+03 0.  1.
</event>
<event>
 4    1  0.5758867E+000  0.1000000E+03  0.7546771E-02  0.1280296E+00
         21   -1    0    0  503  502  0.00000000000E+00  0.00000000000E+00  0.45628187449E+03  0.45628187449E+03  0.00000000000E+00 0.  1.
         21   -1    0    0  501  503 -0.00000000000E+00 -0.00000000000E+00 -0.12253156215E+03  0.12253156215E+03  0.00000000000E+00 0.  1.
          6    1    1    2  501    0  0.10220391649E+03  0.29512382607E+02  0.18662934603E+02  0.20394589086E+03  0.17300000000E+03 0.  1.
         -6    1    1    2    0  502 -0.10220391649E+03 -0.29512382607E+02  0.31508737774E+03  0.37486754578E+03  0.17300000000E+03 0.  1.
</event>
<event>
 4    1  0.5758867E+000  0.1000000E+03  0.7546771E-02  0.1280296E+00
         21   -1    0    0  501  502  0.00000000000E+00  0.00000000000E+00  0.34832764323E+03  0.34832764323E+03  0.00000000000E+00 0.  1.
         21   -1    0    0  502  503 -0.00000000000E+00 -0.00000000000E+00 -0.41379728470E+03  0.41379728470E+03  0.00000000000E+00 0. -1.
          6    1    1    2  501    0 -0.29846891152E+00 -0.20705331085E+03  0.23534579261E+03  0.35803324526E+03  0.17300000000E+03 0.  1.
         -6    1    1    2    0  503  0.29846891152E+00  0.20705331085E+03 -0.30081543408E+03  0.40409168266E+03  0.17300000000E+03 0. -1.
</event>
<event>
 4    1  0.5758867E+000  0.1000000E+03  0.7546771E-02  0.1280296E+00
         21   -1    0    0  501  502  0.00000000000E+00  0.00000000000E+00  0.81773202492E+03  0.81773202492E+03  0.00000000000E+00 0.  1.
         21   -1    0    0  502  503 -0.00000000000E+00 -0.00000000000E+00 -0.47928377127E+03  0.47928377127E+03  0.00000000000E+00 0. -1.
          6    1    1    2  501    0  0.71244693230E+02  0.12777257161E+03  0.77377460920E+03  0.80626160904E+03  0.17300000000E+03 0.  1.
         -6    1    1    2    0  503 -0.71244693230E+02 -0.12777257161E+03 -0.43532635555E+03  0.49075418715E+03  0.17300000000E+03 0. -1.
</event>
<event>
 4    1  0.5758867E+000  0.1000000E+03  0.7546771E-02  0.1280296E+00
         21   -1    0    0  503  502  0.00000000000E+00  0.00000000000E+00  0.34331382825E+03  0.34331382825E+03  0.00000000000E+00 0. -1.
         21   -1    0    0  501  503 -0.00000000000E+00 -0.00000000000E+00 -0.14070393369E+03  0.14070393369E+03  0.00000000000E+00 0.  1.
          6    1    1    2  501    0  0.18233583372E+02 -0.12152523404E+03  0.38283470327E+02  0.21562808298E+03  0.17300000000E+03 0.  1.
         -6    1    1    2    0  502 -0.18233583372E+02  0.12152523404E+03  0.16432642423E+03  0.26838967895E+03  0.17300000000E+03 0. -1.
</event>
<event>
 4    1  0.5758867E+000  0.1000000E+03  0.7546771E-02  0.1280296E+00
         21   -1    0    0  503  502  0.00000000000E+00  0.00000000000E+00  0.63159990614E+03  0.63159990614E+03  0.00000000000E+00 0. -1.
         21   -1    0    0  501  503 -0.00000000000E+00 -0.00000000000E+00 -0.98996524796E+02  0.98996524796E+02  0.00000000000E+00 0.  1.
          6    1    1    2  501    0 -0.11629836791E+03  0.75827772898E+02  0.97684511171E+02  0.24237661860E+03  0.17300000000E+03 0.  1.
         -6    1    1    2    0  502  0.11629836791E+03 -0.75827772898E+02  0.43491887017E+03  0.48821981233E+03  0.17300000000E+03 0. -1.
</event>
<event>
 4    1  0.5758867E+000  0.1000000E+03  0.7546771E-02  0.1280296E+00
         21   -1    0    0  501  502  0.00000000000E+00  0.00000000000E+00  0.48106322034E+03  0.48106322034E+03  0.00000000000E+00 0. -1.
         21   -1    0    0  502  503 -0.00000000000E+00 -0.00000000000E+00 -0.14289248957E+03  0.14289248957E+03  0.00000000000E+00 0. -1.
          6    1    1    2  501    0 -0.16230243397E+03  0.80325491179E+02  0.26138713706E+03  0.36200345306E+03  0.17300000000E+03 0. -1.
         -6    1    1    2    0  503  0.16230243397E+03 -0.80325491179E+02  0.76783593718E+02  0.26195225685E+03  0.17300000000E+03 0. -1.
</event>
<event>
 4    1  0.5758867E+000  0.1000000E+03  0.7546771E-02  0.1280296E+00
         21   -1    0    0  501  502  0.00000000000E+00  0.00000000000E+00  0.12370902010E+04  0.12370902010E+04  0.00000000000E+00 0. -1.
         21   -1    0    0  502  503 -0.00000000000E+00 -0.00000000000E+00 -0.48448266552E+02  0.48448266552E+02  0.00000000000E+00 0. -1.
          6    1    1    2  501    0  0.91474959881E+02 -0.86079856888E+02  0.90750117846E+03  0.93234371289E+03  0.17300000000E+03 0. -1.
         -6    1    1    2    0  503 -0.91474959881E+02  0.86079856888E+02  0.28114075598E+03  0.35319475466E+03  0.17300000000E+03 0. -1.
</event>
<event>
 4    1  0.5758867E+000  0.1000000E+03  0.7546771E-02  0.1280296E+00
         21   -1    0    0  501  502  0.00000000000E+00  0.00000000000E+00  0.16980974077E+03  0.16980974077E+03  0.00000000000E+00 0. -1.
         21   -1    0    0  502  503 -0.00000000000E+00 -0.00000000000E+00 -0.25553709945E+03  0.25553709945E+03  0.00000000000E+00 0. -1.
          6    1    1    2  501    0  0.99748256201E+02  0.44206385865E+02 -0.25423223189E+01  0.20454677355E+03  0.17300000000E+03 0. -1.
         -6    1    1    2    0  503 -0.99748256201E+02 -0.44206385865E+02 -0.83185036360E+02  0.22080006667E+03  0.17300000000E+03 0. -1.
</event>
<event>
 4    1  0.5758867E+000  0.1000000E+03  0.7546771E-02  0.1280296E+00
         21   -1    0    0  501  502  0.00000000000E+00  0.00000000000E+00  0.41718776088E+02  0.41718776088E+02  0.00000000000E+00 0. -1.
         21   -1    0    0  502  503 -0.00000000000E+00 -0.00000000000E+00 -0.20378399628E+04  0.20378399628E+04  0.00000000000E+00 0. -1.
          6    1    1    2  501    0  0.87915465695E+01 -0.64160582820E+02 -0.19357039004E+03  0.26756750097E+03  0.17300000000E+03 0. -1.
         -6    1    1    2    0  503 -0.87915465695E+01  0.64160582820E+02 -0.18025507966E+04  0.18119912379E+04  0.17300000000E+03 0. -1.
</event>
<event>
 4    1  0.5758867E+000  0.1000000E+03  0.7546771E-02  0.1280296E+00
         21   -1    0    0  501  502  0.00000000000E+00  0.00000000000E+00  0.51512487489E+03  0.51512487489E+03  0.00000000000E+00 0. -1.
         21   -1    0    0  502  503 -0.00000000000E+00 -0.00000000000E+00 -0.16251946897E+03  0.16251946897E+03  0.00000000000E+00 0.  1.
          6    1    1    2  501    0 -0.73418206055E+02 -0.35614792053E+02  0.43052426838E+03  0.47110380179E+03  0.17300000000E+03 0.  1.
         -6    1    1    2    0  503  0.73418206055E+02  0.35614792053E+02 -0.77918862453E+02  0.20654054207E+03  0.17300000000E+03 0. -1.
</event>
<event>
 4    1  0.5758867E+000  0.1000000E+03  0.7546771E-02  0.1280296E+00
         21   -1    0    0  501  502  0.00000000000E+00  0.00000000000E+00  0.94958998773E+02  0.94958998773E+02  0.00000000000E+00 0. -1.
         21   -1    0    0  502  503 -0.00000000000E+00 -0.00000000000E+00 -0.98905685061E+03  0.98905685061E+03  0.00000000000E+00 0.  1.
          6    1    1    2  501    0 -0.13134720170E+03  0.21576470872E+03 -0.42303572268E+03  0.52220179968E+03  0.17300000000E+03 0.  1.
         -6    1    1    2    0  503  0.13134720170E+03 -0.21576470872E+03 -0.47106212915E+03  0.56181404970E+03  0.17300000000E+03 0. -1.
</event>
<event>
 4    1  0.5758867E+000  0.1000000E+03  0.7546771E-02  0.1280296E+00
         21   -1    0    0  501  502  0.00000000000E+00  0.00000000000E+00  0.48716469144E+02  0.48716469144E+02  0.00000000000E+00 0. -1.
         21   -1    0    0  502  503 -0.00000000000E+00 -0.00000000000E+00 -0.21364396659E+04  0.21364396659E+04  0.00000000000E+00 0.  1.
          6    1    1    2  501    0 -0.21872142790E+03 -0.11850503046E+03 -0.14189739013E+04  0.14509646576E+04  0.17300000000E+03 0.  1.
         -6    1    1    2    0  503  0.21872142790E+03  0.11850503046E+03 -0.66874929548E+03  0.73419147739E+03  0.17300000000E+03 0. -1.
</event>
<event>
 4    1  0.5758867E+000  0.1000000E+03  0.7546771E-02  0.1280296E+00
         21   -1    0    0  501  502  0.00000000000E+00  0.00000000000E+00  0.24533209504E+03  0.24533209504E+03  0.00000000000E+00 0.  1.
         21   -1    0    0  502  503 -0.00000000000E+00 -0.00000000000E+00 -0.57396353976E+03  0.57396353976E+03  0.00000000000E+00 0.  1.
          6    1    1    2  501    0 -0.19142264181E+03 -0.10812473121E+03  0.10870889995E+03  0.30013365394E+03  0.17300000000E+03 0.  1.
         -6    1    1    2    0  503  0.19142264181E+03  0.10812473121E+03 -0.43734034467E+03  0.51916198086E+03  0.17300000000E+03 0.  1.
</event>
<event>
 4    1  0.5758867E+000  0.1000000E+03  0.7546771E-02  0.1280296E+00
         21   -1    0    0  501  502  0.00000000000E+00  0.00000000000E+00  0.22529950047E+03  0.22529950047E+03  0.00000000000E+00 0.  1.
         21   -1    0    0  502  503 -0.00000000000E+00 -0.00000000000E+00 -0.23644798104E+03  0.23644798104E+03  0.00000000000E+00 0.  1.
          6    1    1    2  501    0 -0.11132972103E+03 -0.31621151947E+02  0.94196550366E+02  0.22846486411E+03  0.17300000000E+03 0.  1.
         -6    1    1    2    0  503  0.11132972103E+03  0.31621151947E+02 -0.10534503094E+03  0.23328261740E+03  0.17300000000E+03 0.  1.
</event>
<event>
 4    1  0.5758867E+000  0.1000000E+03  0.7546771E-02  0.1280296E+00
         21   -1    0    0  503  502  0.00000000000E+00  0.00000000000E+00  0.21606726903E+04  0.21606726903E+04  0.00000000000E+00 0. -1.
         21   -1    0    0  501  503 -0.00000000000E+00 -0.00000000000E+00 -0.16170053261E+02  0.16170053261E+02  0.00000000000E+00 0. -1.
          6    1    1    2  501    0 -0.36696091733E+02  0.54921662340E+02  0.92422789828E+03  0.94259705076E+03  0.17300000000E+03 0. -1.
         -6    1    1    2    0  502  0.36696091733E+02 -0.54921662340E+02  0.12202747387E+04  0.12342456928E+04  0.17300000000E+03 0. -1.
</event>
<event>
 4    1  0.5758867E+000  0.1000000E+03  0.7546771E-02  0.1280296E+00
         21   -1    0    0  503  502  0.00000000000E+00  0.00000000000E+00  0.11205258904E+04  0.11205258904E+04  0.00000000000E+00 0.  1.
         21   -1    0    0  501  503 -0.00000000000E+00 -0.00000000000E+00 -0.11284160297E+03  0.11284160297E+03  0.00000000000E+00 0. -1.
          6    1    1    2  501    0 -0.13054030157E+03 -0.32952022072E+01  0.14970566309E+02  0.21726653343E+03  0.17300000000E+03 0.  1.
         -6    1    1    2    0  502  0.13054030157E+03  0.32952022072E+01  0.99271372108E+03  0.10161009599E+04  0.17300000000E+03 0.  1.
</event>
<event>
 4    1  0.5758867E+000  0.1000000E+03  0.7546771E-02  0.1280296E+00
         21   -1    0    0  503  502  0.00000000000E+00  0.00000000000E+00  0.92482539735E+02  0.92482539735E+02  0.00000000000E+00 0.  1.
         21   -1    0    0  501  503 -0.00000000000E+00 -0.00000000000E+00 -0.44212414374E+03  0.44212414374E+03  0.00000000000E+00 0. -1.
          6    1    1    2  501    0  0.13409732394E+02  0.94205454188E+02 -0.23252152463E+03  0.30504056770E+03  0.17300000000E+03 0.  1.
         -6    1    1    2    0  502 -0.13409732394E+02 -0.94205454188E+02 -0.11712007937E+03  0.22956611578E+03  0.17300000000E+03 0.  1.
</event>
<event>
 4    1  0.5758867E+000  0.1000000E+03  0.7546771E-02  0.1280296E+00
         21   -1    0    0  503  502  0.00000000000E+00  0.00000000000E+00  0.64964257775E+03  0.64964257775E+03  0.00000000000E+00 0.  1.
         21   -1    0    0  501  503 -0.00000000000E+00 -0.00000000000E+00 -0.12903839800E+03  0.12903839800E+03  0.00000000000E+00 0. -1.
          6    1    1    2  501    0 -0.14721774208E+03  0.10953355973E+03  0.69043075435E+02  0.26147009495E+03  0.17300000000E+03 0.  1.
         -6    1    1    2    0  502  0.14721774208E+03 -0.10953355973E+03  0.45156110431E+03  0.51721088080E+03  0.17300000000E+03 0.  1.
</event>
<event>
 4    1  0.5758867E+000  0.1000000E+03  0.7546771E-02  0.1280296E+00
         21   -1    0    0  503  502  0.00000000000E+00  0.00000000000E+00  0.53912407497E+03  0.53912407497E+03  0.00000000000E+00 0. -1.
         21   -1    0    0  501  503 -0.00000000000E+00 -0.00000000000E+00 -0.20050799891E+03  0.20050799891E+03  0.00000000000E+00 0.  1.
          6    1    1    2  501    0  0.19300176435E+03  0.16588493821E+03  0.39092292106E+02  0.31020106555E+03  0.17300000000E+03 0. -1.
         -6    1    1    2    0  502 -0.19300176435E+03 -0.16588493821E+03  0.29952378395E+03  0.42943100833E+03  0.17300000000E+03 0.  1.
</event>
<event>
 4    1  0.5758867E+000  0.1000000E+03  0.7546771E-02  0.1280296E+00
         21   -1    0    0  503  502  0.00000000000E+00  0.00000000000E+00  0.32160323772E+02  0.32160323772E+02  0.00000000000E+00 0.  1.
         21   -1    0    0  501  503 -0.00000000000E+00 -0.00000000000E+00 -0.16464486064E+04  0.16464486064E+04  0.00000000000E+00 0.  1.
          6    1    1    2  501    0 -0.36721776625E+02  0.24474143161E+02 -0.13366334026E+04  0.13485048481E+04  0.17300000000E+03 0.  1.
         -6    1    1    2    0  502  0.36721776625E+02 -0.24474143161E+02 -0.27765488006E+03  0.33010408205E+03  0.17300000000E+03 0.  1.
</event>
<event>
 4    1  0.5758867E+000  0.1000000E+03  0.7546771E-02  0.1280296E+00
         21   -1    0    0  503  502  0.00000000000E+00  0.00000000000E+00  0.23171455238E+03  0.23171455238E+03  0.00000000000E+00 0.  1.
         21   -1    0    0  501  503 -0.00000000000E+00 -0.00000000000E+00 -0.45094071974E+03  0.45094071974E+03  0.00000000000E+00 0.  1.
          6    1    1    2  501    0  0.10977882237E+03  0.17373460575E+03 -0.29946159062E+03  0.40229509981E+03  0.17300000000E+03 0.  1.
         -6    1    1    2    0  502 -0.10977882237E+03 -0.17373460575E+03  0.80235423253E+02  0.28036017231E+03  0.17300000000E+03 0.  1.
</event>
<event>
 4    1  0.5758867E+000  0.1000000E+03  0.7546771E-02  0.1280296E+00
         21   -1    0    0  503  502  0.00000000000E+00  0.00000000000E+00  0.22276201553E+03  0.22276201553E+03  0.00000000000E+00 0. -1.
         21   -1    0    0  501  503 -0.00000000000E+00 -0.00000000000E+00 -0.21881501129E+03  0.21881501129E+03  0.00000000000E+00 0. -1.
          6    1    1    2  501    0 -0.13064601667E+02  0.12615720043E+03 -0.50262193595E+02  0.22032160843E+03  0.17300000000E+03 0. -1.
         -6    1    1    2    0  502  0.13064601667E+02 -0.12615720043E+03  0.54209197830E+02  0.22125541839E+03  0.17300000000E+03 0. -1.
</event>
<event>
 4    1  0.5758867E+000  0.1000000E+03  0.7546771E-02  0.1280296E+00
         21   -1    0    0  503  502  0.00000000000E+00  0.00000000000E+00  0.10041546403E+04  0.10041546403E+04  0.00000000000E+00 0. -1.
         21   -1    0    0  501  503 -0.00000000000E+00 -0.00000000000E+00 -0.11563310573E+03  0.11563310573E+03  0.00000000000E+00 0. -1.
          6    1    1    2  501    0 -0.23049504804E+03  0.31428384193E+02  0.15001804031E+03  0.32642016317E+03  0.17300000000E+03 0. -1.
         -6    1    1    2    0  502  0.23049504804E+03 -0.31428384193E+02  0.73850349423E+03  0.79336758283E+03  0.17300000000E+03 0. -1.
</event>
<event>
 4    1  0.5758867E+000  0.1000000E+03  0.7546771E-02  0.1280296E+00
         21   -1    0    0  503  502  0.00000000000E+00  0.00000000000E+00  0.10891251853E+04  0.10891251853E+04  0.00000000000E+00 0. -1.
         21   -1    0    0  501  503 -0.00000000000E+00 -0.00000000000E+00 -0.29917010678E+03  0.29917010678E+03  0.00000000000E+00 0. -1.
          6    1    1    2  501    0  0.15499397424E+02 -0.21495184927E+02 -0.26573692736E+03  0.31819394849E+03  0.17300000000E+03 0. -1.
         -6    1    1    2    0  502 -0.15499397424E+02  0.21495184927E+02  0.10556920059E+04  0.10701013436E+04  0.17300000000E+03 0. -1.
</event>
<event>
 4    1  0.5758867E+000  0.1000000E+03  0.7546771E-02  0.1280296E+00
         21   -1    0    0  501  502  0.00000000000E+00  0.00000000000E+00  0.86679530635E+03  0.86679530635E+03  0.00000000000E+00 0. -1.
         21   -1    0    0  502  503 -0.00000000000E+00 -0.00000000000E+00 -0.47637978750E+02  0.47637978750E+02  0.00000000000E+00 0.  1.
          6    1    1    2  501    0  0.40571029966E+02 -0.86515342323E+02  0.51588992508E+03  0.55245119941E+03  0.17300000000E+03 0.  1.
         -6    1    1    2    0  503 -0.40571029966E+02  0.86515342323E+02  0.30326740251E+03  0.36198208569E+03  0.17300000000E+03 0.  1.
</event>
<event>
 4    1  0.5758867E+000  0.1000000E+03  0.7546771E-02  0.1280296E+00
         21   -1    0    0  501  502  0.00000000000E+00  0.00000000000E+00  0.26538263855E+03  0.26538263855E+03  0.00000000000E+00 0. -1.
         21   -1    0    0  502  503 -0.00000000000E+00 -0.00000000000E+00 -0.36044834441E+03  0.36044834441E+03  0.00000000000E+00 0.  1.
          6    1    1    2  501    0 -0.54178968791E+01 -0.16389194453E+03  0.15185406355E+03  0.28262798819E+03  0.17300000000E+03 0.  1.
         -6    1    1    2    0  503  0.54178968791E+01  0.16389194453E+03 -0.24691976941E+03  0.34320299476E+03  0.17300000000E+03 0.  1.
</event>
<event>
 4    1  0.5758867E+000  0.1000000E+03  0.7546771E-02  0.1280296E+00
         21   -1    0    0  501  502  0.00000000000E+00  0.00000000000E+00  0.94047102160E+03  0.94047102160E+03  0.00000000000E+00 0. -1.
         21   -1    0    0  502  503 -0.00000000000E+00 -0.00000000000E+00 -0.11740110098E+03  0.11740110098E+03  0.00000000000E+00 0.  1.
          6    1    1    2  501    0  0.28709035189E+02 -0.45575301002E+02  0.85491375149E+03  0.87390379290E+03  0.17300000000E+03 0.  1.
         -6    1    1    2    0  503 -0.28709035189E+02  0.45575301002E+02 -0.31843830870E+02  0.18396832969E+03  0.17300000000E+03 0.  1.
</event>
<event>
 4    1  0.5758867E+000  0.1000000E+03  0.7546771E-02  0.1280296E+00
         21   -1    0    0  501  502  0.00000000000E+00  0.00000000000E+00  0.33746550037E+03  0.33746550037E+03  0.00000000000E+00 0. -1.
         21   -1    0    0  502  503 -0.00000000000E+00 -0.00000000000E+00 -0.18959558746E+03  0.18959558746E+03  0.00000000000E+00 0.  1.
          6    1    1    2  501    0  0.15687809868E+03  0.93198588192E+02  0.45284185389E+02  0.25549241111E+03  0.17300000000E+03 0.  1.
         -6    1    1    2    0  503 -0.15687809868E+03 -0.93198588192E+02  0.10258572752E+03  0.27156867673E+03  0.17300000000E+03 0. -1.
</event>
<event>
 4    1  0.5758867E+000  0.1000000E+03  0.7546771E-02  0.1280296E+00
         21   -1    0    0  501  502  0.00000000000E+00  0.00000000000E+00  0.57454964531E+03  0.57454964531E+03  0.00000000000E+00 0. -1.
         21   -1    0    0  502  503 -0.00000000000E+00 -0.00000000000E+00 -0.12331122672E+03  0.12331122672E+03  0.00000000000E+00 0. -1.
          6    1    1    2  501    0  0.51032765638E+02  0.11106814049E+03  0.43691192838E+03  0.48555278617E+03  0.17300000000E+03 0. -1.
         -6    1    1    2    0  503 -0.51032765638E+02 -0.11106814049E+03  0.14326490209E+02  0.21230808586E+03  0.17300000000E+03 0. -1.
</event>
<event>
 4    1  0.5758867E+000  0.1000000E+03  0.7546771E-02  0.1280296E+00
         21   -1    0    0  501  502  0.00000000000E+00  0.00000000000E+00  0.65738729345E+03  0.65738729345E+03  0.00000000000E+00 0. -1.
         21   -1    0    0  502  503 -0.00000000000E+00 -0.00000000000E+00 -0.18228787399E+03  0.18228787399E+03  0.00000000000E+00 0. -1.
          6    1    1    2  501    0  0.43670785401E+02 -0.28812691999E+03  0.32314050238E+03  0.46826599684E+03  0.17300000000E+03 0. -1.
         -6    1    1    2    0  503 -0.43670785401E+02  0.28812691999E+03  0.15195891708E+03  0.37140917060E+03  0.17300000000E+03 0. -1.
</event>
<event>
 4    1  0.5758867E+000  0.1000000E+03  0.7546771E-02  0.1280296E+00
         21   -1    0    0  503  502  0.00000000000E+00  0.00000000000E+00  0.29262800163E+02  0.29262800163E+02  0.00000000000E+00 0. -1.
         21   -1    0    0  501  503 -0.00000000000E+00 -0.00000000000E+00 -0.16509571211E+04  0.16509571211E+04  0.00000000000E+00 0. -1.
          6    1    1    2  501    0  0.34628770992E+02  0.87262804940E+02 -0.11847306593E+04  0.12009703094E+04  0.17300000000E+03 0. -1.
         -6    1    1    2    0  502 -0.34628770992E+02 -0.87262804940E+02 -0.43696366163E+03  0.47924961189E+03  0.17300000000E+03 0. -1.
</event>
<event>
 4    1  0.5758867E+000  0.1000000E+03  0.7546771E-02  0.1280296E+00
         21   -1    0    0  503  502  0.00000000000E+00  0.00000000000E+00  0.14572249685E+03  0.14572249685E+03  0.00000000000E+00 0. -1.
         21   -1    0    0  501  503 -0.00000000000E+00 -0.00000000000E+00 -0.34701241060E+03  0.34701241060E+03  0.00000000000E+00 0. -1.
          6    1    1    2  501    0  0.11865214336E+03 -0.80733563795E+02 -0.10776842883E+03  0.24927750340E+03  0.17300000000E+03 0. -1.
         -6    1    1    2    0  502 -0.11865214336E+03  0.80733563795E+02 -0.93521484923E+02  0.24345740405E+03  0.17300000000E+03 0. -1.
</event>
<event>
 4    1  0.5758867E+000  0.1000000E+03  0.7546771E-02  0.1280296E+00
         21   -1    0    0  503  502  0.00000000000E+00  0.00000000000E+00  0.80107425943E+02  0.80107425943E+02  0.00000000000E+00 0.  1.
         21   -1    0    0  501  503 -0.00000000000E+00 -0.00000000000E+00 -0.52688810615E+03  0.52688810615E+03  0.00000000000E+00 0.  1.
          6    1    1    2  501    0  0.12549330858E+02  0.10538942057E+03 -0.17634365230E+03  0.26886892602E+03  0.17300000000E+03 0.  1.
         -6    1    1    2    0  502 -0.12549330858E+02 -0.10538942057E+03 -0.27043702791E+03  0.33812660607E+03  0.17300000000E+03 0.  1.
</event>
<event>
 4    1  0.5758867E+000  0.1000000E+03  0.7546771E-02  0.1280296E+00
         21   -1    0    0  503  502  0.00000000000E+00  0.00000000000E+00  0.86862867918E+03  0.86862867918E+03  0.00000000000E+00 0.  1.
         21   -1    0    0  501  503 -0.00000000000E+00 -0.00000000000E+00 -0.11468110859E+04  0.11468110859E+04  0.00000000000E+00 0. -1.
          6    1    1    2  501    0  0.15538111859E+03  0.37519203477E+01 -0.11190721099E+04  0.11429823954E+04  0.17300000000E+03 0.  1.
         -6    1    1    2    0  502 -0.15538111859E+03 -0.37519203477E+01  0.84088970323E+03  0.87245736969E+03  0.17300000000E+03 0.  1.
</event>
<event>
 4    1  0.5758867E+000  0.1000000E+03  0.7546771E-02  0.1280296E+00
         21   -1    0    0  503  502  0.00000000000E+00  0.00000000000E+00  0.23065498519E+03  0.23065498519E+03  0.00000000000E+00 0.  1.
         21   -1    0    0  501  503 -0.00000000000E+00 -0.00000000000E+00 -0.23907209470E+03  0.23907209470E+03  0.00000000000E+00 0. -1.
          6    1    1    2  501    0 -0.89995437971E+02 -0.82880405414E+00 -0.13505121519E+03  0.23720812907E+03  0.17300000000E+03 0.  1.
         -6    1    1    2    0  502  0.89995437971E+02  0.82880405414E+00  0.12663410567E+03  0.23251895082E+03  0.17300000000E+03 0.  1.
</event>
<event>
 4    1  0.5758867E+000  0.1000000E+03  0.7546771E-02  0.1280296E+00
         21   -1    0    0  503  502  0.00000000000E+00  0.00000000000E+00  0.24442005402E+03  0.24442005402E+03  0.00000000000E+00 0.  1.
         21   -1    0    0  501  503 -0.00000000000E+00 -0.00000000000E+00 -0.34719593602E+03  0.34719593602E+03  0.00000000000E+00 0. -1.
          6    1    1    2  501    0  0.56464344710E+02 -0.22445554209E+03 -0.13883461582E+02  0.28929269453E+03  0.17300000000E+03 0.  1.
         -6    1    1    2    0  502 -0.56464344710E+02  0.22445554209E+03 -0.88892420421E+02  0.30232329551E+03  0.17300000000E+03 0.  1.
</event>
<event>
 4    1  0.5758867E+000  0.1000000E+03  0.7546771E-02  0.1280296E+00
         21   -1    0    0  503  502  0.00000000000E+00  0.00000000000E+00  0.46199037189E+02  0.46199037189E+02  0.00000000000E+00 0.  1.
         21   -1    0    0  501  503 -0.00000000000E+00 -0.00000000000E+00 -0.75469925922E+03  0.75469925922E+03  0.00000000000E+00 0. -1.
          6    1    1    2  501    0  0.33521739087E+02  0.59840183637E+02 -0.38697350631E+03  0.42939730921E+03  0.17300000000E+03 0.  1.
         -6    1    1    2    0  502 -0.33521739087E+02 -0.59840183637E+02 -0.32152671572E+03  0.37150098720E+03  0.17300000000E+03 0.  1.
</event>
<event>
 4    1  0.5758867E+000  0.1000000E+03  0.7546771E-02  0.1280296E+00
         21   -1    0    0  503  502  0.00000000000E+00  0.00000000000E+00  0.18799335792E+03  0.18799335792E+03  0.00000000000E+00 0. -1.
         21   -1    0    0  501  503 -0.00000000000E+00 -0.00000000000E+00 -0.51141960246E+03  0.51141960246E+03  0.00000000000E+00 0. -1.
          6    1    1    2  501    0 -0.23141314345E+02  0.12365545721E+02 -0.45041577465E+03  0.48320988939E+03  0.17300000000E+03 0. -1.
         -6    1    1    2    0  502  0.23141314345E+02 -0.12365545721E+02  0.12698953011E+03  0.21620307099E+03  0.17300000000E+03 0. -1.
</event>
<event>
 4    1  0.5758867E+000  0.1000000E+03  0.7546771E-02  0.1280296E+00
         21   -1    0    0  503  502  0.00000000000E+00  0.00000000000E+00  0.26268342606E+03  0.26268342606E+03  0.00000000000E+00 0. -1.
         21   -1    0    0  501  503 -0.00000000000E+00 -0.00000000000E+00 -0.13486310953E+03  0.13486310953E+03  0.00000000000E+00 0. -1.
          6    1    1    2  501    0 -0.32683944521E+02 -0.62673998877E+02  0.40271199075E+02  0.19117280099E+03  0.17300000000E+03 0. -1.
         -6    1    1    2    0  502  0.32683944521E+02  0.62673998877E+02  0.87549117455E+02  0.20637373460E+03  0.17300000000E+03 0. -1.
</event>
<event>
 4    1  0.5758867E+000  0.1000000E+03  0.7546771E-02  0.1280296E+00
         21   -1    0    0  503  502  0.00000000000E+00  0.00000000000E+00  0.10484589748E+04  0.10484589748E+04  0.00000000000E+00 0. -1.
         21   -1    0    0  501  503 -0.00000000000E+00 -0.00000000000E+00 -0.11296552521E+03  0.11296552521E+03  0.00000000000E+00 0. -1.
          6    1    1    2  501    0 -0.37912330814E+02 -0.11496944662E+03  0.91790557665E+01  0.21134941104E+03  0.17300000000E+03 0. -1.
         -6    1    1    2    0  502  0.37912330814E+02  0.11496944662E+03  0.92631439386E+03  0.95007508901E+03  0.17300000000E+03 0. -1.
</event>
<event>
 4    1  0.5758867E+000  0.1000000E+03  0.7546771E-02  0.1280296E+00
         21   -1    0    0  501  502  0.00000000000E+00  0.00000000000E+00  0.15927893230E+03  0.15927893230E+03  0.00000000000E+00 0. -1.
         21   -1    0    0  502  503 -0.00000000000E+00 -0.00000000000E+00 -0.67192531304E+03  0.67192531304E+03  0.00000000000E+00 0. -1.
          6    1    1    2  501    0 -0.26788426295E+03  0.72606971197E+02 -0.26622865891E+03  0.42171133424E+03  0.17300000000E+03 0. -1.
         -6    1    1    2    0  503  0.26788426295E+03 -0.72606971197E+02 -0.24641772183E+03  0.40949291109E+03  0.17300000000E+03 0. -1.
</event>
<event>
 4    1  0.5758867E+000  0.1000000E+03  0.7546771E-02  0.1280296E+00
         21   -1    0    0  501  502  0.00000000000E+00  0.00000000000E+00  0.94131777306E+03  0.94131777306E+03  0.00000000000E+00 0. -1.
         21   -1    0    0  502  503 -0.00000000000E+00 -0.00000000000E+00 -0.42256794278E+02  0.42256794278E+02  0.00000000000E+00 0. -1.
          6    1    1    2  501    0 -0.17764798782E+02  0.95892336779E+02  0.49480649105E+03  0.53317294747E+03  0.17300000000E+03 0. -1.
         -6    1    1    2    0  503  0.17764798782E+02 -0.95892336779E+02  0.40425448773E+03  0.45040161987E+03  0.17300000000E+03 0. -1.
</event>
<event>
 4    1  0.5758867E+000  0.1000000E+03  0.7546771E-02  0.1280296E+00
         21   -1    0    0  501  502  0.00000000000E+00  0.00000000000E+00  0.27937213910E+03  0.27937213910E+03  0.00000000000E+00 0. -1.
         21   -1    0    0  502  503 -0.00000000000E+00 -0.00000000000E+00 -0.91147552460E+03  0.91147552460E+03  0.00000000000E+00 0. -1.
          6    1    1    2  501    0 -0.23105918353E+03 -0.13296850642E+03  0.14645540815E+03  0.34992450124E+03  0.17300000000E+03 0. -1.
         -6    1    1    2    0  503  0.23105918353E+03  0.13296850642E+03 -0.77855879365E+03  0.84092316246E+03  0.17300000000E+03 0. -1.
</event>
<event>
 4    1  0.5758867E+000  0.1000000E+03  0.7546771E-02  0.1280296E+00
         21   -1    0    0  501  502  0.00000000000E+00  0.00000000000E+00  0.34040852965E+03  0.34040852965E+03  0.00000000000E+00 0. -1.
         21   -1    0    0  502  503 -0.00000000000E+00 -0.00000000000E+00 -0.15307013100E+03  0.15307013100E+03  0.00000000000E+00 0. -1.
          6    1    1    2  501    0 -0.60793932336E+02  0.91251134650E+02 -0.15255563886E+02  0.20538842230E+03  0.17300000000E+03 0. -1.
         -6    1    1    2    0  503  0.60793932336E+02 -0.91251134650E+02  0.20259396253E+03  0.28809023836E+03  0.17300000000E+03 0. -1.
</event>
<event>
 4    1  0.5758867E+000  0.1000000E+03  0.7546771E-02  0.1280296E+00
         21   -1    0    0  501  502  0.00000000000E+00  0.00000000000E+00  0.10743602180E+04  0.10743602180E+04  0.00000000000E+00 0.  1.
         21   -1    0    0  502  503 -0.00000000000E+00 -0.00000000000E+00 -0.22756647086E+03  0.22756647086E+03  0.00000000000E+00 0. -1.
          6    1    1    2  501    0  0.30738814206E+03  0.15858625378E+03  0.82900957790E+03  0.91478027417E+03  0.17300000000E+03 0.  1.
         -6    1    1    2    0  503 -0.30738814206E+03 -0.15858625378E+03  0.17784169289E+02  0.38714641473E+03  0.17300000000E+03 0. -1.
</event>
<event>
 4    1  0.5758867E+000  0.1000000E+03  0.7546771E-02  0.1280296E+00
         21   -1    0    0  501  502  0.00000000000E+00  0.00000000000E+00  0.63615382313E+02  0.63615382313E+02  0.00000000000E+00 0.  1.
         21   -1    0    0  502  503 -0.00000000000E+00 -0.00000000000E+00 -0.57786856302E+03  0.57786856302E+03  0.00000000000E+00 0. -1.
          6    1    1    2  501    0  0.71693868112E+02 -0.25013140631E+02 -0.20249126571E+03  0.27694291942E+03  0.17300000000E+03 0.  1.
         -6    1    1    2    0  503 -0.71693868112E+02  0.25013140631E+02 -0.31176191499E+03  0.36454102591E+03  0.17300000000E+03 0. -1.
</event>
<event>
 4    1  0.5758867E+000  0.1000000E+03  0.7546771E-02  0.1280296E+00
         21   -1    0    0  501  502  0.00000000000E+00  0.00000000000E+00  0.59551613264E+03  0.59551613264E+03  0.00000000000E+00 0.  1.
         21   -1    0    0  502  503 -0.00000000000E+00 -0.00000000000E+00 -0.10061273684E+03  0.10061273684E+03  0.00000000000E+00 0. -1.
          6    1    1    2  501    0 -0.20172263286E+02  0.15444319638E+03  0.35506937566E+03  0.42457376585E+03  0.17300000000E+03 0.  1.
         -6    1    1    2    0  503  0.20172263286E+02 -0.15444319638E+03  0.13983402014E+03  0.27155510362E+03  0.17300000000E+03 0. -1.
</event>
<event>
 4    1  0.5758867E+000  0.1000000E+03  0.7546771E-02  0.1280296E+00
         21   -1    0    0  501  502  0.00000000000E+00  0.00000000000E+00  0.75425868136E+02  0.75425868136E+02  0.00000000000E+00 0.  1.
         21   -1    0    0  502  503 -0.00000000000E+00 -0.00000000000E+00 -0.57498897630E+03  0.57498897630E+03  0.00000000000E+00 0. -1.
          6    1    1    2  501    0  0.14987586612E+02 -0.11215462377E+03 -0.21037605589E+03  0.29494130310E+03  0.17300000000E+03 0.  1.
         -6    1    1    2    0  503 -0.14987586612E+02  0.11215462377E+03 -0.28918705228E+03  0.35547354133E+03  0.17300000000E+03 0. -1.
</event>
<event>
 4    1  0.5758867E+000  0.1000000E+03  0.7546771E-02  0.1280296E+00
         21   -1    0    0  503  502  0.00000000000E+00  0.00000000000E+00  0.96183268941E+02  0.96183268941E+02  0.00000000000E+00 0. -1.
         21   -1    0    0  501  503 -0.00000000000E+00 -0.00000000000E+00 -0.33097512240E+03  0.33097512240E+03  0.00000000000E+00 0. -1.
          6    1    1    2  501    0 -0.38179088340E+02  0.20671019760E+02 -0.12279398426E+03  0.21654629162E+03  0.17300000000E+03 0. -1.
         -6    1    1    2    0  502  0.38179088340E+02 -0.20671019760E+02 -0.11199786920E+03  0.21061209972E+03  0.17300000000E+03 0. -1.
</event>
<event>
 4    1  0.5758867E+000  0.1000000E+03  0.7546771E-02  0.1280296E+00
         21   -1    0    0  501  502  0.00000000000E+00  0.00000000000E+00  0.18609949096E+03  0.18609949096E+03  0.00000000000E+00 0.  1.
         21   -1    0    0  502  503 -0.00000000000E+00 -0.00000000000E+00 -0.63246776250E+03  0.63246776250E+03  0.00000000000E+00 0.  1.
          6    1    1    2  501    0  0.80898124443E+02  0.27556956888E+03 -0.30995094704E+03  0.45659794502E+03  0.17300000000E+03 0.  1.
         -6    1    1    2    0  503 -0.80898124443E+02 -0.27556956888E+03 -0.13641732450E+03  0.36196930844E+03  0.17300000000E+03 0.  1.
</event>
<event>
 4    1  0.5758867E+000  0.1000000E+03  0.7546771E-02  0.1280296E+00
         21   -1    0    0  501  502  0.00000000000E+00  0.00000000000E+00  0.14003750652E+03  0.14003750652E+03  0.00000000000E+00 0.  1.
         21   -1    0    0  502  503 -0.00000000000E+00 -0.00000000000E+00 -0.36126499799E+03  0.36126499799E+03  0.00000000000E+00 0.  1.
          6    1    1    2  501    0 -0.18884880825E+02 -0.24770768252E+02  0.45763394581E+02  0.18164117916E+03  0.17300000000E+03 0.  1.
         -6    1    1    2    0  503  0.18884880825E+02  0.24770768252E+02 -0.26699088606E+03  0.31966132535E+03  0.17300000000E+03 0.  1.
</event>
<event>
 4    1  0.5758867E+000  0.1000000E+03  0.7546771E-02  0.1280296E+00
         21   -1    0    0  501  502  0.00000000000E+00  0.00000000000E+00  0.31203218166E+02  0.31203218166E+02  0.00000000000E+00 0.  1.
         21   -1    0    0  502  503 -0.00000000000E+00 -0.00000000000E+00 -0.24470604776E+04  0.24470604776E+04  0.00000000000E+00 0.  1.
          6    1    1    2  501    0  0.21272485152E+03 -0.31218919476E+02 -0.12714538183E+04  0.13010573760E+04  0.17300000000E+03 0.  1.
         -6    1    1    2    0  503 -0.21272485152E+03  0.31218919476E+02 -0.11444034411E+04  0.11772063198E+04  0.17300000000E+03 0.  1.
</event>
<event>
 4    1  0.5758867E+000  0.1000000E+03  0.7546771E-02  0.1280296E+00
         21   -1    0    0  501  502  0.00000000000E+00  0.00000000000E+00  0.85845679148E+03  0.85845679148E+03  0.00000000000E+00 0.  1.
         21   -1    0    0  502  503 -0.00000000000E+00 -0.00000000000E+00 -0.82531373913E+02  0.82531373913E+02  0.00000000000E+00 0.  1.
          6    1    1    2  501    0  0.19820306481E+03 -0.24896928821E+02  0.33161221115E+03  0.42402826621E+03  0.17300000000E+03 0.  1.
         -6    1    1    2    0  503 -0.19820306481E+03  0.24896928821E+02  0.44431320641E+03  0.51695989918E+03  0.17300000000E+03 0.  1.
</event>
<event>
 4    1  0.5758867E+000  0.1000000E+03  0.7546771E-02  0.1280296E+00
         21   -1    0    0  501  502  0.00000000000E+00  0.00000000000E+00  0.86980825104E+02  0.86980825104E+02  0.00000000000E+00 0.  1.
         21   -1    0    0  502  503 -0.00000000000E+00 -0.00000000000E+00 -0.79658329119E+03  0.79658329119E+03  0.00000000000E+00 0.  1.
          6    1    1    2  501    0 -0.63226959517E+02 -0.11850409624E+03 -0.10975394629E+03  0.24498121961E+03  0.17300000000E+03 0.  1.
         -6    1    1    2    0  503  0.63226959517E+02  0.11850409624E+03 -0.59984851980E+03  0.63858289669E+03  0.17300000000E+03 0.  1.
</event>
<event>
 4    1  0.5758867E+000  0.1000000E+03  0.7546771E-02  0.1280296E+00
         21   -1    0    0  503  502  0.00000000000E+00  0.00000000000E+00  0.84225348183E+03  0.84225348183E+03  0.00000000000E+00 0.  1.
         21   -1    0    0  501  503 -0.00000000000E+00 -0.00000000000E+00 -0.48931831434E+02  0.48931831434E+02  0.00000000000E+00 0. -1.
          6    1    1    2  501    0  0.77282715440E+02  0.59082141848E+02  0.30300417424E+03  0.36222071613E+03  0.17300000000E+03 0.  1.
         -6    1    1    2    0  502 -0.77282715440E+02 -0.59082141848E+02  0.49031747616E+03  0.52896459713E+03  0.17300000000E+03 0. -1.
</event>
<event>
 4    1  0.5758867E+000  0.1000000E+03  0.7546771E-02  0.1280296E+00
         21   -1    0    0  503  502  0.00000000000E+00  0.00000000000E+00  0.35892675435E+03  0.35892675435E+03  0.00000000000E+00 0.  1.
         21   -1    0    0  501  503 -0.00000000000E+00 -0.00000000000E+00 -0.18643236210E+03  0.18643236210E+03  0.00000000000E+00 0. -1.
          6    1    1    2  501    0  0.16208916696E+03 -0.32788128730E+01 -0.22806410235E+02  0.23818644169E+03  0.17300000000E+03 0.  1.
         -6    1    1    2    0  502 -0.16208916696E+03  0.32788128730E+01  0.19530080249E+03  0.30717267475E+03  0.17300000000E+03 0. -1.
</event>
<event>
 4    1  0.5758867E+000  0.1000000E+03  0.7546771E-02  0.1280296E+00
         21   -1    0    0  503  502  0.00000000000E+00  0.00000000000E+00  0.13729378280E+04  0.13729378280E+04  0.00000000000E+00 0. -1.
         21   -1    0    0  501  503 -0.00000000000E+00 -0.00000000000E+00 -0.68474771609E+02  0.68474771609E+02  0.00000000000E+00 0. -1.
          6    1    1    2  501    0  0.48466095844E+02 -0.24832336488E+03  0.63268552015E+03  0.70301737062E+03  0.17300000000E+03 0. -1.
         -6    1    1    2    0  502 -0.48466095844E+02  0.24832336488E+03  0.67177753621E+03  0.73839522896E+03  0.17300000000E+03 0. -1.
</event>
<event>
 4    1  0.5758867E+000  0.1000000E+03  0.7546771E-02  0.1280296E+00
         21   -1    0    0  503  502  0.00000000000E+00  0.00000000000E+00  0.10736140366E+03  0.10736140366E+03  0.00000000000E+00 0. -1.
         21   -1    0    0  501  503 -0.00000000000E+00 -0.00000000000E+00 -0.53122781351E+03  0.53122781351E+03  0.00000000000E+00 0. -1.
          6    1    1    2  501    0  0.53811995630E+02 -0.45367379045E+02 -0.41091722923E+03  0.45137113248E+03  0.17300000000E+03 0. -1.
         -6    1    1    2    0  502 -0.53811995630E+02  0.45367379045E+02 -0.12949180614E+02  0.18721808469E+03  0.17300000000E+03 0. -1.
</event>
<event>
 4    1  0.5758867E+000  0.1000000E+03  0.7546771E-02  0.1280296E+00
         21   -1    0    0  503  502  0.00000000000E+00  0.00000000000E+00  0.48971667550E+02  0.48971667550E+02  0.00000000000E+00 0. -1.
         21   -1    0    0  501  503 -0.00000000000E+00 -0.00000000000E+00 -0.92112341195E+03  0.92112341195E+03  0.00000000000E+00 0.  1.
          6    1    1    2  501    0  0.13650203583E+02  0.43254865853E+02 -0.69769140409E+03  0.72024968367E+03  0.17300000000E+03 0.  1.
         -6    1    1    2    0  502 -0.13650203583E+02 -0.43254865853E+02 -0.17446034030E+03  0.24984539583E+03  0.17300000000E+03 0. -1.
</event>
<event>
 4    1  0.5758867E+000  0.1000000E+03  0.7546771E-02  0.1280296E+00
         21   -1    0    0  503  502  0.00000000000E+00  0.00000000000E+00  0.72399291013E+03  0.72399291013E+03  0.00000000000E+00 0. -1.
         21   -1    0    0  501  503 -0.00000000000E+00 -0.00000000000E+00 -0.29424651781E+03  0.29424651781E+03  0.00000000000E+00 0.  1.
          6    1    1    2  501    0 -0.13005534298E+03 -0.22882546428E+03 -0.15727975497E+03  0.35205313046E+03  0.17300000000E+03 0.  1.
         -6    1    1    2    0  502  0.13005534298E+03  0.22882546428E+03  0.58702614730E+03  0.66618629748E+03  0.17300000000E+03 0. -1.
</event>
<event>
 4    1  0.5758867E+000  0.1000000E+03  0.7546771E-02  0.1280296E+00
         21   -1    0    0  503  502  0.00000000000E+00  0.00000000000E+00  0.86062457639E+02  0.86062457639E+02  0.00000000000E+00 0.  1.
         21   -1    0    0  501  503 -0.00000000000E+00 -0.00000000000E+00 -0.69850980854E+03  0.69850980854E+03  0.00000000000E+00 0. -1.
          6    1    1    2  501    0  0.10775607382E+03  0.32663920122E+02 -0.51792821903E+03  0.55754546289E+03  0.17300000000E+03 0. -1.
         -6    1    1    2    0  502 -0.10775607382E+03 -0.32663920122E+02 -0.94519131872E+02  0.22702680329E+03  0.17300000000E+03 0.  1.
</event>
<event>
 4    1  0.5758867E+000  0.1000000E+03  0.7546771E-02  0.1280296E+00
         21   -1    0    0  503  502  0.00000000000E+00  0.00000000000E+00  0.29575511688E+03  0.29575511688E+03  0.00000000000E+00 0.  1.
         21   -1    0    0  501  503 -0.00000000000E+00 -0.00000000000E+00 -0.27591556966E+03  0.27591556966E+03  0.00000000000E+00 0. -1.
          6    1    1    2  501    0  0.11496660547E+03 -0.13558928718E+03 -0.13184365998E+03  0.28091551372E+03  0.17300000000E+03 0. -1.
         -6    1    1    2    0  502 -0.11496660547E+03  0.13558928718E+03  0.15168320720E+03  0.29075517282E+03  0.17300000000E+03 0.  1.
</event>
<event>
 4    1  0.5758867E+000  0.1000000E+03  0.7546771E-02  0.1280296E+00
         21   -1    0    0  503  502  0.00000000000E+00  0.00000000000E+00  0.90874835895E+02  0.90874835895E+02  0.00000000000E+00 0.  1.
         21   -1    0    0  501  503 -0.00000000000E+00 -0.00000000000E+00 -0.65944697431E+03  0.65944697431E+03  0.00000000000E+00 0. -1.
          6    1    1    2  501    0 -0.25703633594E+02  0.37714183631E+02 -0.54033643612E+03  0.56918845792E+03  0.17300000000E+03 0. -1.
         -6    1    1    2    0  502  0.25703633594E+02 -0.37714183631E+02 -0.28235702294E+02  0.18113335229E+03  0.17300000000E+03 0.  1.
</event>
<event>
 4    1  0.5758867E+000  0.1000000E+03  0.7546771E-02  0.1280296E+00
         21   -1    0    0  501  502  0.00000000000E+00  0.00000000000E+00  0.28570735902E+03  0.28570735902E+03  0.00000000000E+00 0.  1.
         21   -1    0    0  502  503 -0.00000000000E+00 -0.00000000000E+00 -0.78012722408E+03  0.78012722408E+03  0.00000000000E+00 0.  1.
          6    1    1    2  501    0 -0.19485349102E+03 -0.11488967717E+03  0.17784159805E+03  0.33574418071E+03  0.17300000000E+03 0.  1.
         -6    1    1    2    0  503  0.19485349102E+03  0.11488967717E+03 -0.67226146311E+03  0.73009040239E+03  0.17300000000E+03 0.  1.
</event>
<event>
 4    1  0.5758867E+000  0.1000000E+03  0.7546771E-02  0.1280296E+00
         21   -1    0    0  503  502  0.00000000000E+00  0.00000000000E+00  0.58881171712E+03  0.58881171712E+03  0.00000000000E+00 0. -1.
         21   -1    0    0  501  503 -0.00000000000E+00 -0.00000000000E+00 -0.16804144298E+03  0.16804144298E+03  0.00000000000E+00 0.  1.
          6    1    1    2  501    0 -0.21727443800E+03 -0.29911791127E+02  0.36408044144E+02  0.28170453020E+03  0.17300000000E+03 0.  1.
         -6    1    1    2    0  502  0.21727443800E+03  0.29911791127E+02  0.38436222999E+03  0.47514862990E+03  0.17300000000E+03 0. -1.
</event>
<event>
 4    1  0.5758867E+000  0.1000000E+03  0.7546771E-02  0.1280296E+00
         21   -1    0    0  503  502  0.00000000000E+00  0.00000000000E+00  0.23796130285E+03  0.23796130285E+03  0.00000000000E+00 0. -1.
         21   -1    0    0  501  503 -0.00000000000E+00 -0.00000000000E+00 -0.21575430782E+03  0.21575430782E+03  0.00000000000E+00 0.  1.
          6    1    1    2  501    0  0.10065367508E+03  0.91192313749E+02 -0.43413432938E+02  0.22418948805E+03  0.17300000000E+03 0.  1.
         -6    1    1    2    0  502 -0.10065367508E+03 -0.91192313749E+02  0.65620427975E+02  0.22952612261E+03  0.17300000000E+03 0. -1.
</event>
<event>
 4    1  0.5758867E+000  0.1000000E+03  0.7546771E-02  0.1280296E+00
         21   -1    0    0  503  502  0.00000000000E+00  0.00000000000E+00  0.98155728017E+02  0.98155728017E+02  0.00000000000E+00 0. -1.
         21   -1    0    0  501  503 -0.00000000000E+00 -0.00000000000E+00 -0.16022179334E+04  0.16022179334E+04  0.00000000000E+00 0.  1.
          6    1    1    2  501    0  0.29074547537E+03  0.11357544087E+03 -0.11227730202E+04  0.11781258707E+04  0.17300000000E+03 0.  1.
         -6    1    1    2    0  502 -0.29074547537E+03 -0.11357544087E+03 -0.38128918518E+03  0.52224779076E+03  0.17300000000E+03 0. -1.
</event>
<event>
 4    1  0.5758867E+000  0.1000000E+03  0.7546771E-02  0.1280296E+00
         21   -1    0    0  503  502  0.00000000000E+00  0.00000000000E+00  0.10846033891E+03  0.10846033891E+03  0.00000000000E+00 0.  1.
         21   -1    0    0  501  503 -0.00000000000E+00 -0.00000000000E+00 -0.49337224953E+03  0.49337224953E+03  0.00000000000E+00 0.  1.
          6    1    1    2  501    0  0.94972979903E+02  0.78270523631E+02 -0.31193610993E+03  0.37733178830E+03  0.17300000000E+03 0.  1.
         -6    1    1    2    0  502 -0.94972979903E+02 -0.78270523631E+02 -0.72975800688E+02  0.22450080015E+03  0.17300000000E+03 0.  1.
</event>
<event>
 4    1  0.5758867E+000  0.1000000E+03  0.7546771E-02  0.1280296E+00
         21   -1    0    0  503  502  0.00000000000E+00  0.00000000000E+00  0.37298346580E+03  0.37298346580E+03  0.00000000000E+00 0. -1.
         21   -1    0    0  501  503 -0.00000000000E+00 -0.00000000000E+00 -0.12630758526E+03  0.12630758526E+03  0.00000000000E+00 0.  1.
          6    1    1    2  501    0 -0.60412842929E+02  0.10998288631E+03  0.79757137247E+02  0.22811433057E+03  0.17300000000E+03 0.  1.
         -6    1    1    2    0  502  0.60412842929E+02 -0.10998288631E+03  0.16691874330E+03  0.27117672049E+03  0.17300000000E+03 0. -1.
</event>
<event>
 4    1  0.5758867E+000  0.1000000E+03  0.7546771E-02  0.1280296E+00
         21   -1    0    0  503  502  0.00000000000E+00  0.00000000000E+00  0.59162948277E+03  0.59162948277E+03  0.00000000000E+00 0. -1.
         21   -1    0    0  501  503 -0.00000000000E+00 -0.00000000000E+00 -0.17034285665E+03  0.17034285665E+03  0.00000000000E+00 0.  1.
          6    1    1    2  501    0 -0.15705792507E+03 -0.10277602955E+02 -0.46970603068E+02  0.23855409974E+03  0.17300000000E+03 0.  1.
         -6    1    1    2    0  502  0.15705792507E+03  0.10277602955E+02  0.46825722918E+03  0.52341823968E+03  0.17300000000E+03 0. -1.
</event>
<event>
 4    1  0.5758867E+000  0.1000000E+03  0.7546771E-02  0.1280296E+00
         21   -1    0    0  503  502  0.00000000000E+00  0.00000000000E+00  0.29043665022E+02  0.29043665022E+02  0.00000000000E+00 0. -1.
         21   -1    0    0  501  503 -0.00000000000E+00 -0.00000000000E+00 -0.15289023307E+04  0.15289023307E+04  0.00000000000E+00 0.  1.
          6    1    1    2  501    0  0.10838392592E+03 -0.19528293826E+02 -0.92903502598E+03  0.95140081415E+03  0.17300000000E+03 0.  1.
         -6    1    1    2    0  502 -0.10838392592E+03  0.19528293826E+02 -0.57082363969E+03  0.60654518157E+03  0.17300000000E+03 0. -1.
</event>
<event>
 4    1  0.5758867E+000  0.1000000E+03  0.7546771E-02  0.1280296E+00
         21   -1    0    0  503  502  0.00000000000E+00  0.00000000000E+00  0.46910071156E+03  0.46910071156E+03  0.00000000000E+00 0. -1.
         21   -1    0    0  501  503 -0.00000000000E+00 -0.00000000000E+00 -0.81498903064E+02  0.81498903064E+02  0.00000000000E+00 0.  1.
          6    1    1    2  501    0  0.90125179572E+01 -0.72202299332E+02  0.11658243962E+03  0.22094085801E+03  0.17300000000E+03 0.  1.
         -6    1    1    2    0  502 -0.90125179572E+01  0.72202299332E+02  0.27101936887E+03  0.32965875662E+03  0.17300000000E+03 0. -1.
</event>
<event>
 4    1  0.5758867E+000  0.1000000E+03  0.7546771E-02  0.1280296E+00
         21   -1    0    0  503  502  0.00000000000E+00  0.00000000000E+00  0.10173520044E+04  0.10173520044E+04  0.00000000000E+00 0. -1.
         21   -1    0    0  501  503 -0.00000000000E+00 -0.00000000000E+00 -0.22834033143E+03  0.22834033143E+03  0.00000000000E+00 0. -1.
          6    1    1    2  501    0  0.97574556719E+02 -0.15965288046E+03 -0.13416388750E+03  0.28799094615E+03  0.17300000000E+03 0. -1.
         -6    1    1    2    0  502 -0.97574556719E+02  0.15965288046E+03  0.92317556048E+03  0.95770138970E+03  0.17300000000E+03 0. -1.
</event>
<event>
 4    1  0.5758867E+000  0.1000000E+03  0.7546771E-02  0.1280296E+00
         21   -1    0    0  503  502  0.00000000000E+00  0.00000000000E+00  0.10817024223E+03  0.10817024223E+03  0.00000000000E+00 0. -1.
         21   -1    0    0  501  503 -0.00000000000E+00 -0.00000000000E+00 -0.40047877405E+03  0.40047877405E+03  0.00000000000E+00 0. -1.
          6    1    1    2  501    0  0.40870547872E+02  0.98076607450E+02 -0.20216941218E+03  0.28651508483E+03  0.17300000000E+03 0. -1.
         -6    1    1    2    0  502 -0.40870547872E+02 -0.98076607450E+02 -0.90139119643E+02  0.22213393145E+03  0.17300000000E+03 0. -1.
</event>
<event>
 4    1  0.5758867E+000  0.1000000E+03  0.7546771E-02  0.1280296E+00
         21   -1    0    0  503  502  0.00000000000E+00  0.00000000000E+00  0.91888639358E+02  0.91888639358E+02  0.00000000000E+00 0. -1.
         21   -1    0    0  501  503 -0.00000000000E+00 -0.00000000000E+00 -0.65823077430E+03  0.65823077430E+03  0.00000000000E+00 0. -1.
          6    1    1    2  501    0  0.23911023132E+02  0.81246767048E+02 -0.51636792044E+03  0.55112394563E+03  0.17300000000E+03 0. -1.
         -6    1    1    2    0  502 -0.23911023132E+02 -0.81246767048E+02 -0.49974214504E+02  0.19899546803E+03  0.17300000000E+03 0. -1.
</event>
<event>
 4    1  0.5758867E+000  0.1000000E+03  0.7546771E-02  0.1280296E+00
         21   -1    0    0  503  502  0.00000000000E+00  0.00000000000E+00  0.44786206701E+03  0.44786206701E+03  0.00000000000E+00 0. -1.
         21   -1    0    0  501  503 -0.00000000000E+00 -0.00000000000E+00 -0.98972926805E+02  0.98972926805E+02  0.00000000000E+00 0. -1.
          6    1    1    2  501    0 -0.73551798338E+02  0.30975373318E+02  0.58086540173E+02  0.19917928341E+03  0.17300000000E+03 0. -1.
         -6    1    1    2    0  502  0.73551798338E+02 -0.30975373318E+02  0.29080260003E+03  0.34765571040E+03  0.17300000000E+03 0. -1.
</event>
<event>
 4    1  0.5758867E+000  0.1000000E+03  0.7546771E-02  0.1280296E+00
         21   -1    0    0  503  502  0.00000000000E+00  0.00000000000E+00  0.17613857790E+03  0.17613857790E+03  0.00000000000E+00 0. -1.
         21   -1    0    0  501  503 -0.00000000000E+00 -0.00000000000E+00 -0.60743893151E+03  0.60743893151E+03  0.00000000000E+00 0. -1.
          6    1    1    2  501    0 -0.40162381388E+02  0.25449438587E+03 -0.91844441645E+02  0.32364302986E+03  0.17300000000E+03 0. -1.
         -6    1    1    2    0  502  0.40162381388E+02 -0.25449438587E+03 -0.33945591196E+03  0.45993447955E+03  0.17300000000E+03 0. -1.
</event>
<event>
 4    1  0.5758867E+000  0.1000000E+03  0.7546771E-02  0.1280296E+00
         21   -1    0    0  503  502  0.00000000000E+00  0.00000000000E+00  0.19916233264E+03  0.19916233264E+03  0.00000000000E+00 0. -1.
         21   -1    0    0  501  503 -0.00000000000E+00 -0.00000000000E+00 -0.20134083686E+03  0.20134083686E+03  0.00000000000E+00 0. -1.
          6    1    1    2  501    0 -0.88799259259E+01  0.48546776965E+02 -0.89038652037E+02  0.20072997832E+03  0.17300000000E+03 0. -1.
         -6    1    1    2    0  502  0.88799259259E+01 -0.48546776965E+02  0.86860147822E+02  0.19977319119E+03  0.17300000000E+03 0. -1.
</event>
<event>
 4    1  0.5758867E+000  0.1000000E+03  0.7546771E-02  0.1280296E+00
         21   -1    0    0  503  502  0.00000000000E+00  0.00000000000E+00  0.17191033682E+03  0.17191033682E+03  0.00000000000E+00 0. -1.
         21   -1    0    0  501  503 -0.00000000000E+00 -0.00000000000E+00 -0.27246220465E+03  0.27246220465E+03  0.00000000000E+00 0. -1.
          6    1    1    2  501    0 -0.11758422650E+03 -0.24830690325E+02 -0.10127213062E+03  0.23372560396E+03  0.17300000000E+03 0. -1.
         -6    1    1    2    0  502  0.11758422650E+03  0.24830690325E+02  0.72026279357E+00  0.21064693751E+03  0.17300000000E+03 0. -1.
</event>
<event>
 4    1  0.5758867E+000  0.1000000E+03  0.7546771E-02  0.1280296E+00
         21   -1    0    0  503  502  0.00000000000E+00  0.00000000000E+00  0.17583704168E+03  0.17583704168E+03  0.00000000000E+00 0. -1.
         21   -1    0    0  501  503 -0.00000000000E+00 -0.00000000000E+00 -0.27057234661E+03  0.27057234661E+03  0.00000000000E+00 0. -1.
          6    1    1    2  501    0 -0.46073500457E+02  0.86706420542E+02 -0.13893440862E+03  0.24263664337E+03  0.17300000000E+03 0. -1.
         -6    1    1    2    0  502  0.46073500457E+02 -0.86706420542E+02  0.44199103685E+02  0.20377274492E+03  0.17300000000E+03 0. -1.
</event>
<event>
 4    1  0.5758867E+000  0.1000000E+03  0.7546771E-02  0.1280296E+00
         21   -1    0    0  501  502  0.00000000000E+00  0.00000000000E+00  0.16500074896E+04  0.16500074896E+04  0.00000000000E+00 0.  1.
         21   -1    0    0  502  503 -0.00000000000E+00 -0.00000000000E+00 -0.10413594954E+03  0.10413594954E+03  0.00000000000E+00 0. -1.
          6    1    1    2  501    0  0.67302194766E+02  0.76258603910E+02  0.15403663695E+04  0.15533842127E+04  0.17300000000E+03 0.  1.
         -6    1    1    2    0  503 -0.67302194766E+02 -0.76258603910E+02  0.55051705737E+01  0.20075922642E+03  0.17300000000E+03 0. -1.
</event>
<event>
 4    1  0.5758867E+000  0.1000000E+03  0.7546771E-02  0.1280296E+00
         21   -1    0    0  503  502  0.00000000000E+00  0.00000000000E+00  0.94271907907E+03  0.94271907907E+03  0.00000000000E+00 0. -1.
         21   -1    0    0  501  503 -0.00000000000E+00 -0.00000000000E+00 -0.73184428357E+02  0.73184428357E+02  0.00000000000E+00 0. -1.
          6    1    1    2  501    0  0.11310304011E+03  0.12687486580E+03  0.23970914818E+03  0.34099707473E+03  0.17300000000E+03 0. -1.
         -6    1    1    2    0  502 -0.11310304011E+03 -0.12687486580E+03  0.62982550253E+03  0.67490643269E+03  0.17300000000E+03 0. -1.
</event>
<event>
 4    1  0.5758867E+000  0.1000000E+03  0.7546771E-02  0.1280296E+00
         21   -1    0    0  503  502  0.00000000000E+00  0.00000000000E+00  0.23909693366E+03  0.23909693366E+03  0.00000000000E+00 0. -1.
         21   -1    0    0  501  503 -0.00000000000E+00 -0.00000000000E+00 -0.59302925746E+03  0.59302925746E+03  0.00000000000E+00 0. -1.
          6    1    1    2  501    0  0.91850820811E+02 -0.10179554055E+03 -0.51403918088E+03  0.55943201986E+03  0.17300000000E+03 0. -1.
         -6    1    1    2    0  502 -0.91850820811E+02  0.10179554055E+03  0.16010685707E+03  0.27269417126E+03  0.17300000000E+03 0. -1.
</event>
<event>
 4    1  0.5758867E+000  0.1000000E+03  0.7546771E-02  0.1280296E+00
         21   -1    0    0  501  502  0.00000000000E+00  0.00000000000E+00  0.25448591503E+02  0.25448591503E+02  0.00000000000E+00 0.  1.
         21   -1    0    0  502  503 -0.00000000000E+00 -0.00000000000E+00 -0.15227578431E+04  0.15227578431E+04  0.00000000000E+00 0.  1.
          6    1    1    2  501    0 -0.38048900683E+02 -0.59200741328E+02 -0.50400729657E+03  0.53749865266E+03  0.17300000000E+03 0.  1.
         -6    1    1    2    0  503  0.38048900683E+02  0.59200741328E+02 -0.99330195506E+03  0.10107077820E+04  0.17300000000E+03 0.  1.
</event>
<event>
 4    1  0.5758867E+000  0.1000000E+03  0.7546771E-02  0.1280296E+00
         21   -1    0    0  503  502  0.00000000000E+00  0.00000000000E+00  0.25714502380E+03  0.25714502380E+03  0.00000000000E+00 0.  1.
         21   -1    0    0  501  503 -0.00000000000E+00 -0.00000000000E+00 -0.66616511070E+03  0.66616511070E+03  0.00000000000E+00 0. -1.
          6    1    1    2  501    0  0.99536328622E+02  0.35248165748E+03 -0.29929591393E+03  0.50364456085E+03  0.17300000000E+03 0. -1.
         -6    1    1    2    0  502 -0.99536328622E+02 -0.35248165748E+03 -0.10972417297E+03  0.41966557365E+03  0.17300000000E+03 0.  1.
</event>
<event>
 4    1  0.5758867E+000  0.1000000E+03  0.7546771E-02  0.1280296E+00
         21   -1    0    0  503  502  0.00000000000E+00  0.00000000000E+00  0.40141747560E+03  0.40141747560E+03  0.00000000000E+00 0.  1.
         21   -1    0    0  501  503 -0.00000000000E+00 -0.00000000000E+00 -0.69022805448E+03  0.69022805448E+03  0.00000000000E+00 0. -1.
          6    1    1    2  501    0 -0.36495248375E+02  0.53692633306E+00 -0.65851472440E+03  0.68183783534E+03  0.17300000000E+03 0. -1.
         -6    1    1    2    0  502  0.36495248375E+02 -0.53692633306E+00  0.36970414553E+03  0.40980769474E+03  0.17300000000E+03 0.  1.
</event>
<event>
 4    1  0.5758867E+000  0.1000000E+03  0.7546771E-02  0.1280296E+00
         21   -1    0    0  501  502  0.00000000000E+00  0.00000000000E+00  0.38653802621E+02  0.38653802621E+02  0.00000000000E+00 0.  1.
         21   -1    0    0  502  503 -0.00000000000E+00 -0.00000000000E+00 -0.12236869857E+04  0.12236869857E+04  0.00000000000E+00 0.  1.
          6    1    1    2  501    0  0.95542860566E+02 -0.43933990291E+02 -0.36193917335E+03  0.41471387596E+03  0.17300000000E+03 0.  1.
         -6    1    1    2    0  503 -0.95542860566E+02  0.43933990291E+02 -0.82309400978E+03  0.84762691241E+03  0.17300000000E+03 0.  1.
</event>
<event>
 4    1  0.5758867E+000  0.1000000E+03  0.7546771E-02  0.1280296E+00
         21   -1    0    0  501  502  0.00000000000E+00  0.00000000000E+00  0.14287436458E+03  0.14287436458E+03  0.00000000000E+00 0. -1.
         21   -1    0    0  502  503 -0.00000000000E+00 -0.00000000000E+00 -0.56265683782E+03  0.56265683782E+03  0.00000000000E+00 0.  1.
          6    1    1    2  501    0  0.11747652794E+03  0.17258787262E+03 -0.10674385052E+03  0.29139416263E+03  0.17300000000E+03 0. -1.
         -6    1    1    2    0  503 -0.11747652794E+03 -0.17258787262E+03 -0.31303862272E+03  0.41413703977E+03  0.17300000000E+03 0.  1.
</event>
<event>
 4    1  0.5758867E+000  0.1000000E+03  0.7546771E-02  0.1280296E+00
         21   -1    0    0  501  502  0.00000000000E+00  0.00000000000E+00  0.21634536190E+03  0.21634536190E+03  0.00000000000E+00 0. -1.
         21   -1    0    0  502  503 -0.00000000000E+00 -0.00000000000E+00 -0.39444872516E+03  0.39444872516E+03  0.00000000000E+00 0.  1.
          6    1    1    2  501    0 -0.17066400564E+02 -0.17391454069E+03 -0.25392071251E+03  0.35347172126E+03  0.17300000000E+03 0. -1.
         -6    1    1    2    0  503  0.17066400564E+02  0.17391454069E+03  0.75817349250E+02  0.25732236580E+03  0.17300000000E+03 0.  1.
</event>
<event>
 4    1  0.5758867E+000  0.1000000E+03  0.7546771E-02  0.1280296E+00
         21   -1    0    0  501  502  0.00000000000E+00  0.00000000000E+00  0.36704550334E+03  0.36704550334E+03  0.00000000000E+00 0. -1.
         21   -1    0    0  502  503 -0.00000000000E+00 -0.00000000000E+00 -0.22603039256E+03  0.22603039256E+03  0.00000000000E+00 0. -1.
          6    1    1    2  501    0  0.12614244990E+03  0.66264606444E+02  0.25676773363E+03  0.34082485937E+03  0.17300000000E+03 0. -1.
         -6    1    1    2    0  503 -0.12614244990E+03 -0.66264606444E+02 -0.11575262284E+03  0.25225103653E+03  0.17300000000E+03 0. -1.
</event>
<event>
 4    1  0.5758867E+000  0.1000000E+03  0.7546771E-02  0.1280296E+00
         21   -1    0    0  503  502  0.00000000000E+00  0.00000000000E+00  0.38516802859E+03  0.38516802859E+03  0.00000000000E+00 0. -1.
         21   -1    0    0  501  503 -0.00000000000E+00 -0.00000000000E+00 -0.17253606712E+03  0.17253606712E+03  0.00000000000E+00 0. -1.
          6    1    1    2  501    0 -0.13333512613E+03 -0.70447169805E+01 -0.41598971652E+02  0.22245754278E+03  0.17300000000E+03 0. -1.
         -6    1    1    2    0  502  0.13333512613E+03  0.70447169805E+01  0.25423093312E+03  0.33524655293E+03  0.17300000000E+03 0. -1.
</event>
<event>
 4    1  0.5758867E+000  0.1000000E+03  0.7546771E-02  0.1280296E+00
         21   -1    0    0  503  502  0.00000000000E+00  0.00000000000E+00  0.15185796451E+03  0.15185796451E+03  0.00000000000E+00 0. -1.
         21   -1    0    0  501  503 -0.00000000000E+00 -0.00000000000E+00 -0.36177608024E+03  0.36177608024E+03  0.00000000000E+00 0. -1.
          6    1    1    2  501    0  0.98194656357E+02  0.39722673074E+02 -0.23362373085E+03  0.30940124258E+03  0.17300000000E+03 0. -1.
         -6    1    1    2    0  502 -0.98194656357E+02 -0.39722673074E+02  0.23705615127E+02  0.20423280217E+03  0.17300000000E+03 0. -1.
</event>
<event>
 4    1  0.5758867E+000  0.1000000E+03  0.7546771E-02  0.1280296E+00
         21   -1    0    0  501  502  0.00000000000E+00  0.00000000000E+00  0.10855451621E+03  0.10855451621E+03  0.00000000000E+00 0. -1.
         21   -1    0    0  502  503 -0.00000000000E+00 -0.00000000000E+00 -0.12770346279E+04  0.12770346279E+04  0.00000000000E+00 0.  1.
          6    1    1    2  501    0 -0.23937334772E+03  0.22271582035E+03 -0.50536385633E+03  0.62627754512E+03  0.17300000000E+03 0.  1.
         -6    1    1    2    0  503  0.23937334772E+03 -0.22271582035E+03 -0.66311625533E+03  0.75931159896E+03  0.17300000000E+03 0. -1.
</event>
<event>
 4    1  0.5758867E+000  0.1000000E+03  0.7546771E-02  0.1280296E+00
         21   -1    0    0  503  502  0.00000000000E+00  0.00000000000E+00  0.46319544788E+02  0.46319544788E+02  0.00000000000E+00 0. -1.
         21   -1    0    0  501  503 -0.00000000000E+00 -0.00000000000E+00 -0.17927003614E+04  0.17927003614E+04  0.00000000000E+00 0. -1.
          6    1    1    2  501    0  0.73603834853E+02  0.13952972442E+03 -0.14092515224E+04  0.14285674369E+04  0.17300000000E+03 0. -1.
         -6    1    1    2    0  502 -0.73603834853E+02 -0.13952972442E+03 -0.33712929425E+03  0.41045246928E+03  0.17300000000E+03 0. -1.
</event>
<event>
 4    1  0.5758867E+000  0.1000000E+03  0.7546771E-02  0.1280296E+00
         21   -1    0    0  503  502  0.00000000000E+00  0.00000000000E+00  0.76672704148E+03  0.76672704148E+03  0.00000000000E+00 0. -1.
         21   -1    0    0  501  503 -0.00000000000E+00 -0.00000000000E+00 -0.78830978703E+02  0.78830978703E+02  0.00000000000E+00 0. -1.
          6    1    1    2  501    0 -0.60079027933E+01  0.87125593895E+02  0.83795313502E+02  0.21113412460E+03  0.17300000000E+03 0. -1.
         -6    1    1    2    0  502  0.60079027933E+01 -0.87125593895E+02  0.60410074927E+03  0.63442389558E+03  0.17300000000E+03 0. -1.
</event>
<event>
 4    1  0.5758867E+000  0.1000000E+03  0.7546771E-02  0.1280296E+00
         21   -1    0    0  503  502  0.00000000000E+00  0.00000000000E+00  0.61047709200E+03  0.61047709200E+03  0.00000000000E+00 0. -1.
         21   -1    0    0  501  503 -0.00000000000E+00 -0.00000000000E+00 -0.10006337466E+03  0.10006337466E+03  0.00000000000E+00 0. -1.
          6    1    1    2  501    0 -0.50212829785E+02 -0.93272187295E+02  0.52247261660E+02  0.20947507143E+03  0.17300000000E+03 0. -1.
         -6    1    1    2    0  502  0.50212829785E+02  0.93272187295E+02  0.45816645568E+03  0.50106539524E+03  0.17300000000E+03 0. -1.
</event>
<event>
 4    1  0.5758867E+000  0.1000000E+03  0.7546771E-02  0.1280296E+00
         21   -1    0    0  503  502  0.00000000000E+00  0.00000000000E+00  0.13134995818E+03  0.13134995818E+03  0.00000000000E+00 0.  1.
         21   -1    0    0  501  503 -0.00000000000E+00 -0.00000000000E+00 -0.28474091830E+03  0.28474091830E+03  0.00000000000E+00 0.  1.
          6    1    1    2  501    0  0.27782132230E+02  0.22034282927E+02 -0.16149945026E+03  0.23930822996E+03  0.17300000000E+03 0.  1.
         -6    1    1    2    0  502 -0.27782132230E+02 -0.22034282927E+02  0.81084901373E+01  0.17678264651E+03  0.17300000000E+03 0.  1.
</event>
<event>
 4    1  0.5758867E+000  0.1000000E+03  0.7546771E-02  0.1280296E+00
         21   -1    0    0  501  502  0.00000000000E+00  0.00000000000E+00  0.22630167840E+03  0.22630167840E+03  0.00000000000E+00 0. -1.
         21   -1    0    0  502  503 -0.00000000000E+00 -0.00000000000E+00 -0.26974050039E+03  0.26974050039E+03  0.00000000000E+00 0.  1.
          6    1    1    2  501    0 -0.14997687017E+02  0.36597122860E+02  0.15084305155E+03  0.23290965248E+03  0.17300000000E+03 0. -1.
         -6    1    1    2    0  503  0.14997687017E+02 -0.36597122860E+02 -0.19428187354E+03  0.26313252631E+03  0.17300000000E+03 0.  1.
</event>
<event>
 4    1  0.5758867E+000  0.1000000E+03  0.7546771E-02  0.1280296E+00
         21   -1    0    0  503  502  0.00000000000E+00  0.00000000000E+00  0.21781891248E+03  0.21781891248E+03  0.00000000000E+00 0.  1.
         21   -1    0    0  501  503 -0.00000000000E+00 -0.00000000000E+00 -0.65908946978E+03  0.65908946978E+03  0.00000000000E+00 0.  1.
          6    1    1    2  501    0 -0.87126364844E+02 -0.47826632323E+02 -0.59337722141E+03  0.62602229760E+03  0.17300000000E+03 0.  1.
         -6    1    1    2    0  502  0.87126364844E+02  0.47826632323E+02  0.15210666411E+03  0.25088608466E+03  0.17300000000E+03 0.  1.
</event>
<event>
 4    1  0.5758867E+000  0.1000000E+03  0.7546771E-02  0.1280296E+00
         21   -1    0    0  503  502  0.00000000000E+00  0.00000000000E+00  0.98247073776E+02  0.98247073776E+02  0.00000000000E+00 0.  1.
         21   -1    0    0  501  503 -0.00000000000E+00 -0.00000000000E+00 -0.10552861736E+04  0.10552861736E+04  0.00000000000E+00 0. -1.
          6    1    1    2  501    0 -0.16119392935E+03 -0.98938308299E+02 -0.82759427929E+03  0.86637957203E+03  0.17300000000E+03 0. -1.
         -6    1    1    2    0  502  0.16119392935E+03  0.98938308299E+02 -0.12944482055E+03  0.28715367537E+03  0.17300000000E+03 0.  1.
</event>
<event>
 4    1  0.5758867E+000  0.1000000E+03  0.7546771E-02  0.1280296E+00
         21   -1    0    0  501  502  0.00000000000E+00  0.00000000000E+00  0.93550227847E+02  0.93550227847E+02  0.00000000000E+00 0.  1.
         21   -1    0    0  502  503 -0.00000000000E+00 -0.00000000000E+00 -0.55978339861E+03  0.55978339861E+03  0.00000000000E+00 0.  1.
          6    1    1    2  501    0 -0.83095970653E+01 -0.73940458127E+02 -0.47528690470E+02  0.19422723076E+03  0.17300000000E+03 0.  1.
         -6    1    1    2    0  503  0.83095970653E+01  0.73940458127E+02 -0.41870448030E+03  0.45910639570E+03  0.17300000000E+03 0.  1.
</event>
<event>
 4    1  0.5758867E+000  0.1000000E+03  0.7546771E-02  0.1280296E+00
         21   -1    0    0  501  502  0.00000000000E+00  0.00000000000E+00  0.74548565894E+03  0.74548565894E+03  0.00000000000E+00 0.  1.
         21   -1    0    0  502  503 -0.00000000000E+00 -0.00000000000E+00 -0.16422824045E+03  0.16422824045E+03  0.00000000000E+00 0.  1.
          6    1    1    2  501    0 -0.16266342784E+03 -0.19985390143E+03  0.50064359040E+03  0.58904497051E+03  0.17300000000E+03 0.  1.
         -6    1    1    2    0  503  0.16266342784E+03  0.19985390143E+03  0.80613828086E+02  0.32066892888E+03  0.17300000000E+03 0.  1.
</event>
<event>
 4    1  0.5758867E+000  0.1000000E+03  0.7546771E-02  0.1280296E+00
         21   -1    0    0  501  502  0.00000000000E+00  0.00000000000E+00  0.55556347438E+03  0.55556347438E+03  0.00000000000E+00 0. -1.
         21   -1    0    0  502  503 -0.00000000000E+00 -0.00000000000E+00 -0.19107018827E+03  0.19107018827E+03  0.00000000000E+00 0.  1.
          6    1    1    2  501    0 -0.69438741509E+02  0.31603357423E+02  0.48627009785E+03  0.52173567933E+03  0.17300000000E+03 0.  1.
         -6    1    1    2    0  503  0.69438741509E+02 -0.31603357423E+02 -0.12177681174E+03  0.22489798332E+03  0.17300000000E+03 0. -1.
</event>
<event>
 4    1  0.5758867E+000  0.1000000E+03  0.7546771E-02  0.1280296E+00
         21   -1    0    0  501  502  0.00000000000E+00  0.00000000000E+00  0.15848335868E+04  0.15848335868E+04  0.00000000000E+00 0. -1.
         21   -1    0    0  502  503 -0.00000000000E+00 -0.00000000000E+00 -0.18759358999E+03  0.18759358999E+03  0.00000000000E+00 0.  1.
          6    1    1    2  501    0  0.42875622044E+01 -0.66804962100E+02  0.15319714360E+04  0.15431612900E+04  0.17300000000E+03 0.  1.
         -6    1    1    2    0  503 -0.42875622044E+01  0.66804962100E+02 -0.13473143920E+03  0.22926588682E+03  0.17300000000E+03 0. -1.
</event>
<event>
 4    1  0.5758867E+000  0.1000000E+03  0.7546771E-02  0.1280296E+00
         21   -1    0    0  501  502  0.00000000000E+00  0.00000000000E+00  0.31772036311E+03  0.31772036311E+03  0.00000000000E+00 0.  1.
         21   -1    0    0  502  503 -0.00000000000E+00 -0.00000000000E+00 -0.74832044064E+03  0.74832044064E+03  0.00000000000E+00 0.  1.
          6    1    1    2  501    0  0.17182813345E+03 -0.14434010226E+03  0.21848501308E+03  0.35780395960E+03  0.17300000000E+03 0. -1.
         -6    1    1    2    0  503 -0.17182813345E+03  0.14434010226E+03 -0.64908509061E+03  0.70823684415E+03  0.17300000000E+03 0. -1.
</event>
<event>
 4    1  0.5758867E+000  0.1000000E+03  0.7546771E-02  0.1280296E+00
         21   -1    0    0  501  502  0.00000000000E+00  0.00000000000E+00  0.81488622398E+03  0.81488622398E+03  0.00000000000E+00 0.  1.
         21   -1    0    0  502  503 -0.00000000000E+00 -0.00000000000E+00 -0.56867860448E+02  0.56867860448E+02  0.00000000000E+00 0.  1.
          6    1    1    2  501    0  0.36705154770E+02  0.39332163165E+00  0.62752736449E+03  0.65197163763E+03  0.17300000000E+03 0.  1.
         -6    1    1    2    0  503 -0.36705154770E+02 -0.39332163165E+00  0.13049099903E+03  0.21978244679E+03  0.17300000000E+03 0.  1.
</event>
<event>
 4    1  0.5758867E+000  0.1000000E+03  0.7546771E-02  0.1280296E+00
         21   -1    0    0  503  502  0.00000000000E+00  0.00000000000E+00  0.10170954928E+03  0.10170954928E+03  0.00000000000E+00 0.  1.
         21   -1    0    0  501  503 -0.00000000000E+00 -0.00000000000E+00 -0.63708633155E+03  0.63708633155E+03  0.00000000000E+00 0. -1.
          6    1    1    2  501    0  0.46267824670E+02 -0.13300645229E+03 -0.44563917624E+03  0.49835198741E+03  0.17300000000E+03 0. -1.
         -6    1    1    2    0  502 -0.46267824670E+02  0.13300645229E+03 -0.89737606034E+02  0.24044389343E+03  0.17300000000E+03 0.  1.
</event>
<event>
 4    1  0.5758867E+000  0.1000000E+03  0.7546771E-02  0.1280296E+00
         21   -1    0    0  503  502  0.00000000000E+00  0.00000000000E+00  0.65107251578E+03  0.65107251578E+03  0.00000000000E+00 0.  1.
         21   -1    0    0  501  503 -0.00000000000E+00 -0.00000000000E+00 -0.78363795117E+02  0.78363795117E+02  0.00000000000E+00 0. -1.
          6    1    1    2  501    0  0.33134337443E+02  0.28520232531E+00  0.58041748925E+02  0.18546107483E+03  0.17300000000E+03 0. -1.
         -6    1    1    2    0  502 -0.33134337443E+02 -0.28520232531E+00  0.51466697173E+03  0.54397523606E+03  0.17300000000E+03 0.  1.
</event>
<event>
 4    1  0.5758867E+000  0.1000000E+03  0.7546771E-02  0.1280296E+00
         21   -1    0    0  501  502  0.00000000000E+00  0.00000000000E+00  0.24877517568E+03  0.24877517568E+03  0.00000000000E+00 0.  1.
         21   -1    0    0  502  503 -0.00000000000E+00 -0.00000000000E+00 -0.20336330259E+03  0.20336330259E+03  0.00000000000E+00 0.  1.
          6    1    1    2  501    0  0.58778851428E+02  0.42396981062E+02  0.14747501842E+03  0.23860079303E+03  0.17300000000E+03 0.  1.
         -6    1    1    2    0  503 -0.58778851428E+02 -0.42396981062E+02 -0.10206314533E+03  0.21353768523E+03  0.17300000000E+03 0.  1.
</event>
<event>
 4    1  0.5758867E+000  0.1000000E+03  0.7546771E-02  0.1280296E+00
         21   -1    0    0  501  502  0.00000000000E+00  0.00000000000E+00  0.55584071450E+03  0.55584071450E+03  0.00000000000E+00 0.  1.
         21   -1    0    0  502  503 -0.00000000000E+00 -0.00000000000E+00 -0.98507857219E+02  0.98507857219E+02  0.00000000000E+00 0.  1.
          6    1    1    2  501    0  0.14591264708E+02  0.14771670516E+03  0.30255356815E+03  0.37881498332E+03  0.17300000000E+03 0.  1.
         -6    1    1    2    0  503 -0.14591264708E+02 -0.14771670516E+03  0.15477928912E+03  0.27553358839E+03  0.17300000000E+03 0.  1.
</event>
<event>
 4    1  0.5758867E+000  0.1000000E+03  0.7546771E-02  0.1280296E+00
         21   -1    0    0  501  502  0.00000000000E+00  0.00000000000E+00  0.36501853931E+02  0.36501853931E+02  0.00000000000E+00 0.  1.
         21   -1    0    0  502  503 -0.00000000000E+00 -0.00000000000E+00 -0.10129006646E+04  0.10129006646E+04  0.00000000000E+00 0.  1.
          6    1    1    2  501    0 -0.61218091127E+02  0.35430406525E+02 -0.36492591080E+03  0.41000352286E+03  0.17300000000E+03 0.  1.
         -6    1    1    2    0  503  0.61218091127E+02 -0.35430406525E+02 -0.61147289990E+03  0.63939899570E+03  0.17300000000E+03 0.  1.
</event>
<event>
 4    1  0.5758867E+000  0.1000000E+03  0.7546771E-02  0.1280296E+00
         21   -1    0    0  501  502  0.00000000000E+00  0.00000000000E+00  0.10227254121E+04  0.10227254121E+04  0.00000000000E+00 0.  1.
         21   -1    0    0  502  503 -0.00000000000E+00 -0.00000000000E+00 -0.21775866412E+03  0.21775866412E+03  0.00000000000E+00 0.  1.
          6    1    1    2  501    0  0.87146675687E+01 -0.28555501259E+03  0.84068058233E+03  0.90459408142E+03  0.17300000000E+03 0.  1.
         -6    1    1    2    0  503 -0.87146675687E+01  0.28555501259E+03 -0.35713834340E+02  0.33588999481E+03  0.17300000000E+03 0.  1.
</event>
<event>
 4    1  0.5758867E+000  0.1000000E+03  0.7546771E-02  0.1280296E+00
         21   -1    0    0  503  502  0.00000000000E+00  0.00000000000E+00  0.21217650228E+03  0.21217650228E+03  0.00000000000E+00 0.  1.
         21   -1    0    0  501  503 -0.00000000000E+00 -0.00000000000E+00 -0.26908450643E+03  0.26908450643E+03  0.00000000000E+00 0. -1.
          6    1    1    2  501    0 -0.14001188461E+03  0.15557550447E+01 -0.11600883661E+03  0.25098366157E+03  0.17300000000E+03 0.  1.
         -6    1    1    2    0  502  0.14001188461E+03 -0.15557550447E+01  0.59100832458E+02  0.23027734713E+03  0.17300000000E+03 0. -1.
</event>
<event>
 4    1  0.5758867E+000  0.1000000E+03  0.7546771E-02  0.1280296E+00
         21   -1    0    0  503  502  0.00000000000E+00  0.00000000000E+00  0.22820251009E+03  0.22820251009E+03  0.00000000000E+00 0.  1.
         21   -1    0    0  501  503 -0.00000000000E+00 -0.00000000000E+00 -0.28730681077E+03  0.28730681077E+03  0.00000000000E+00 0. -1.
          6    1    1    2  501    0 -0.17075000762E+03  0.64093786816E+02 -0.78574048138E+02  0.26337513104E+03  0.17300000000E+03 0.  1.
         -6    1    1    2    0  502  0.17075000762E+03 -0.64093786816E+02  0.19469747455E+02  0.25213418982E+03  0.17300000000E+03 0. -1.
</event>
<event>
 4    1  0.5758867E+000  0.1000000E+03  0.7546771E-02  0.1280296E+00
         21   -1    0    0  503  502  0.00000000000E+00  0.00000000000E+00  0.18947246019E+03  0.18947246019E+03  0.00000000000E+00 0.  1.
         21   -1    0    0  501  503 -0.00000000000E+00 -0.00000000000E+00 -0.30308886121E+03  0.30308886121E+03  0.00000000000E+00 0. -1.
          6    1    1    2  501    0  0.13983349152E+03 -0.65475539763E+02 -0.11896188069E+03  0.26061730701E+03  0.17300000000E+03 0.  1.
         -6    1    1    2    0  502 -0.13983349152E+03  0.65475539763E+02  0.53454796611E+01  0.23194401439E+03  0.17300000000E+03 0. -1.
</event>
<event>
 4    1  0.5758867E+000  0.1000000E+03  0.7546771E-02  0.1280296E+00
         21   -1    0    0  503  502  0.00000000000E+00  0.00000000000E+00  0.23728104597E+03  0.23728104597E+03  0.00000000000E+00 0.  1.
         21   -1    0    0  501  503 -0.00000000000E+00 -0.00000000000E+00 -0.53405558905E+03  0.53405558905E+03  0.00000000000E+00 0. -1.
          6    1    1    2  501    0 -0.29447133475E+03  0.76594610515E+02 -0.21870130635E+03  0.41272189517E+03  0.17300000000E+03 0.  1.
         -6    1    1    2    0  502  0.29447133475E+03 -0.76594610515E+02 -0.78073236723E+02  0.35861473986E+03  0.17300000000E+03 0. -1.
</event>
