<event>
 4    1  0.5943823E+000  0.1000000E+03  0.7546771E-02  0.1280296E+00
         21   -1    0    0  503  502  0.00000000000E+00  0.00000000000E+00  0.13422336722E+03  0.13422336722E+03  0.00000000000E+00 0. -1.
         21   -1    0    0  501  503 -0.00000000000E+00 -0.00000000000E+00 -0.47356168044E+03  0.47356168044E+03  0.00000000000E+00 0. -1.
          6    1    1    2  501    0  0.17680278909E+03  0.34197440070E+02 -0.21151715173E+03  0.32725708031E+03  0.17300000000E+03 0. -1.
         -6    1    1    2    0  502 -0.17680278909E+03 -0.34197440070E+02 -0.12782116149E+03  0.28052796734E+03  0.17300000000E+03 0. -1.
</event>
<event>
 4    1  0.5943823E+000  0.1000000E+03  0.7546771E-02  0.1280296E+00
         21   -1    0    0  501  502  0.00000000000E+00  0.00000000000E+00  0.28733296900E+03  0.28733296900E+03  0.00000000000E+00 0.  1.
         21   -1    0    0  502  503 -0.00000000000E+00 -0.00000000000E+00 -0.11073903107E+03  0.11073903107E+03  0.00000000000E+00 0. -1.
          6    1    1    2  501    0 -0.64201691390E+01  0.40823876915E+02  0.73237020030E+02  0.19235505868E+03  0.17300000000E+03 0.  1.
         -6    1    1    2    0  503  0.64201691390E+01 -0.40823876915E+02  0.10335691789E+03  0.20571694139E+03  0.17300000000E+03 0.  1.
</event>
<event>
 4    1  0.5943823E+000  0.1000000E+03  0.7546771E-02  0.1280296E+00
         21   -1    0    0  501  502  0.00000000000E+00  0.00000000000E+00  0.11043101014E+03  0.11043101014E+03  0.00000000000E+00 0.  1.
         21   -1    0    0  502  503 -0.00000000000E+00 -0.00000000000E+00 -0.39982479615E+03  0.39982479615E+03  0.00000000000E+00 0. -1.
          6    1    1    2  501    0 -0.35115851548E+02  0.97341244974E+02 -0.72705887997E+02  0.21429789349E+03  0.17300000000E+03 0.  1.
         -6    1    1    2    0  503  0.35115851548E+02 -0.97341244974E+02 -0.21668789802E+03  0.29595791280E+03  0.17300000000E+03 0.  1.
</event>
<event>
 4    1  0.5943823E+000  0.1000000E+03  0.7546771E-02  0.1280296E+00
         21   -1    0    0  503  502  0.00000000000E+00  0.00000000000E+00  0.26238396224E+03  0.26238396224E+03  0.00000000000E+00 0.  1.
         21   -1    0    0  501  503 -0.00000000000E+00 -0.00000000000E+00 -0.11855958175E+03  0.11855958175E+03  0.00000000000E+00 0.  1.
          6    1    1    2  501    0  0.68311101857E+01 -0.15105063601E+02  0.10438735104E+03  0.20273269611E+03  0.17300000000E+03 0.  1.
         -6    1    1    2    0  502 -0.68311101857E+01  0.15105063601E+02  0.39437029448E+02  0.17821084789E+03  0.17300000000E+03 0.  1.
</event>
<event>
 4    1  0.5943823E+000  0.1000000E+03  0.7546771E-02  0.1280296E+00
         21   -1    0    0  503  502  0.00000000000E+00  0.00000000000E+00  0.24469480488E+04  0.24469480488E+04  0.00000000000E+00 0.  1.
         21   -1    0    0  501  503 -0.00000000000E+00 -0.00000000000E+00 -0.40541905748E+02  0.40541905748E+02  0.00000000000E+00 0.  1.
          6    1    1    2  501    0 -0.23979496081E+03  0.90999789558E+02  0.14365627970E+04  0.14694979601E+04  0.17300000000E+03 0.  1.
         -6    1    1    2    0  502  0.23979496081E+03 -0.90999789558E+02  0.96984334599E+03  0.10179919944E+04  0.17300000000E+03 0.  1.
</event>
<event>
 4    1  0.5943823E+000  0.1000000E+03  0.7546771E-02  0.1280296E+00
         21   -1    0    0  503  502  0.00000000000E+00  0.00000000000E+00  0.23212901748E+03  0.23212901748E+03  0.00000000000E+00 0.  1.
         21   -1    0    0  501  503 -0.00000000000E+00 -0.00000000000E+00 -0.59487636933E+03  0.59487636933E+03  0.00000000000E+00 0.  1.
          6    1    1    2  501    0 -0.27193511154E+03  0.12903695212E+03 -0.32882897583E+03  0.47818065126E+03  0.17300000000E+03 0.  1.
         -6    1    1    2    0  502  0.27193511154E+03 -0.12903695212E+03 -0.33918376021E+02  0.34882473555E+03  0.17300000000E+03 0.  1.
</event>
<event>
 4    1  0.5943823E+000  0.1000000E+03  0.7546771E-02  0.1280296E+00
         21   -1    0    0  501  502  0.00000000000E+00  0.00000000000E+00  0.60821227026E+03  0.60821227026E+03  0.00000000000E+00 0. -1.
         21   -1    0    0  502  503 -0.00000000000E+00 -0.00000000000E+00 -0.64416033060E+02  0.64416033060E+02  0.00000000000E+00 0.  1.
          6    1    1    2  501    0 -0.88789989535E+02  0.69426966662E+01  0.33357728094E+03  0.38617957693E+03  0.17300000000E+03 0.  1.
         -6    1    1    2    0  503  0.88789989535E+02 -0.69426966662E+01  0.21021895626E+03  0.28644872639E+03  0.17300000000E+03 0.  1.
</event>
<event>
 4    1  0.5943823E+000  0.1000000E+03  0.7546771E-02  0.1280296E+00
         21   -1    0    0  501  502  0.00000000000E+00  0.00000000000E+00  0.32948538130E+03  0.32948538130E+03  0.00000000000E+00 0. -1.
         21   -1    0    0  502  503 -0.00000000000E+00 -0.00000000000E+00 -0.12867862332E+04  0.12867862332E+04  0.00000000000E+00 0.  1.
          6    1    1    2  501    0 -0.20456295168E+03  0.10351579244E+03  0.24662003423E+03  0.37856566375E+03  0.17300000000E+03 0.  1.
         -6    1    1    2    0  503  0.20456295168E+03 -0.10351579244E+03 -0.12039208861E+04  0.12377059507E+04  0.17300000000E+03 0.  1.
</event>
<event>
 4    1  0.5943823E+000  0.1000000E+03  0.7546771E-02  0.1280296E+00
         21   -1    0    0  501  502  0.00000000000E+00  0.00000000000E+00  0.56406161816E+02  0.56406161816E+02  0.00000000000E+00 0. -1.
         21   -1    0    0  502  503 -0.00000000000E+00 -0.00000000000E+00 -0.12596403494E+04  0.12596403494E+04  0.00000000000E+00 0.  1.
          6    1    1    2  501    0 -0.47724124242E+01 -0.12918289875E+02 -0.10216882160E+03  0.20138799925E+03  0.17300000000E+03 0.  1.
         -6    1    1    2    0  503  0.47724124242E+01  0.12918289875E+02 -0.11010653660E+04  0.11146585120E+04  0.17300000000E+03 0.  1.
</event>
<event>
 4    1  0.5943823E+000  0.1000000E+03  0.7546771E-02  0.1280296E+00
         21   -1    0    0  501  502  0.00000000000E+00  0.00000000000E+00  0.96837362210E+02  0.96837362210E+02  0.00000000000E+00 0. -1.
         21   -1    0    0  502  503 -0.00000000000E+00 -0.00000000000E+00 -0.72241474459E+03  0.72241474459E+03  0.00000000000E+00 0.  1.
          6    1    1    2  501    0 -0.69577808391E+02  0.18423404302E+03 -0.25815412500E+03  0.36790733383E+03  0.17300000000E+03 0.  1.
         -6    1    1    2    0  503  0.69577808391E+02 -0.18423404302E+03 -0.36742325738E+03  0.45134477298E+03  0.17300000000E+03 0.  1.
</event>
<event>
 4    1  0.5943823E+000  0.1000000E+03  0.7546771E-02  0.1280296E+00
         21   -1    0    0  501  502  0.00000000000E+00  0.00000000000E+00  0.91964375670E+02  0.91964375670E+02  0.00000000000E+00 0. -1.
         21   -1    0    0  502  503 -0.00000000000E+00 -0.00000000000E+00 -0.55911818527E+03  0.55911818527E+03  0.00000000000E+00 0.  1.
          6    1    1    2  501    0  0.37648016629E+02  0.67222907589E+02 -0.54532489687E+02  0.19707634280E+03  0.17300000000E+03 0. -1.
         -6    1    1    2    0  503 -0.37648016629E+02 -0.67222907589E+02 -0.41262131991E+03  0.45400621813E+03  0.17300000000E+03 0. -1.
</event>
<event>
 4    1  0.5943823E+000  0.1000000E+03  0.7546771E-02  0.1280296E+00
         21   -1    0    0  503  502  0.00000000000E+00  0.00000000000E+00  0.12369254588E+03  0.12369254588E+03  0.00000000000E+00 0.  1.
         21   -1    0    0  501  503 -0.00000000000E+00 -0.00000000000E+00 -0.78697799691E+03  0.78697799691E+03  0.00000000000E+00 0. -1.
          6    1    1    2  501    0 -0.72653823201E+02 -0.64585685721E+02 -0.68300812555E+03  0.71125170537E+03  0.17300000000E+03 0. -1.
         -6    1    1    2    0  502  0.72653823201E+02  0.64585685721E+02  0.19722674531E+02  0.19941883742E+03  0.17300000000E+03 0.  1.
</event>
<event>
 4    1  0.5943823E+000  0.1000000E+03  0.7546771E-02  0.1280296E+00
         21   -1    0    0  503  502  0.00000000000E+00  0.00000000000E+00  0.49620977976E+03  0.49620977976E+03  0.00000000000E+00 0. -1.
         21   -1    0    0  501  503 -0.00000000000E+00 -0.00000000000E+00 -0.10380230037E+03  0.10380230037E+03  0.00000000000E+00 0.  1.
          6    1    1    2  501    0 -0.39723157745E+02  0.78681064872E+02  0.35154681754E+03  0.40160030397E+03  0.17300000000E+03 0.  1.
         -6    1    1    2    0  502  0.39723157745E+02 -0.78681064872E+02  0.40860661854E+02  0.19841177616E+03  0.17300000000E+03 0. -1.
</event>
<event>
 4    1  0.5943823E+000  0.1000000E+03  0.7546771E-02  0.1280296E+00
         21   -1    0    0  503  502  0.00000000000E+00  0.00000000000E+00  0.40479064372E+03  0.40479064372E+03  0.00000000000E+00 0. -1.
         21   -1    0    0  501  503 -0.00000000000E+00 -0.00000000000E+00 -0.14606491467E+03  0.14606491467E+03  0.00000000000E+00 0.  1.
          6    1    1    2  501    0 -0.48193871141E+01 -0.17080033328E+03  0.13033098224E+03  0.27588248453E+03  0.17300000000E+03 0.  1.
         -6    1    1    2    0  502  0.48193871141E+01  0.17080033328E+03  0.12839474681E+03  0.27497307386E+03  0.17300000000E+03 0. -1.
</event>
<event>
 4    1  0.5943823E+000  0.1000000E+03  0.7546771E-02  0.1280296E+00
         21   -1    0    0  503  502  0.00000000000E+00  0.00000000000E+00  0.10285350033E+03  0.10285350033E+03  0.00000000000E+00 0. -1.
         21   -1    0    0  501  503 -0.00000000000E+00 -0.00000000000E+00 -0.61472344376E+03  0.61472344376E+03  0.00000000000E+00 0. -1.
          6    1    1    2  501    0  0.17920525710E+03  0.11693697907E+02 -0.30208740277E+03  0.39171043598E+03  0.17300000000E+03 0. -1.
         -6    1    1    2    0  502 -0.17920525710E+03 -0.11693697907E+02 -0.20978254066E+03  0.32586650811E+03  0.17300000000E+03 0. -1.
</event>
<event>
 4    1  0.5943823E+000  0.1000000E+03  0.7546771E-02  0.1280296E+00
         21   -1    0    0  503  502  0.00000000000E+00  0.00000000000E+00  0.17745074695E+04  0.17745074695E+04  0.00000000000E+00 0. -1.
         21   -1    0    0  501  503 -0.00000000000E+00 -0.00000000000E+00 -0.14880911435E+03  0.14880911435E+03  0.00000000000E+00 0. -1.
          6    1    1    2  501    0 -0.87965859241E+02 -0.12110291606E+03 -0.48260109701E+02  0.23379894537E+03  0.17300000000E+03 0. -1.
         -6    1    1    2    0  502  0.87965859241E+02  0.12110291606E+03  0.16739584649E+04  0.16895176385E+04  0.17300000000E+03 0. -1.
</event>
<event>
 4    1  0.5943823E+000  0.1000000E+03  0.7546771E-02  0.1280296E+00
         21   -1    0    0  503  502  0.00000000000E+00  0.00000000000E+00  0.11590331845E+04  0.11590331845E+04  0.00000000000E+00 0. -1.
         21   -1    0    0  501  503 -0.00000000000E+00 -0.00000000000E+00 -0.36703876098E+02  0.36703876098E+02  0.00000000000E+00 0.  1.
          6    1    1    2  501    0  0.72665714594E+02  0.79531157808E+02  0.46920262974E+03  0.51155216635E+03  0.17300000000E+03 0.  1.
         -6    1    1    2    0  502 -0.72665714594E+02 -0.79531157808E+02  0.65312667863E+03  0.68418489422E+03  0.17300000000E+03 0.  1.
</event>
<event>
 4    1  0.5943823E+000  0.1000000E+03  0.7546771E-02  0.1280296E+00
         21   -1    0    0  503  502  0.00000000000E+00  0.00000000000E+00  0.77840131464E+03  0.77840131464E+03  0.00000000000E+00 0. -1.
         21   -1    0    0  501  503 -0.00000000000E+00 -0.00000000000E+00 -0.81963704504E+02  0.81963704504E+02  0.00000000000E+00 0.  1.
          6    1    1    2  501    0  0.15455429640E+03 -0.22958996897E+02  0.51384482537E+03  0.56425140730E+03  0.17300000000E+03 0.  1.
         -6    1    1    2    0  502 -0.15455429640E+03  0.22958996897E+02  0.18259278477E+03  0.29611361185E+03  0.17300000000E+03 0.  1.
</event>
<event>
 4    1  0.5943823E+000  0.1000000E+03  0.7546771E-02  0.1280296E+00
         21   -1    0    0  503  502  0.00000000000E+00  0.00000000000E+00  0.13738747029E+04  0.13738747029E+04  0.00000000000E+00 0. -1.
         21   -1    0    0  501  503 -0.00000000000E+00 -0.00000000000E+00 -0.33814217145E+02  0.33814217145E+02  0.00000000000E+00 0.  1.
          6    1    1    2  501    0 -0.56380228827E+02 -0.10170132620E+03  0.49100280218E+03  0.53341788656E+03  0.17300000000E+03 0.  1.
         -6    1    1    2    0  502  0.56380228827E+02  0.10170132620E+03  0.84905768355E+03  0.87427103346E+03  0.17300000000E+03 0.  1.
</event>
<event>
 4    1  0.5943823E+000  0.1000000E+03  0.7546771E-02  0.1280296E+00
         21   -1    0    0  501  502  0.00000000000E+00  0.00000000000E+00  0.13322225215E+03  0.13322225215E+03  0.00000000000E+00 0. -1.
         21   -1    0    0  502  503 -0.00000000000E+00 -0.00000000000E+00 -0.28455381149E+03  0.28455381149E+03  0.00000000000E+00 0. -1.
          6    1    1    2  501    0  0.47448634978E+02 -0.29393560007E+02 -0.83778709321E+00  0.18178299210E+03  0.17300000000E+03 0. -1.
         -6    1    1    2    0  503 -0.47448634978E+02  0.29393560007E+02 -0.15049377224E+03  0.23599307154E+03  0.17300000000E+03 0. -1.
</event>
<event>
 4    1  0.5943823E+000  0.1000000E+03  0.7546771E-02  0.1280296E+00
         21   -1    0    0  501  502  0.00000000000E+00  0.00000000000E+00  0.16386399066E+03  0.16386399066E+03  0.00000000000E+00 0. -1.
         21   -1    0    0  502  503 -0.00000000000E+00 -0.00000000000E+00 -0.35242285595E+03  0.35242285595E+03  0.00000000000E+00 0. -1.
          6    1    1    2  501    0  0.13745313689E+03 -0.73161129096E+02 -0.15850307233E+03  0.28159925353E+03  0.17300000000E+03 0. -1.
         -6    1    1    2    0  503 -0.13745313689E+03  0.73161129096E+02 -0.30055792953E+02  0.23468759307E+03  0.17300000000E+03 0. -1.
</event>
<event>
 4    1  0.5943823E+000  0.1000000E+03  0.7546771E-02  0.1280296E+00
         21   -1    0    0  501  502  0.00000000000E+00  0.00000000000E+00  0.45178197640E+03  0.45178197640E+03  0.00000000000E+00 0. -1.
         21   -1    0    0  502  503 -0.00000000000E+00 -0.00000000000E+00 -0.85490921992E+02  0.85490921992E+02  0.00000000000E+00 0. -1.
          6    1    1    2  501    0  0.64745223262E+02 -0.61842898868E+02  0.21873172091E+03  0.29289768488E+03  0.17300000000E+03 0. -1.
         -6    1    1    2    0  503 -0.64745223262E+02  0.61842898868E+02  0.14755933349E+03  0.24437521351E+03  0.17300000000E+03 0. -1.
</event>
<event>
 4    1  0.5943823E+000  0.1000000E+03  0.7546771E-02  0.1280296E+00
         21   -1    0    0  501  502  0.00000000000E+00  0.00000000000E+00  0.75242762570E+03  0.75242762570E+03  0.00000000000E+00 0. -1.
         21   -1    0    0  502  503 -0.00000000000E+00 -0.00000000000E+00 -0.56443404491E+02  0.56443404491E+02  0.00000000000E+00 0. -1.
          6    1    1    2  501    0 -0.50488063386E+02  0.92524473536E+02  0.27375982794E+03  0.34056316028E+03  0.17300000000E+03 0. -1.
         -6    1    1    2    0  503  0.50488063386E+02 -0.92524473536E+02  0.42222439327E+03  0.46830786991E+03  0.17300000000E+03 0. -1.
</event>
<event>
 4    1  0.5943823E+000  0.1000000E+03  0.7546771E-02  0.1280296E+00
         21   -1    0    0  501  502  0.00000000000E+00  0.00000000000E+00  0.31256764840E+03  0.31256764840E+03  0.00000000000E+00 0.  1.
         21   -1    0    0  502  503 -0.00000000000E+00 -0.00000000000E+00 -0.12225974835E+03  0.12225974835E+03  0.00000000000E+00 0.  1.
          6    1    1    2  501    0 -0.40007683030E+02  0.67819567253E+02  0.14594192723E+03  0.23964172118E+03  0.17300000000E+03 0.  1.
         -6    1    1    2    0  503  0.40007683030E+02 -0.67819567253E+02  0.44365972817E+02  0.19518567557E+03  0.17300000000E+03 0.  1.
</event>
<event>
 4    1  0.5943823E+000  0.1000000E+03  0.7546771E-02  0.1280296E+00
         21   -1    0    0  501  502  0.00000000000E+00  0.00000000000E+00  0.17650210618E+03  0.17650210618E+03  0.00000000000E+00 0.  1.
         21   -1    0    0  502  503 -0.00000000000E+00 -0.00000000000E+00 -0.20952268965E+03  0.20952268965E+03  0.00000000000E+00 0.  1.
          6    1    1    2  501    0  0.46659369436E+02 -0.65231832695E+01  0.53261967954E+02  0.18704407477E+03  0.17300000000E+03 0.  1.
         -6    1    1    2    0  503 -0.46659369436E+02  0.65231832695E+01 -0.86282551420E+02  0.19898072107E+03  0.17300000000E+03 0.  1.
</event>
<event>
 4    1  0.5943823E+000  0.1000000E+03  0.7546771E-02  0.1280296E+00
         21   -1    0    0  501  502  0.00000000000E+00  0.00000000000E+00  0.34496485140E+03  0.34496485140E+03  0.00000000000E+00 0.  1.
         21   -1    0    0  502  503 -0.00000000000E+00 -0.00000000000E+00 -0.29373540988E+03  0.29373540988E+03  0.00000000000E+00 0.  1.
          6    1    1    2  501    0 -0.77676276004E+02 -0.19360625269E+03  0.19313471698E+03  0.33278672425E+03  0.17300000000E+03 0.  1.
         -6    1    1    2    0  503  0.77676276004E+02  0.19360625269E+03 -0.14190527547E+03  0.30591353703E+03  0.17300000000E+03 0.  1.
</event>
<event>
 4    1  0.5943823E+000  0.1000000E+03  0.7546771E-02  0.1280296E+00
         21   -1    0    0  503  502  0.00000000000E+00  0.00000000000E+00  0.49709204905E+02  0.49709204905E+02  0.00000000000E+00 0.  1.
         21   -1    0    0  501  503 -0.00000000000E+00 -0.00000000000E+00 -0.10208877261E+04  0.10208877261E+04  0.00000000000E+00 0.  1.
          6    1    1    2  501    0  0.35017550833E+02 -0.19200769547E+02 -0.81505189840E+03  0.83416634762E+03  0.17300000000E+03 0.  1.
         -6    1    1    2    0  502 -0.35017550833E+02  0.19200769547E+02 -0.15612662281E+03  0.23643058340E+03  0.17300000000E+03 0.  1.
</event>
<event>
 4    1  0.5943823E+000  0.1000000E+03  0.7546771E-02  0.1280296E+00
         21   -1    0    0  501  502  0.00000000000E+00  0.00000000000E+00  0.71972180132E+02  0.71972180132E+02  0.00000000000E+00 0. -1.
         21   -1    0    0  502  503 -0.00000000000E+00 -0.00000000000E+00 -0.10427903520E+04  0.10427903520E+04  0.00000000000E+00 0.  1.
          6    1    1    2  501    0 -0.19641296118E+03 -0.57088622749E+02 -0.36878515826E+03  0.45581647087E+03  0.17300000000E+03 0. -1.
         -6    1    1    2    0  503  0.19641296118E+03  0.57088622749E+02 -0.60203301356E+03  0.65894606121E+03  0.17300000000E+03 0. -1.
</event>
<event>
 4    1  0.5943823E+000  0.1000000E+03  0.7546771E-02  0.1280296E+00
         21   -1    0    0  501  502  0.00000000000E+00  0.00000000000E+00  0.11468149746E+04  0.11468149746E+04  0.00000000000E+00 0. -1.
         21   -1    0    0  502  503 -0.00000000000E+00 -0.00000000000E+00 -0.22243243992E+03  0.22243243992E+03  0.00000000000E+00 0. -1.
          6    1    1    2  501    0  0.83808818156E+02  0.27420552702E+02  0.10941955620E+04  0.11112914706E+04  0.17300000000E+03 0. -1.
         -6    1    1    2    0  503 -0.83808818156E+02 -0.27420552702E+02 -0.16981302738E+03  0.25795594387E+03  0.17300000000E+03 0. -1.
</event>
<event>
 4    1  0.5943823E+000  0.1000000E+03  0.7546771E-02  0.1280296E+00
         21   -1    0    0  501  502  0.00000000000E+00  0.00000000000E+00  0.12727181282E+03  0.12727181282E+03  0.00000000000E+00 0. -1.
         21   -1    0    0  502  503 -0.00000000000E+00 -0.00000000000E+00 -0.40098660623E+03  0.40098660623E+03  0.00000000000E+00 0. -1.
          6    1    1    2  501    0  0.99375535170E+02  0.90663338962E+02 -0.72712024113E+02  0.23089256478E+03  0.17300000000E+03 0. -1.
         -6    1    1    2    0  503 -0.99375535170E+02 -0.90663338962E+02 -0.20100276929E+03  0.29736585427E+03  0.17300000000E+03 0. -1.
</event>
<event>
 4    1  0.5943823E+000  0.1000000E+03  0.7546771E-02  0.1280296E+00
         21   -1    0    0  503  502  0.00000000000E+00  0.00000000000E+00  0.67845684164E+02  0.67845684164E+02  0.00000000000E+00 0.  1.
         21   -1    0    0  501  503 -0.00000000000E+00 -0.00000000000E+00 -0.12320815989E+04  0.12320815989E+04  0.00000000000E+00 0.  1.
          6    1    1    2  501    0  0.76281100754E+02  0.51863821241E+02 -0.10598178667E+04  0.10777994121E+04  0.17300000000E+03 0.  1.
         -6    1    1    2    0  502 -0.76281100754E+02 -0.51863821241E+02 -0.10441804808E+03  0.22212787095E+03  0.17300000000E+03 0.  1.
</event>
<event>
 4    1  0.5943823E+000  0.1000000E+03  0.7546771E-02  0.1280296E+00
         21   -1    0    0  503  502  0.00000000000E+00  0.00000000000E+00  0.11999598531E+04  0.11999598531E+04  0.00000000000E+00 0.  1.
         21   -1    0    0  501  503 -0.00000000000E+00 -0.00000000000E+00 -0.25835295890E+02  0.25835295890E+02  0.00000000000E+00 0.  1.
          6    1    1    2  501    0 -0.13020056191E+02  0.27117273745E+02  0.54201799306E+03  0.56975202781E+03  0.17300000000E+03 0.  1.
         -6    1    1    2    0  502  0.13020056191E+02 -0.27117273745E+02  0.63210656411E+03  0.65604312114E+03  0.17300000000E+03 0.  1.
</event>
<event>
 4    1  0.5943823E+000  0.1000000E+03  0.7546771E-02  0.1280296E+00
         21   -1    0    0  503  502  0.00000000000E+00  0.00000000000E+00  0.13532909625E+03  0.13532909625E+03  0.00000000000E+00 0.  1.
         21   -1    0    0  501  503 -0.00000000000E+00 -0.00000000000E+00 -0.49424237847E+03  0.49424237847E+03  0.00000000000E+00 0.  1.
          6    1    1    2  501    0  0.46602841908E+01  0.10521275674E+03 -0.37520815782E+03  0.42638199320E+03  0.17300000000E+03 0.  1.
         -6    1    1    2    0  502 -0.46602841908E+01 -0.10521275674E+03  0.16294875596E+02  0.20318948152E+03  0.17300000000E+03 0.  1.
</event>
<event>
 4    1  0.5943823E+000  0.1000000E+03  0.7546771E-02  0.1280296E+00
         21   -1    0    0  503  502  0.00000000000E+00  0.00000000000E+00  0.31074628475E+03  0.31074628475E+03  0.00000000000E+00 0.  1.
         21   -1    0    0  501  503 -0.00000000000E+00 -0.00000000000E+00 -0.22222658443E+03  0.22222658443E+03  0.00000000000E+00 0.  1.
          6    1    1    2  501    0 -0.12320997981E+03 -0.91182180244E+02 -0.82529895038E+02  0.24542834534E+03  0.17300000000E+03 0.  1.
         -6    1    1    2    0  502  0.12320997981E+03  0.91182180244E+02  0.17104959535E+03  0.28754452384E+03  0.17300000000E+03 0.  1.
</event>
<event>
 4    1  0.5943823E+000  0.1000000E+03  0.7546771E-02  0.1280296E+00
         21   -1    0    0  503  502  0.00000000000E+00  0.00000000000E+00  0.19087808974E+03  0.19087808974E+03  0.00000000000E+00 0.  1.
         21   -1    0    0  501  503 -0.00000000000E+00 -0.00000000000E+00 -0.62828008806E+03  0.62828008806E+03  0.00000000000E+00 0.  1.
          6    1    1    2  501    0 -0.14378992093E+03  0.17067745305E+03 -0.45580547939E+03  0.53618464113E+03  0.17300000000E+03 0.  1.
         -6    1    1    2    0  502  0.14378992093E+03 -0.17067745305E+03  0.18403481066E+02  0.28297353667E+03  0.17300000000E+03 0.  1.
</event>
<event>
 4    1  0.5943823E+000  0.1000000E+03  0.7546771E-02  0.1280296E+00
         21   -1    0    0  503  502  0.00000000000E+00  0.00000000000E+00  0.32983257087E+03  0.32983257087E+03  0.00000000000E+00 0.  1.
         21   -1    0    0  501  503 -0.00000000000E+00 -0.00000000000E+00 -0.26433160567E+03  0.26433160567E+03  0.00000000000E+00 0.  1.
          6    1    1    2  501    0  0.52841352485E+02 -0.10666451586E+03 -0.17609567683E+03  0.27405877996E+03  0.17300000000E+03 0.  1.
         -6    1    1    2    0  502 -0.52841352485E+02  0.10666451586E+03  0.24159664203E+03  0.32010539658E+03  0.17300000000E+03 0.  1.
</event>
<event>
 4    1  0.5943823E+000  0.1000000E+03  0.7546771E-02  0.1280296E+00
         21   -1    0    0  503  502  0.00000000000E+00  0.00000000000E+00  0.71118092383E+02  0.71118092383E+02  0.00000000000E+00 0.  1.
         21   -1    0    0  501  503 -0.00000000000E+00 -0.00000000000E+00 -0.70092831138E+03  0.70092831138E+03  0.00000000000E+00 0. -1.
          6    1    1    2  501    0 -0.11915545499E+03 -0.13523910986E+02 -0.44357977807E+03  0.49099179030E+03  0.17300000000E+03 0. -1.
         -6    1    1    2    0  502  0.11915545499E+03  0.13523910986E+02 -0.18623044092E+03  0.28105461346E+03  0.17300000000E+03 0.  1.
</event>
<event>
 4    1  0.5943823E+000  0.1000000E+03  0.7546771E-02  0.1280296E+00
         21   -1    0    0  503  502  0.00000000000E+00  0.00000000000E+00  0.37056106625E+03  0.37056106625E+03  0.00000000000E+00 0.  1.
         21   -1    0    0  501  503 -0.00000000000E+00 -0.00000000000E+00 -0.11337476929E+03  0.11337476929E+03  0.00000000000E+00 0. -1.
          6    1    1    2  501    0  0.61346669888E+02  0.13127065278E+02  0.22035904355E+02  0.18533837927E+03  0.17300000000E+03 0. -1.
         -6    1    1    2    0  502 -0.61346669888E+02 -0.13127065278E+02  0.23515039261E+03  0.29859745627E+03  0.17300000000E+03 0.  1.
</event>
<event>
 4    1  0.5943823E+000  0.1000000E+03  0.7546771E-02  0.1280296E+00
         21   -1    0    0  501  502  0.00000000000E+00  0.00000000000E+00  0.10943871022E+04  0.10943871022E+04  0.00000000000E+00 0.  1.
         21   -1    0    0  502  503 -0.00000000000E+00 -0.00000000000E+00 -0.10136988164E+03  0.10136988164E+03  0.00000000000E+00 0. -1.
          6    1    1    2  501    0 -0.13597123617E+03 -0.22597497347E+03  0.68863629981E+03  0.75743106559E+03  0.17300000000E+03 0.  1.
         -6    1    1    2    0  503  0.13597123617E+03  0.22597497347E+03  0.30438092078E+03  0.43832591828E+03  0.17300000000E+03 0. -1.
</event>
<event>
 4    1  0.5943823E+000  0.1000000E+03  0.7546771E-02  0.1280296E+00
         21   -1    0    0  503  502  0.00000000000E+00  0.00000000000E+00  0.13009732972E+03  0.13009732972E+03  0.00000000000E+00 0. -1.
         21   -1    0    0  501  503 -0.00000000000E+00 -0.00000000000E+00 -0.37849343254E+03  0.37849343254E+03  0.00000000000E+00 0. -1.
          6    1    1    2  501    0 -0.31517179426E+02 -0.12146256185E+03 -0.19262626890E+03  0.28771577295E+03  0.17300000000E+03 0. -1.
         -6    1    1    2    0  502  0.31517179426E+02  0.12146256185E+03 -0.55769833917E+02  0.22087498932E+03  0.17300000000E+03 0. -1.
</event>
<event>
 4    1  0.5943823E+000  0.1000000E+03  0.7546771E-02  0.1280296E+00
         21   -1    0    0  501  502  0.00000000000E+00  0.00000000000E+00  0.96271884448E+03  0.96271884448E+03  0.00000000000E+00 0. -1.
         21   -1    0    0  502  503 -0.00000000000E+00 -0.00000000000E+00 -0.42998856678E+02  0.42998856678E+02  0.00000000000E+00 0. -1.
          6    1    1    2  501    0 -0.22359077097E+02  0.61952840612E+02  0.66853666225E+03  0.69369182751E+03  0.17300000000E+03 0. -1.
         -6    1    1    2    0  503  0.22359077097E+02 -0.61952840612E+02  0.25118332556E+03  0.31202587365E+03  0.17300000000E+03 0. -1.
</event>
<event>
 4    1  0.5943823E+000  0.1000000E+03  0.7546771E-02  0.1280296E+00
         21   -1    0    0  503  502  0.00000000000E+00  0.00000000000E+00  0.11890526192E+03  0.11890526192E+03  0.00000000000E+00 0.  1.
         21   -1    0    0  501  503 -0.00000000000E+00 -0.00000000000E+00 -0.48334535029E+03  0.48334535029E+03  0.00000000000E+00 0. -1.
          6    1    1    2  501    0  0.43352321709E+02  0.35125215647E+02 -0.37854729057E+03  0.41992886989E+03  0.17300000000E+03 0. -1.
         -6    1    1    2    0  502 -0.43352321709E+02 -0.35125215647E+02  0.14107202197E+02  0.18232174233E+03  0.17300000000E+03 0.  1.
</event>
<event>
 4    1  0.5943823E+000  0.1000000E+03  0.7546771E-02  0.1280296E+00
         21   -1    0    0  501  502  0.00000000000E+00  0.00000000000E+00  0.33554866654E+03  0.33554866654E+03  0.00000000000E+00 0.  1.
         21   -1    0    0  502  503 -0.00000000000E+00 -0.00000000000E+00 -0.41862287373E+03  0.41862287373E+03  0.00000000000E+00 0. -1.
          6    1    1    2  501    0 -0.24779683295E+03  0.58297297984E+02  0.17363557552E+03  0.35338386841E+03  0.17300000000E+03 0.  1.
         -6    1    1    2    0  503  0.24779683295E+03 -0.58297297984E+02 -0.25670978271E+03  0.40078767185E+03  0.17300000000E+03 0. -1.
</event>
<event>
 4    1  0.5943823E+000  0.1000000E+03  0.7546771E-02  0.1280296E+00
         21   -1    0    0  501  502  0.00000000000E+00  0.00000000000E+00  0.22375369495E+04  0.22375369495E+04  0.00000000000E+00 0.  1.
         21   -1    0    0  502  503 -0.00000000000E+00 -0.00000000000E+00 -0.50349338218E+02  0.50349338218E+02  0.00000000000E+00 0. -1.
          6    1    1    2  501    0  0.25434746496E+03  0.10992138636E+03  0.13565798594E+04  0.13953541697E+04  0.17300000000E+03 0.  1.
         -6    1    1    2    0  503 -0.25434746496E+03 -0.10992138636E+03  0.83060775190E+03  0.89253211798E+03  0.17300000000E+03 0. -1.
</event>
<event>
 4    1  0.5943823E+000  0.1000000E+03  0.7546771E-02  0.1280296E+00
         21   -1    0    0  501  502  0.00000000000E+00  0.00000000000E+00  0.56290230854E+03  0.56290230854E+03  0.00000000000E+00 0.  1.
         21   -1    0    0  502  503 -0.00000000000E+00 -0.00000000000E+00 -0.16943740168E+03  0.16943740168E+03  0.00000000000E+00 0. -1.
          6    1    1    2  501    0  0.19321678636E+03  0.13438178283E+03  0.31563336200E+03  0.43005186815E+03  0.17300000000E+03 0.  1.
         -6    1    1    2    0  503 -0.19321678636E+03 -0.13438178283E+03  0.77831544861E+02  0.30228784207E+03  0.17300000000E+03 0. -1.
</event>
<event>
 4    1  0.5943823E+000  0.1000000E+03  0.7546771E-02  0.1280296E+00
         21   -1    0    0  501  502  0.00000000000E+00  0.00000000000E+00  0.42228710812E+02  0.42228710812E+02  0.00000000000E+00 0. -1.
         21   -1    0    0  502  503 -0.00000000000E+00 -0.00000000000E+00 -0.10732435082E+04  0.10732435082E+04  0.00000000000E+00 0. -1.
          6    1    1    2  501    0  0.74346549576E+02 -0.16976492338E+02 -0.25912261204E+03  0.32076336885E+03  0.17300000000E+03 0. -1.
         -6    1    1    2    0  503 -0.74346549576E+02  0.16976492338E+02 -0.77189218538E+03  0.79470885020E+03  0.17300000000E+03 0. -1.
</event>
<event>
 4    1  0.5943823E+000  0.1000000E+03  0.7546771E-02  0.1280296E+00
         21   -1    0    0  501  502  0.00000000000E+00  0.00000000000E+00  0.52356172260E+03  0.52356172260E+03  0.00000000000E+00 0. -1.
         21   -1    0    0  502  503 -0.00000000000E+00 -0.00000000000E+00 -0.65537243279E+02  0.65537243279E+02  0.00000000000E+00 0. -1.
          6    1    1    2  501    0  0.50267491275E+02 -0.24526098439E+01  0.29742360922E+03  0.34773932664E+03  0.17300000000E+03 0. -1.
         -6    1    1    2    0  503 -0.50267491275E+02  0.24526098439E+01  0.16060087010E+03  0.24135963924E+03  0.17300000000E+03 0. -1.
</event>
<event>
 4    1  0.5943823E+000  0.1000000E+03  0.7546771E-02  0.1280296E+00
         21   -1    0    0  501  502  0.00000000000E+00  0.00000000000E+00  0.12327514611E+04  0.12327514611E+04  0.00000000000E+00 0. -1.
         21   -1    0    0  502  503 -0.00000000000E+00 -0.00000000000E+00 -0.12472089316E+04  0.12472089316E+04  0.00000000000E+00 0. -1.
          6    1    1    2  501    0  0.11390041352E+03  0.36255015819E+02  0.12147911722E+04  0.12328561646E+04  0.17300000000E+03 0. -1.
         -6    1    1    2    0  503 -0.11390041352E+03 -0.36255015819E+02 -0.12292486427E+04  0.12471042282E+04  0.17300000000E+03 0. -1.
</event>
<event>
 4    1  0.5943823E+000  0.1000000E+03  0.7546771E-02  0.1280296E+00
         21   -1    0    0  501  502  0.00000000000E+00  0.00000000000E+00  0.33689117705E+03  0.33689117705E+03  0.00000000000E+00 0. -1.
         21   -1    0    0  502  503 -0.00000000000E+00 -0.00000000000E+00 -0.21812777871E+03  0.21812777871E+03  0.00000000000E+00 0. -1.
          6    1    1    2  501    0 -0.79845082237E+02 -0.56512938884E+02  0.24810969284E+03  0.31789364432E+03  0.17300000000E+03 0. -1.
         -6    1    1    2    0  503  0.79845082237E+02  0.56512938884E+02 -0.12934629450E+03  0.23712531143E+03  0.17300000000E+03 0. -1.
</event>
<event>
 4    1  0.5943823E+000  0.1000000E+03  0.7546771E-02  0.1280296E+00
         21   -1    0    0  501  502  0.00000000000E+00  0.00000000000E+00  0.71474990284E+03  0.71474990284E+03  0.00000000000E+00 0.  1.
         21   -1    0    0  502  503 -0.00000000000E+00 -0.00000000000E+00 -0.71753284892E+02  0.71753284892E+02  0.00000000000E+00 0.  1.
          6    1    1    2  501    0  0.10163885509E+03 -0.10119845942E+03  0.37015317487E+03  0.43302881881E+03  0.17300000000E+03 0.  1.
         -6    1    1    2    0  503 -0.10163885509E+03  0.10119845942E+03  0.27284344307E+03  0.35347436892E+03  0.17300000000E+03 0.  1.
</event>
<event>
 4    1  0.5943823E+000  0.1000000E+03  0.7546771E-02  0.1280296E+00
         21   -1    0    0  501  502  0.00000000000E+00  0.00000000000E+00  0.31508122532E+02  0.31508122532E+02  0.00000000000E+00 0.  1.
         21   -1    0    0  502  503 -0.00000000000E+00 -0.00000000000E+00 -0.25575140155E+04  0.25575140155E+04  0.00000000000E+00 0.  1.
          6    1    1    2  501    0 -0.18628089030E+03  0.44023676573E+02 -0.72314547825E+03  0.76779361608E+03  0.17300000000E+03 0.  1.
         -6    1    1    2    0  503  0.18628089030E+03 -0.44023676573E+02 -0.18028604148E+04  0.18212285220E+04  0.17300000000E+03 0.  1.
</event>
<event>
 4    1  0.5943823E+000  0.1000000E+03  0.7546771E-02  0.1280296E+00
         21   -1    0    0  501  502  0.00000000000E+00  0.00000000000E+00  0.15852231778E+03  0.15852231778E+03  0.00000000000E+00 0.  1.
         21   -1    0    0  502  503 -0.00000000000E+00 -0.00000000000E+00 -0.64572416781E+03  0.64572416781E+03  0.00000000000E+00 0.  1.
          6    1    1    2  501    0  0.21575799388E+02  0.44672744673E+02  0.88868039334E+02  0.20071795548E+03  0.17300000000E+03 0.  1.
         -6    1    1    2    0  503 -0.21575799388E+02 -0.44672744673E+02 -0.57606988937E+03  0.60352853012E+03  0.17300000000E+03 0.  1.
</event>
<event>
 4    1  0.5943823E+000  0.1000000E+03  0.7546771E-02  0.1280296E+00
         21   -1    0    0  501  502  0.00000000000E+00  0.00000000000E+00  0.10166998987E+03  0.10166998987E+03  0.00000000000E+00 0. -1.
         21   -1    0    0  502  503 -0.00000000000E+00 -0.00000000000E+00 -0.20787812882E+04  0.20787812882E+04  0.00000000000E+00 0. -1.
          6    1    1    2  501    0  0.73978675342E+01 -0.23048949740E+03 -0.13931990884E+03  0.32018615500E+03  0.17300000000E+03 0.  1.
         -6    1    1    2    0  503 -0.73978675342E+01  0.23048949740E+03 -0.18377913895E+04  0.18602651231E+04  0.17300000000E+03 0.  1.
</event>
<event>
 4    1  0.5943823E+000  0.1000000E+03  0.7546771E-02  0.1280296E+00
         21   -1    0    0  501  502  0.00000000000E+00  0.00000000000E+00  0.20768441588E+03  0.20768441588E+03  0.00000000000E+00 0. -1.
         21   -1    0    0  502  503 -0.00000000000E+00 -0.00000000000E+00 -0.77617595712E+03  0.77617595712E+03  0.00000000000E+00 0. -1.
          6    1    1    2  501    0 -0.12910624679E+03 -0.64154537865E+02  0.12301809719E+03  0.25660607928E+03  0.17300000000E+03 0.  1.
         -6    1    1    2    0  503  0.12910624679E+03  0.64154537865E+02 -0.69150963843E+03  0.72725429371E+03  0.17300000000E+03 0.  1.
</event>
<event>
 4    1  0.5943823E+000  0.1000000E+03  0.7546771E-02  0.1280296E+00
         21   -1    0    0  503  502  0.00000000000E+00  0.00000000000E+00  0.20825095180E+03  0.20825095180E+03  0.00000000000E+00 0. -1.
         21   -1    0    0  501  503 -0.00000000000E+00 -0.00000000000E+00 -0.21951923390E+03  0.21951923390E+03  0.00000000000E+00 0.  1.
          6    1    1    2  501    0 -0.63420700304E+01 -0.14628399414E+02 -0.13030435590E+03  0.21716914396E+03  0.17300000000E+03 0.  1.
         -6    1    1    2    0  502  0.63420700304E+01  0.14628399414E+02  0.11903607379E+03  0.21060104175E+03  0.17300000000E+03 0. -1.
</event>
<event>
 4    1  0.5943823E+000  0.1000000E+03  0.7546771E-02  0.1280296E+00
         21   -1    0    0  501  502  0.00000000000E+00  0.00000000000E+00  0.36242539951E+03  0.36242539951E+03  0.00000000000E+00 0.  1.
         21   -1    0    0  502  503 -0.00000000000E+00 -0.00000000000E+00 -0.41166592550E+03  0.41166592550E+03  0.00000000000E+00 0.  1.
          6    1    1    2  501    0 -0.34095711452E+01 -0.33141046592E+03  0.72657461238E+02  0.38085775398E+03  0.17300000000E+03 0.  1.
         -6    1    1    2    0  503  0.34095711452E+01  0.33141046592E+03 -0.12189798722E+03  0.39323357103E+03  0.17300000000E+03 0.  1.
</event>
<event>
 4    1  0.5943823E+000  0.1000000E+03  0.7546771E-02  0.1280296E+00
         21   -1    0    0  501  502  0.00000000000E+00  0.00000000000E+00  0.47192412584E+03  0.47192412584E+03  0.00000000000E+00 0.  1.
         21   -1    0    0  502  503 -0.00000000000E+00 -0.00000000000E+00 -0.39485401793E+03  0.39485401793E+03  0.00000000000E+00 0.  1.
          6    1    1    2  501    0 -0.17512648661E+03 -0.11334028931E+03  0.37587242706E+03  0.46338363039E+03  0.17300000000E+03 0.  1.
         -6    1    1    2    0  503  0.17512648661E+03  0.11334028931E+03 -0.29880231915E+03  0.40339451338E+03  0.17300000000E+03 0.  1.
</event>
<event>
 4    1  0.5943823E+000  0.1000000E+03  0.7546771E-02  0.1280296E+00
         21   -1    0    0  501  502  0.00000000000E+00  0.00000000000E+00  0.23429467200E+03  0.23429467200E+03  0.00000000000E+00 0.  1.
         21   -1    0    0  502  503 -0.00000000000E+00 -0.00000000000E+00 -0.13985695753E+04  0.13985695753E+04  0.00000000000E+00 0.  1.
          6    1    1    2  501    0  0.51443288889E+03  0.11480685299E+03 -0.38080521228E+03  0.67287697268E+03  0.17300000000E+03 0.  1.
         -6    1    1    2    0  503 -0.51443288889E+03 -0.11480685299E+03 -0.78346969098E+03  0.95998727457E+03  0.17300000000E+03 0.  1.
</event>
<event>
 4    1  0.5943823E+000  0.1000000E+03  0.7546771E-02  0.1280296E+00
         21   -1    0    0  501  502  0.00000000000E+00  0.00000000000E+00  0.26675859072E+03  0.26675859072E+03  0.00000000000E+00 0.  1.
         21   -1    0    0  502  503 -0.00000000000E+00 -0.00000000000E+00 -0.35675260510E+03  0.35675260510E+03  0.00000000000E+00 0.  1.
          6    1    1    2  501    0  0.13929196497E+02 -0.93717718549E+02  0.19470649837E+03  0.27715817468E+03  0.17300000000E+03 0.  1.
         -6    1    1    2    0  503 -0.13929196497E+02  0.93717718549E+02 -0.28470051276E+03  0.34635302113E+03  0.17300000000E+03 0.  1.
</event>
<event>
 4    1  0.5943823E+000  0.1000000E+03  0.7546771E-02  0.1280296E+00
         21   -1    0    0  501  502  0.00000000000E+00  0.00000000000E+00  0.71742186269E+02  0.71742186269E+02  0.00000000000E+00 0.  1.
         21   -1    0    0  502  503 -0.00000000000E+00 -0.00000000000E+00 -0.61042838358E+03  0.61042838358E+03  0.00000000000E+00 0. -1.
          6    1    1    2  501    0  0.97553944654E+02  0.25498383086E+02 -0.17023389066E+03  0.26282221593E+03  0.17300000000E+03 0. -1.
         -6    1    1    2    0  503 -0.97553944654E+02 -0.25498383086E+02 -0.36845230665E+03  0.41934835392E+03  0.17300000000E+03 0.  1.
</event>
<event>
 4    1  0.5943823E+000  0.1000000E+03  0.7546771E-02  0.1280296E+00
         21   -1    0    0  501  502  0.00000000000E+00  0.00000000000E+00  0.38957292476E+03  0.38957292476E+03  0.00000000000E+00 0.  1.
         21   -1    0    0  502  503 -0.00000000000E+00 -0.00000000000E+00 -0.20146230037E+03  0.20146230037E+03  0.00000000000E+00 0. -1.
          6    1    1    2  501    0  0.98238380456E+02  0.88508672624E+02  0.27999305847E+03  0.35469659897E+03  0.17300000000E+03 0. -1.
         -6    1    1    2    0  503 -0.98238380456E+02 -0.88508672624E+02 -0.91882434083E+02  0.23633862616E+03  0.17300000000E+03 0.  1.
</event>
<event>
 4    1  0.5943823E+000  0.1000000E+03  0.7546771E-02  0.1280296E+00
         21   -1    0    0  501  502  0.00000000000E+00  0.00000000000E+00  0.20723526301E+04  0.20723526301E+04  0.00000000000E+00 0.  1.
         21   -1    0    0  502  503 -0.00000000000E+00 -0.00000000000E+00 -0.41931945322E+02  0.41931945322E+02  0.00000000000E+00 0. -1.
          6    1    1    2  501    0 -0.19141967282E+03  0.13621711480E+03  0.11661778471E+04  0.12021216097E+04  0.17300000000E+03 0. -1.
         -6    1    1    2    0  503  0.19141967282E+03 -0.13621711480E+03  0.86424283770E+03  0.91216296571E+03  0.17300000000E+03 0.  1.
</event>
<event>
 4    1  0.5943823E+000  0.1000000E+03  0.7546771E-02  0.1280296E+00
         21   -1    0    0  501  502  0.00000000000E+00  0.00000000000E+00  0.83229267147E+02  0.83229267147E+02  0.00000000000E+00 0.  1.
         21   -1    0    0  502  503 -0.00000000000E+00 -0.00000000000E+00 -0.70596035884E+03  0.70596035884E+03  0.00000000000E+00 0. -1.
          6    1    1    2  501    0  0.46856665590E+02  0.95454731524E+02 -0.95891326027E+02  0.22456914144E+03  0.17300000000E+03 0. -1.
         -6    1    1    2    0  503 -0.46856665590E+02 -0.95454731524E+02 -0.52683976567E+03  0.56462048455E+03  0.17300000000E+03 0.  1.
</event>
<event>
 4    1  0.5943823E+000  0.1000000E+03  0.7546771E-02  0.1280296E+00
         21   -1    0    0  501  502  0.00000000000E+00  0.00000000000E+00  0.11164057226E+03  0.11164057226E+03  0.00000000000E+00 0. -1.
         21   -1    0    0  502  503 -0.00000000000E+00 -0.00000000000E+00 -0.30896928682E+03  0.30896928682E+03  0.00000000000E+00 0.  1.
          6    1    1    2  501    0 -0.12257306717E+02 -0.66067181851E+02 -0.90706109406E+02  0.20657132514E+03  0.17300000000E+03 0. -1.
         -6    1    1    2    0  503  0.12257306717E+02  0.66067181851E+02 -0.10662260515E+03  0.21403853395E+03  0.17300000000E+03 0.  1.
</event>
<event>
 4    1  0.5943823E+000  0.1000000E+03  0.7546771E-02  0.1280296E+00
         21   -1    0    0  501  502  0.00000000000E+00  0.00000000000E+00  0.36312083874E+03  0.36312083874E+03  0.00000000000E+00 0.  1.
         21   -1    0    0  502  503 -0.00000000000E+00 -0.00000000000E+00 -0.12637672400E+03  0.12637672400E+03  0.00000000000E+00 0.  1.
          6    1    1    2  501    0  0.27533496070E+02 -0.11722850104E+03  0.16203353013E+03  0.26586552945E+03  0.17300000000E+03 0.  1.
         -6    1    1    2    0  503 -0.27533496070E+02  0.11722850104E+03  0.74710584603E+02  0.22363203329E+03  0.17300000000E+03 0.  1.
</event>
<event>
 4    1  0.5943823E+000  0.1000000E+03  0.7546771E-02  0.1280296E+00
         21   -1    0    0  503  502  0.00000000000E+00  0.00000000000E+00  0.14625225402E+04  0.14625225402E+04  0.00000000000E+00 0.  1.
         21   -1    0    0  501  503 -0.00000000000E+00 -0.00000000000E+00 -0.31115307025E+02  0.31115307025E+02  0.00000000000E+00 0.  1.
          6    1    1    2  501    0  0.10538966468E+03  0.42549422016E+01  0.48209372161E+03  0.52294210232E+03  0.17300000000E+03 0.  1.
         -6    1    1    2    0  502 -0.10538966468E+03 -0.42549422016E+01  0.94931351160E+03  0.97069574495E+03  0.17300000000E+03 0.  1.
</event>
<event>
 4    1  0.5943823E+000  0.1000000E+03  0.7546771E-02  0.1280296E+00
         21   -1    0    0  503  502  0.00000000000E+00  0.00000000000E+00  0.29195592437E+03  0.29195592437E+03  0.00000000000E+00 0.  1.
         21   -1    0    0  501  503 -0.00000000000E+00 -0.00000000000E+00 -0.22719949620E+03  0.22719949620E+03  0.00000000000E+00 0.  1.
          6    1    1    2  501    0 -0.37337672448E+00 -0.59347158931E+02 -0.15038032244E+03  0.23678147322E+03  0.17300000000E+03 0.  1.
         -6    1    1    2    0  502  0.37337672448E+00  0.59347158931E+02  0.21513675061E+03  0.28237394736E+03  0.17300000000E+03 0.  1.
</event>
<event>
 4    1  0.5943823E+000  0.1000000E+03  0.7546771E-02  0.1280296E+00
         21   -1    0    0  503  502  0.00000000000E+00  0.00000000000E+00  0.28998520326E+03  0.28998520326E+03  0.00000000000E+00 0.  1.
         21   -1    0    0  501  503 -0.00000000000E+00 -0.00000000000E+00 -0.23470883661E+03  0.23470883661E+03  0.00000000000E+00 0.  1.
          6    1    1    2  501    0 -0.18729783383E+02 -0.22740878369E+02 -0.16648386221E+03  0.24189631810E+03  0.17300000000E+03 0.  1.
         -6    1    1    2    0  502  0.18729783383E+02  0.22740878369E+02  0.22176022886E+03  0.28279772177E+03  0.17300000000E+03 0.  1.
</event>
<event>
 4    1  0.5943823E+000  0.1000000E+03  0.7546771E-02  0.1280296E+00
         21   -1    0    0  501  502  0.00000000000E+00  0.00000000000E+00  0.98386874456E+02  0.98386874456E+02  0.00000000000E+00 0.  1.
         21   -1    0    0  502  503 -0.00000000000E+00 -0.00000000000E+00 -0.80577917765E+03  0.80577917765E+03  0.00000000000E+00 0. -1.
          6    1    1    2  501    0  0.60191200442E+02  0.11860947771E+03 -0.68014274065E+02  0.22857412428E+03  0.17300000000E+03 0. -1.
         -6    1    1    2    0  503 -0.60191200442E+02 -0.11860947771E+03 -0.63937802913E+03  0.67559192783E+03  0.17300000000E+03 0.  1.
</event>
<event>
 4    1  0.5943823E+000  0.1000000E+03  0.7546771E-02  0.1280296E+00
         21   -1    0    0  501  502  0.00000000000E+00  0.00000000000E+00  0.31000299265E+03  0.31000299265E+03  0.00000000000E+00 0.  1.
         21   -1    0    0  502  503 -0.00000000000E+00 -0.00000000000E+00 -0.21941886956E+03  0.21941886956E+03  0.00000000000E+00 0. -1.
          6    1    1    2  501    0 -0.11079177276E+03  0.23491556809E+02  0.20662022433E+03  0.29231419270E+03  0.17300000000E+03 0. -1.
         -6    1    1    2    0  503  0.11079177276E+03 -0.23491556809E+02 -0.11603610123E+03  0.23710766951E+03  0.17300000000E+03 0.  1.
</event>
<event>
 4    1  0.5943823E+000  0.1000000E+03  0.7546771E-02  0.1280296E+00
         21   -1    0    0  501  502  0.00000000000E+00  0.00000000000E+00  0.30722139296E+03  0.30722139296E+03  0.00000000000E+00 0.  1.
         21   -1    0    0  502  503 -0.00000000000E+00 -0.00000000000E+00 -0.14197008437E+03  0.14197008437E+03  0.00000000000E+00 0.  1.
          6    1    1    2  501    0  0.88085631052E+00 -0.48240429188E+02  0.19724390192E+03  0.26676220077E+03  0.17300000000E+03 0.  1.
         -6    1    1    2    0  503 -0.88085631052E+00  0.48240429188E+02 -0.31992593335E+02  0.18242927656E+03  0.17300000000E+03 0.  1.
</event>
<event>
 4    1  0.5943823E+000  0.1000000E+03  0.7546771E-02  0.1280296E+00
         21   -1    0    0  501  502  0.00000000000E+00  0.00000000000E+00  0.17877405469E+04  0.17877405469E+04  0.00000000000E+00 0.  1.
         21   -1    0    0  502  503 -0.00000000000E+00 -0.00000000000E+00 -0.37017639005E+02  0.37017639005E+02  0.00000000000E+00 0.  1.
          6    1    1    2  501    0 -0.32904981510E+00  0.88551155941E+02  0.14731331841E+04  0.14858976390E+04  0.17300000000E+03 0.  1.
         -6    1    1    2    0  503  0.32904981510E+00 -0.88551155941E+02  0.27758972380E+03  0.33886054691E+03  0.17300000000E+03 0.  1.
</event>
<event>
 4    1  0.5943823E+000  0.1000000E+03  0.7546771E-02  0.1280296E+00
         21   -1    0    0  503  502  0.00000000000E+00  0.00000000000E+00  0.71688696215E+03  0.71688696215E+03  0.00000000000E+00 0. -1.
         21   -1    0    0  501  503 -0.00000000000E+00 -0.00000000000E+00 -0.12734979223E+03  0.12734979223E+03  0.00000000000E+00 0.  1.
          6    1    1    2  501    0 -0.19061362911E+03 -0.14137733461E+01  0.73740424732E+02  0.26777267336E+03  0.17300000000E+03 0.  1.
         -6    1    1    2    0  502  0.19061362911E+03  0.14137733461E+01  0.51579674518E+03  0.57646408102E+03  0.17300000000E+03 0. -1.
</event>
<event>
 4    1  0.5943823E+000  0.1000000E+03  0.7546771E-02  0.1280296E+00
         21   -1    0    0  501  502  0.00000000000E+00  0.00000000000E+00  0.21123120753E+03  0.21123120753E+03  0.00000000000E+00 0.  1.
         21   -1    0    0  502  503 -0.00000000000E+00 -0.00000000000E+00 -0.22626224926E+03  0.22626224926E+03  0.00000000000E+00 0.  1.
          6    1    1    2  501    0 -0.13163732761E+03  0.16823233551E+02  0.84074249693E+01  0.21819966087E+03  0.17300000000E+03 0. -1.
         -6    1    1    2    0  503  0.13163732761E+03 -0.16823233551E+02 -0.23438466702E+02  0.21929379592E+03  0.17300000000E+03 0. -1.
</event>
<event>
 4    1  0.5943823E+000  0.1000000E+03  0.7546771E-02  0.1280296E+00
         21   -1    0    0  501  502  0.00000000000E+00  0.00000000000E+00  0.40737260301E+03  0.40737260301E+03  0.00000000000E+00 0.  1.
         21   -1    0    0  502  503 -0.00000000000E+00 -0.00000000000E+00 -0.11355421950E+03  0.11355421950E+03  0.00000000000E+00 0.  1.
          6    1    1    2  501    0  0.57035095830E+02 -0.27537628820E+02  0.28131841062E+03  0.33627425014E+03  0.17300000000E+03 0. -1.
         -6    1    1    2    0  503 -0.57035095830E+02  0.27537628820E+02  0.12499972889E+02  0.18465257236E+03  0.17300000000E+03 0. -1.
</event>
<event>
 4    1  0.5943823E+000  0.1000000E+03  0.7546771E-02  0.1280296E+00
         21   -1    0    0  501  502  0.00000000000E+00  0.00000000000E+00  0.41096975860E+03  0.41096975860E+03  0.00000000000E+00 0. -1.
         21   -1    0    0  502  503 -0.00000000000E+00 -0.00000000000E+00 -0.23925543407E+03  0.23925543407E+03  0.00000000000E+00 0.  1.
          6    1    1    2  501    0  0.26165402153E+02 -0.19228578494E+02  0.35491485789E+03  0.39616653424E+03  0.17300000000E+03 0.  1.
         -6    1    1    2    0  503 -0.26165402153E+02  0.19228578494E+02 -0.18320053336E+03  0.25405865843E+03  0.17300000000E+03 0.  1.
</event>
<event>
 4    1  0.5943823E+000  0.1000000E+03  0.7546771E-02  0.1280296E+00
         21   -1    0    0  501  502  0.00000000000E+00  0.00000000000E+00  0.31683908080E+03  0.31683908080E+03  0.00000000000E+00 0. -1.
         21   -1    0    0  502  503 -0.00000000000E+00 -0.00000000000E+00 -0.12846304375E+03  0.12846304375E+03  0.00000000000E+00 0.  1.
          6    1    1    2  501    0 -0.39949620718E+02 -0.80504074134E+02  0.36882673688E+02  0.19840919779E+03  0.17300000000E+03 0.  1.
         -6    1    1    2    0  503  0.39949620718E+02  0.80504074134E+02  0.15149336336E+03  0.24689292677E+03  0.17300000000E+03 0.  1.
</event>
<event>
 4    1  0.5943823E+000  0.1000000E+03  0.7546771E-02  0.1280296E+00
         21   -1    0    0  501  502  0.00000000000E+00  0.00000000000E+00  0.47798354183E+03  0.47798354183E+03  0.00000000000E+00 0. -1.
         21   -1    0    0  502  503 -0.00000000000E+00 -0.00000000000E+00 -0.98497591838E+02  0.98497591838E+02  0.00000000000E+00 0.  1.
          6    1    1    2  501    0 -0.67544372290E+02  0.99998494269E+02  0.25733973772E+03  0.33273815785E+03  0.17300000000E+03 0.  1.
         -6    1    1    2    0  503  0.67544372290E+02 -0.99998494269E+02  0.12214621227E+03  0.24374297581E+03  0.17300000000E+03 0.  1.
</event>
<event>
 4    1  0.5943823E+000  0.1000000E+03  0.7546771E-02  0.1280296E+00
         21   -1    0    0  501  502  0.00000000000E+00  0.00000000000E+00  0.10642281906E+04  0.10642281906E+04  0.00000000000E+00 0.  1.
         21   -1    0    0  502  503 -0.00000000000E+00 -0.00000000000E+00 -0.31363868963E+02  0.31363868963E+02  0.00000000000E+00 0.  1.
          6    1    1    2  501    0 -0.44244014031E+02 -0.33468205768E+02  0.57423638313E+03  0.60229069168E+03  0.17300000000E+03 0.  1.
         -6    1    1    2    0  503  0.44244014031E+02  0.33468205768E+02  0.45862793851E+03  0.49330136788E+03  0.17300000000E+03 0.  1.
</event>
<event>
 4    1  0.5943823E+000  0.1000000E+03  0.7546771E-02  0.1280296E+00
         21   -1    0    0  501  502  0.00000000000E+00  0.00000000000E+00  0.97281276429E+02  0.97281276429E+02  0.00000000000E+00 0.  1.
         21   -1    0    0  502  503 -0.00000000000E+00 -0.00000000000E+00 -0.75778469567E+03  0.75778469567E+03  0.00000000000E+00 0.  1.
          6    1    1    2  501    0 -0.70717741726E+02 -0.78179384590E+02 -0.45610242032E+02  0.20765911814E+03  0.17300000000E+03 0.  1.
         -6    1    1    2    0  503  0.70717741726E+02  0.78179384590E+02 -0.61489317721E+03  0.64740685395E+03  0.17300000000E+03 0.  1.
</event>
<event>
 4    1  0.5943823E+000  0.1000000E+03  0.7546771E-02  0.1280296E+00
         21   -1    0    0  501  502  0.00000000000E+00  0.00000000000E+00  0.12819231565E+04  0.12819231565E+04  0.00000000000E+00 0.  1.
         21   -1    0    0  502  503 -0.00000000000E+00 -0.00000000000E+00 -0.37027586037E+02  0.37027586037E+02  0.00000000000E+00 0.  1.
          6    1    1    2  501    0  0.67948262969E+02  0.52946785227E+02  0.92691102843E+03  0.94684390643E+03  0.17300000000E+03 0.  1.
         -6    1    1    2    0  503 -0.67948262969E+02 -0.52946785227E+02  0.31798454200E+03  0.37210683608E+03  0.17300000000E+03 0.  1.
</event>
<event>
 4    1  0.5943823E+000  0.1000000E+03  0.7546771E-02  0.1280296E+00
         21   -1    0    0  503  502  0.00000000000E+00  0.00000000000E+00  0.10839530313E+04  0.10839530313E+04  0.00000000000E+00 0.  1.
         21   -1    0    0  501  503 -0.00000000000E+00 -0.00000000000E+00 -0.47784571324E+02  0.47784571324E+02  0.00000000000E+00 0.  1.
          6    1    1    2  501    0  0.44805802074E+02 -0.51756549395E+02  0.19217998818E+03  0.26748541673E+03  0.17300000000E+03 0.  1.
         -6    1    1    2    0  502 -0.44805802074E+02  0.51756549395E+02  0.84398847182E+03  0.86425218592E+03  0.17300000000E+03 0.  1.
</event>
<event>
 4    1  0.5943823E+000  0.1000000E+03  0.7546771E-02  0.1280296E+00
         21   -1    0    0  503  502  0.00000000000E+00  0.00000000000E+00  0.52811585814E+03  0.52811585814E+03  0.00000000000E+00 0.  1.
         21   -1    0    0  501  503 -0.00000000000E+00 -0.00000000000E+00 -0.79143974072E+02  0.79143974072E+02  0.00000000000E+00 0.  1.
          6    1    1    2  501    0 -0.60749000720E+02 -0.56011437350E+02  0.11904570947E+03  0.22567366516E+03  0.17300000000E+03 0.  1.
         -6    1    1    2    0  502  0.60749000720E+02  0.56011437350E+02  0.32992617460E+03  0.38158616706E+03  0.17300000000E+03 0.  1.
</event>
<event>
 4    1  0.5943823E+000  0.1000000E+03  0.7546771E-02  0.1280296E+00
         21   -1    0    0  503  502  0.00000000000E+00  0.00000000000E+00  0.15807688850E+03  0.15807688850E+03  0.00000000000E+00 0.  1.
         21   -1    0    0  501  503 -0.00000000000E+00 -0.00000000000E+00 -0.20197293116E+03  0.20197293116E+03  0.00000000000E+00 0.  1.
          6    1    1    2  501    0  0.31365058412E+02  0.25857075580E+02 -0.40686114655E+02  0.18230939409E+03  0.17300000000E+03 0.  1.
         -6    1    1    2    0  502 -0.31365058412E+02 -0.25857075580E+02 -0.32099280041E+01  0.17774042558E+03  0.17300000000E+03 0.  1.
</event>
<event>
 4    1  0.5943823E+000  0.1000000E+03  0.7546771E-02  0.1280296E+00
         21   -1    0    0  503  502  0.00000000000E+00  0.00000000000E+00  0.64866383770E+03  0.64866383770E+03  0.00000000000E+00 0.  1.
         21   -1    0    0  501  503 -0.00000000000E+00 -0.00000000000E+00 -0.82648745442E+02  0.82648745442E+02  0.00000000000E+00 0.  1.
          6    1    1    2  501    0  0.85717131192E+02  0.97830161325E+02  0.15312535290E+03  0.26513117649E+03  0.17300000000E+03 0.  1.
         -6    1    1    2    0  502 -0.85717131192E+02 -0.97830161325E+02  0.41288973935E+03  0.46618140665E+03  0.17300000000E+03 0.  1.
</event>
<event>
 4    1  0.5943823E+000  0.1000000E+03  0.7546771E-02  0.1280296E+00
         21   -1    0    0  503  502  0.00000000000E+00  0.00000000000E+00  0.18264359624E+03  0.18264359624E+03  0.00000000000E+00 0. -1.
         21   -1    0    0  501  503 -0.00000000000E+00 -0.00000000000E+00 -0.35315391286E+03  0.35315391286E+03  0.00000000000E+00 0. -1.
          6    1    1    2  501    0  0.13769343218E+03 -0.67720608712E+02 -0.19602205726E+03  0.30314882326E+03  0.17300000000E+03 0.  1.
         -6    1    1    2    0  502 -0.13769343218E+03  0.67720608712E+02  0.25511740642E+02  0.23264868584E+03  0.17300000000E+03 0.  1.
</event>
<event>
 4    1  0.5943823E+000  0.1000000E+03  0.7546771E-02  0.1280296E+00
         21   -1    0    0  503  502  0.00000000000E+00  0.00000000000E+00  0.29471701210E+03  0.29471701210E+03  0.00000000000E+00 0. -1.
         21   -1    0    0  501  503 -0.00000000000E+00 -0.00000000000E+00 -0.15043358406E+03  0.15043358406E+03  0.00000000000E+00 0. -1.
          6    1    1    2  501    0 -0.54465645136E+02 -0.27145416982E+02 -0.37217110815E+02  0.18712961685E+03  0.17300000000E+03 0.  1.
         -6    1    1    2    0  502  0.54465645136E+02  0.27145416982E+02  0.18150053886E+03  0.25802097932E+03  0.17300000000E+03 0.  1.
</event>
<event>
 4    1  0.5943823E+000  0.1000000E+03  0.7546771E-02  0.1280296E+00
         21   -1    0    0  501  502  0.00000000000E+00  0.00000000000E+00  0.77822359679E+03  0.77822359679E+03  0.00000000000E+00 0. -1.
         21   -1    0    0  502  503 -0.00000000000E+00 -0.00000000000E+00 -0.12042699187E+03  0.12042699187E+03  0.00000000000E+00 0.  1.
          6    1    1    2  501    0 -0.10822717250E+03  0.22788266018E+02  0.66216623081E+03  0.69327162293E+03  0.17300000000E+03 0.  1.
         -6    1    1    2    0  503  0.10822717250E+03 -0.22788266018E+02 -0.43696258914E+01  0.20537896573E+03  0.17300000000E+03 0. -1.
</event>
<event>
 4    1  0.5943823E+000  0.1000000E+03  0.7546771E-02  0.1280296E+00
         21   -1    0    0  501  502  0.00000000000E+00  0.00000000000E+00  0.42801983741E+02  0.42801983741E+02  0.00000000000E+00 0. -1.
         21   -1    0    0  502  503 -0.00000000000E+00 -0.00000000000E+00 -0.10903645306E+04  0.10903645306E+04  0.00000000000E+00 0.  1.
          6    1    1    2  501    0 -0.15956223820E+02 -0.12217822702E+03 -0.42023857237E+03  0.47086258924E+03  0.17300000000E+03 0.  1.
         -6    1    1    2    0  503  0.15956223820E+02  0.12217822702E+03 -0.62732397450E+03  0.66230392511E+03  0.17300000000E+03 0. -1.
</event>
<event>
 4    1  0.5943823E+000  0.1000000E+03  0.7546771E-02  0.1280296E+00
         21   -1    0    0  501  502  0.00000000000E+00  0.00000000000E+00  0.11001361046E+04  0.11001361046E+04  0.00000000000E+00 0.  1.
         21   -1    0    0  502  503 -0.00000000000E+00 -0.00000000000E+00 -0.26768219538E+03  0.26768219538E+03  0.00000000000E+00 0. -1.
          6    1    1    2  501    0  0.17343317080E+03  0.10383483189E+03  0.10122947386E+04  0.10466758691E+04  0.17300000000E+03 0. -1.
         -6    1    1    2    0  503 -0.17343317080E+03 -0.10383483189E+03 -0.17984082937E+03  0.32114243095E+03  0.17300000000E+03 0.  1.
</event>
<event>
 4    1  0.5943823E+000  0.1000000E+03  0.7546771E-02  0.1280296E+00
         21   -1    0    0  501  502  0.00000000000E+00  0.00000000000E+00  0.11205137949E+04  0.11205137949E+04  0.00000000000E+00 0.  1.
         21   -1    0    0  502  503 -0.00000000000E+00 -0.00000000000E+00 -0.76476288269E+02  0.76476288269E+02  0.00000000000E+00 0. -1.
          6    1    1    2  501    0 -0.11437818293E+03  0.19917873020E+03  0.40986491830E+03  0.50067233451E+03  0.17300000000E+03 0. -1.
         -6    1    1    2    0  503  0.11437818293E+03 -0.19917873020E+03  0.63417258832E+03  0.69631774864E+03  0.17300000000E+03 0.  1.
</event>
<event>
 4    1  0.5943823E+000  0.1000000E+03  0.7546771E-02  0.1280296E+00
         21   -1    0    0  501  502  0.00000000000E+00  0.00000000000E+00  0.13544328706E+03  0.13544328706E+03  0.00000000000E+00 0.  1.
         21   -1    0    0  502  503 -0.00000000000E+00 -0.00000000000E+00 -0.16581001529E+04  0.16581001529E+04  0.00000000000E+00 0. -1.
          6    1    1    2  501    0  0.83635159449E+02  0.40221419206E+03 -0.45691289336E+03  0.63833336769E+03  0.17300000000E+03 0. -1.
         -6    1    1    2    0  503 -0.83635159449E+02 -0.40221419206E+03 -0.10657439725E+04  0.11552100723E+04  0.17300000000E+03 0.  1.
</event>
<event>
 4    1  0.5943823E+000  0.1000000E+03  0.7546771E-02  0.1280296E+00
         21   -1    0    0  501  502  0.00000000000E+00  0.00000000000E+00  0.35139146709E+03  0.35139146709E+03  0.00000000000E+00 0.  1.
         21   -1    0    0  502  503 -0.00000000000E+00 -0.00000000000E+00 -0.13170598886E+03  0.13170598886E+03  0.00000000000E+00 0. -1.
          6    1    1    2  501    0  0.12140843805E+03  0.30513634250E+02  0.80557617636E+02  0.22823150629E+03  0.17300000000E+03 0. -1.
         -6    1    1    2    0  503 -0.12140843805E+03 -0.30513634250E+02  0.13912786059E+03  0.25486594966E+03  0.17300000000E+03 0.  1.
</event>
<event>
 4    1  0.5943823E+000  0.1000000E+03  0.7546771E-02  0.1280296E+00
         21   -1    0    0  501  502  0.00000000000E+00  0.00000000000E+00  0.46036961760E+03  0.46036961760E+03  0.00000000000E+00 0. -1.
         21   -1    0    0  502  503 -0.00000000000E+00 -0.00000000000E+00 -0.82357217314E+02  0.82357217314E+02  0.00000000000E+00 0. -1.
          6    1    1    2  501    0 -0.24683104947E+01 -0.13025295726E+02  0.65845278874E+02  0.18558111875E+03  0.17300000000E+03 0. -1.
         -6    1    1    2    0  503  0.24683104947E+01  0.13025295726E+02  0.31216712141E+03  0.35714571616E+03  0.17300000000E+03 0. -1.
</event>
<event>
 4    1  0.5943823E+000  0.1000000E+03  0.7546771E-02  0.1280296E+00
         21   -1    0    0  501  502  0.00000000000E+00  0.00000000000E+00  0.12164930461E+03  0.12164930461E+03  0.00000000000E+00 0. -1.
         21   -1    0    0  502  503 -0.00000000000E+00 -0.00000000000E+00 -0.39942556177E+03  0.39942556177E+03  0.00000000000E+00 0. -1.
          6    1    1    2  501    0 -0.11009595282E+03 -0.46367581861E+02 -0.60577936663E+02  0.21879158550E+03  0.17300000000E+03 0. -1.
         -6    1    1    2    0  503  0.11009595282E+03  0.46367581861E+02 -0.21719832050E+03  0.30228328088E+03  0.17300000000E+03 0. -1.
</event>
<event>
 4    1  0.5943823E+000  0.1000000E+03  0.7546771E-02  0.1280296E+00
         21   -1    0    0  503  502  0.00000000000E+00  0.00000000000E+00  0.24464368767E+04  0.24464368767E+04  0.00000000000E+00 0. -1.
         21   -1    0    0  501  503 -0.00000000000E+00 -0.00000000000E+00 -0.22246756189E+02  0.22246756189E+02  0.00000000000E+00 0.  1.
          6    1    1    2  501    0  0.14231197568E+03  0.59969393312E+02  0.10774861347E+04  0.11021589708E+04  0.17300000000E+03 0.  1.
         -6    1    1    2    0  502 -0.14231197568E+03 -0.59969393312E+02  0.13467039858E+04  0.13665246620E+04  0.17300000000E+03 0. -1.
</event>
<event>
 4    1  0.5943823E+000  0.1000000E+03  0.7546771E-02  0.1280296E+00
         21   -1    0    0  503  502  0.00000000000E+00  0.00000000000E+00  0.35346087722E+03  0.35346087722E+03  0.00000000000E+00 0. -1.
         21   -1    0    0  501  503 -0.00000000000E+00 -0.00000000000E+00 -0.18654585441E+03  0.18654585441E+03  0.00000000000E+00 0.  1.
          6    1    1    2  501    0 -0.66250850602E+01  0.23517831950E+02 -0.11440924841E+03  0.20884313801E+03  0.17300000000E+03 0.  1.
         -6    1    1    2    0  502  0.66250850602E+01 -0.23517831950E+02  0.28132427122E+03  0.33116359363E+03  0.17300000000E+03 0. -1.
</event>
<event>
 4    1  0.5943823E+000  0.1000000E+03  0.7546771E-02  0.1280296E+00
         21   -1    0    0  503  502  0.00000000000E+00  0.00000000000E+00  0.47312486555E+03  0.47312486555E+03  0.00000000000E+00 0. -1.
         21   -1    0    0  501  503 -0.00000000000E+00 -0.00000000000E+00 -0.12472198722E+03  0.12472198722E+03  0.00000000000E+00 0.  1.
          6    1    1    2  501    0 -0.93179212557E+02  0.17777395306E+02 -0.18009278803E+00  0.19730036460E+03  0.17300000000E+03 0.  1.
         -6    1    1    2    0  502  0.93179212557E+02 -0.17777395306E+02  0.34858297111E+03  0.40054648817E+03  0.17300000000E+03 0. -1.
</event>
<event>
 4    1  0.5943823E+000  0.1000000E+03  0.7546771E-02  0.1280296E+00
         21   -1    0    0  501  502  0.00000000000E+00  0.00000000000E+00  0.56631047467E+03  0.56631047467E+03  0.00000000000E+00 0. -1.
         21   -1    0    0  502  503 -0.00000000000E+00 -0.00000000000E+00 -0.17685803384E+03  0.17685803384E+03  0.00000000000E+00 0.  1.
          6    1    1    2  501    0 -0.17660750095E+02  0.61226054270E+02  0.49674810568E+03  0.52985678472E+03  0.17300000000E+03 0. -1.
         -6    1    1    2    0  503  0.17660750095E+02 -0.61226054270E+02 -0.10729566485E+03  0.21331172380E+03  0.17300000000E+03 0.  1.
</event>
<event>
 4    1  0.5943823E+000  0.1000000E+03  0.7546771E-02  0.1280296E+00
         21   -1    0    0  501  502  0.00000000000E+00  0.00000000000E+00  0.25111327737E+03  0.25111327737E+03  0.00000000000E+00 0.  1.
         21   -1    0    0  502  503 -0.00000000000E+00 -0.00000000000E+00 -0.25285152402E+03  0.25285152402E+03  0.00000000000E+00 0. -1.
          6    1    1    2  501    0  0.35402542007E+02 -0.16183929305E+02  0.17815740161E+03  0.25136491262E+03  0.17300000000E+03 0.  1.
         -6    1    1    2    0  503 -0.35402542007E+02  0.16183929305E+02 -0.17989564825E+03  0.25259988877E+03  0.17300000000E+03 0.  1.
</event>
<event>
 4    1  0.5943823E+000  0.1000000E+03  0.7546771E-02  0.1280296E+00
         21   -1    0    0  501  502  0.00000000000E+00  0.00000000000E+00  0.88317413339E+02  0.88317413339E+02  0.00000000000E+00 0.  1.
         21   -1    0    0  502  503 -0.00000000000E+00 -0.00000000000E+00 -0.57851225757E+03  0.57851225757E+03  0.00000000000E+00 0. -1.
          6    1    1    2  501    0  0.19855465219E+02 -0.76029290419E+02 -0.64508130308E+02  0.20066138487E+03  0.17300000000E+03 0.  1.
         -6    1    1    2    0  503 -0.19855465219E+02  0.76029290419E+02 -0.42568671392E+03  0.46616828604E+03  0.17300000000E+03 0.  1.
</event>
<event>
 4    1  0.5943823E+000  0.1000000E+03  0.7546771E-02  0.1280296E+00
         21   -1    0    0  501  502  0.00000000000E+00  0.00000000000E+00  0.34704172783E+03  0.34704172783E+03  0.00000000000E+00 0.  1.
         21   -1    0    0  502  503 -0.00000000000E+00 -0.00000000000E+00 -0.13185071158E+03  0.13185071158E+03  0.00000000000E+00 0. -1.
          6    1    1    2  501    0 -0.31591196529E+02  0.34619933524E+02  0.23829026328E+03  0.29817409859E+03  0.17300000000E+03 0.  1.
         -6    1    1    2    0  503  0.31591196529E+02 -0.34619933524E+02 -0.23099247023E+02  0.18071834082E+03  0.17300000000E+03 0.  1.
</event>
<event>
 4    1  0.5943823E+000  0.1000000E+03  0.7546771E-02  0.1280296E+00
         21   -1    0    0  501  502  0.00000000000E+00  0.00000000000E+00  0.20246485797E+03  0.20246485797E+03  0.00000000000E+00 0.  1.
         21   -1    0    0  502  503 -0.00000000000E+00 -0.00000000000E+00 -0.26028205588E+03  0.26028205588E+03  0.00000000000E+00 0.  1.
          6    1    1    2  501    0  0.60720436679E+02 -0.44051155994E+02  0.10305098156E+03  0.21488597110E+03  0.17300000000E+03 0.  1.
         -6    1    1    2    0  503 -0.60720436679E+02  0.44051155994E+02 -0.16086817947E+03  0.24786094275E+03  0.17300000000E+03 0.  1.
</event>
<event>
 4    1  0.5943823E+000  0.1000000E+03  0.7546771E-02  0.1280296E+00
         21   -1    0    0  503  502  0.00000000000E+00  0.00000000000E+00  0.46780416222E+03  0.46780416222E+03  0.00000000000E+00 0.  1.
         21   -1    0    0  501  503 -0.00000000000E+00 -0.00000000000E+00 -0.11844125140E+03  0.11844125140E+03  0.00000000000E+00 0.  1.
          6    1    1    2  501    0  0.11278781376E+02  0.73108322097E+02 -0.14549059133E+01  0.18815725981E+03  0.17300000000E+03 0.  1.
         -6    1    1    2    0  502 -0.11278781376E+02 -0.73108322097E+02  0.35081781673E+03  0.39808815381E+03  0.17300000000E+03 0.  1.
</event>
<event>
 4    1  0.5943823E+000  0.1000000E+03  0.7546771E-02  0.1280296E+00
         21   -1    0    0  503  502  0.00000000000E+00  0.00000000000E+00  0.26709863446E+03  0.26709863446E+03  0.00000000000E+00 0. -1.
         21   -1    0    0  501  503 -0.00000000000E+00 -0.00000000000E+00 -0.18600266333E+03  0.18600266333E+03  0.00000000000E+00 0.  1.
          6    1    1    2  501    0 -0.33937950736E+02  0.10067511012E+02 -0.97694985859E+02  0.20180795212E+03  0.17300000000E+03 0.  1.
         -6    1    1    2    0  502  0.33937950736E+02 -0.10067511012E+02  0.17879095699E+03  0.25129334567E+03  0.17300000000E+03 0. -1.
</event>
<event>
 4    1  0.5943823E+000  0.1000000E+03  0.7546771E-02  0.1280296E+00
         21   -1    0    0  503  502  0.00000000000E+00  0.00000000000E+00  0.20626352283E+04  0.20626352283E+04  0.00000000000E+00 0. -1.
         21   -1    0    0  501  503 -0.00000000000E+00 -0.00000000000E+00 -0.14868102309E+02  0.14868102309E+02  0.00000000000E+00 0.  1.
          6    1    1    2  501    0  0.26174979735E+02 -0.32139193024E+01  0.10627855154E+04  0.10770967972E+04  0.17300000000E+03 0.  1.
         -6    1    1    2    0  502 -0.26174979735E+02  0.32139193024E+01  0.98498161065E+03  0.10004065334E+04  0.17300000000E+03 0. -1.
</event>
<event>
 4    1  0.5943823E+000  0.1000000E+03  0.7546771E-02  0.1280296E+00
         21   -1    0    0  503  502  0.00000000000E+00  0.00000000000E+00  0.31833773943E+02  0.31833773943E+02  0.00000000000E+00 0. -1.
         21   -1    0    0  501  503 -0.00000000000E+00 -0.00000000000E+00 -0.18842302421E+04  0.18842302421E+04  0.00000000000E+00 0.  1.
          6    1    1    2  501    0 -0.13109593700E+02  0.10000935237E+03 -0.14777304783E+04  0.14912377739E+04  0.17300000000E+03 0.  1.
         -6    1    1    2    0  502  0.13109593700E+02 -0.10000935237E+03 -0.37466598992E+03  0.42482624214E+03  0.17300000000E+03 0. -1.
</event>
<event>
 4    1  0.5943823E+000  0.1000000E+03  0.7546771E-02  0.1280296E+00
         21   -1    0    0  501  502  0.00000000000E+00  0.00000000000E+00  0.16357278124E+04  0.16357278124E+04  0.00000000000E+00 0. -1.
         21   -1    0    0  502  503 -0.00000000000E+00 -0.00000000000E+00 -0.12450816730E+03  0.12450816730E+03  0.00000000000E+00 0. -1.
          6    1    1    2  501    0  0.13392992340E+03  0.14219339018E+03  0.14736989110E+04  0.14966207485E+04  0.17300000000E+03 0. -1.
         -6    1    1    2    0  503 -0.13392992340E+03 -0.14219339018E+03  0.37520734020E+02  0.26361523111E+03  0.17300000000E+03 0. -1.
</event>
<event>
 4    1  0.5943823E+000  0.1000000E+03  0.7546771E-02  0.1280296E+00
         21   -1    0    0  501  502  0.00000000000E+00  0.00000000000E+00  0.78064284616E+02  0.78064284616E+02  0.00000000000E+00 0. -1.
         21   -1    0    0  502  503 -0.00000000000E+00 -0.00000000000E+00 -0.51418231785E+03  0.51418231785E+03  0.00000000000E+00 0. -1.
          6    1    1    2  501    0  0.37173750487E+02  0.22303005653E+02 -0.83151724630E+02  0.19678038798E+03  0.17300000000E+03 0. -1.
         -6    1    1    2    0  503 -0.37173750487E+02 -0.22303005653E+02 -0.35296630860E+03  0.39546621448E+03  0.17300000000E+03 0. -1.
</event>
<event>
 4    1  0.5943823E+000  0.1000000E+03  0.7546771E-02  0.1280296E+00
         21   -1    0    0  503  502  0.00000000000E+00  0.00000000000E+00  0.77113950007E+02  0.77113950007E+02  0.00000000000E+00 0.  1.
         21   -1    0    0  501  503 -0.00000000000E+00 -0.00000000000E+00 -0.15264798970E+04  0.15264798970E+04  0.00000000000E+00 0.  1.
          6    1    1    2  501    0 -0.19116932033E+02  0.81392635093E+02 -0.13889474857E+04  0.14021748593E+04  0.17300000000E+03 0.  1.
         -6    1    1    2    0  502  0.19116932033E+02 -0.81392635093E+02 -0.60418461331E+02  0.20141898770E+03  0.17300000000E+03 0.  1.
</event>
<event>
 4    1  0.5943823E+000  0.1000000E+03  0.7546771E-02  0.1280296E+00
         21   -1    0    0  501  502  0.00000000000E+00  0.00000000000E+00  0.12795924104E+04  0.12795924104E+04  0.00000000000E+00 0. -1.
         21   -1    0    0  502  503 -0.00000000000E+00 -0.00000000000E+00 -0.49854440341E+02  0.49854440341E+02  0.00000000000E+00 0.  1.
          6    1    1    2  501    0 -0.67548210382E+02  0.15872672696E+03  0.78353914675E+03  0.82074327842E+03  0.17300000000E+03 0. -1.
         -6    1    1    2    0  503  0.67548210382E+02 -0.15872672696E+03  0.44619882335E+03  0.50870357237E+03  0.17300000000E+03 0.  1.
</event>
<event>
 4    1  0.5943823E+000  0.1000000E+03  0.7546771E-02  0.1280296E+00
         21   -1    0    0  503  502  0.00000000000E+00  0.00000000000E+00  0.38793156573E+03  0.38793156573E+03  0.00000000000E+00 0. -1.
         21   -1    0    0  501  503 -0.00000000000E+00 -0.00000000000E+00 -0.17755447627E+03  0.17755447627E+03  0.00000000000E+00 0. -1.
          6    1    1    2  501    0 -0.58837253915E+02 -0.17495030413E+03  0.29925270112E+02  0.25474291581E+03  0.17300000000E+03 0. -1.
         -6    1    1    2    0  502  0.58837253915E+02  0.17495030413E+03  0.18045181935E+03  0.31074312619E+03  0.17300000000E+03 0. -1.
</event>
<event>
 4    1  0.5943823E+000  0.1000000E+03  0.7546771E-02  0.1280296E+00
         21   -1    0    0  503  502  0.00000000000E+00  0.00000000000E+00  0.55890829164E+03  0.55890829164E+03  0.00000000000E+00 0.  1.
         21   -1    0    0  501  503 -0.00000000000E+00 -0.00000000000E+00 -0.62913055523E+02  0.62913055523E+02  0.00000000000E+00 0.  1.
          6    1    1    2  501    0 -0.59471921475E+02  0.39397019193E+02  0.22806015801E+03  0.29500757658E+03  0.17300000000E+03 0.  1.
         -6    1    1    2    0  502  0.59471921475E+02 -0.39397019193E+02  0.26793507811E+03  0.32681377059E+03  0.17300000000E+03 0.  1.
</event>
<event>
 4    1  0.5943823E+000  0.1000000E+03  0.7546771E-02  0.1280296E+00
         21   -1    0    0  503  502  0.00000000000E+00  0.00000000000E+00  0.30122965802E+03  0.30122965802E+03  0.00000000000E+00 0.  1.
         21   -1    0    0  501  503 -0.00000000000E+00 -0.00000000000E+00 -0.24186088953E+03  0.24186088953E+03  0.00000000000E+00 0.  1.
          6    1    1    2  501    0  0.42818814438E+02  0.19768844276E+03 -0.15447004407E+02  0.26661166744E+03  0.17300000000E+03 0.  1.
         -6    1    1    2    0  502 -0.42818814438E+02 -0.19768844276E+03  0.74815772899E+02  0.27647888011E+03  0.17300000000E+03 0.  1.
</event>
<event>
 4    1  0.5943823E+000  0.1000000E+03  0.7546771E-02  0.1280296E+00
         21   -1    0    0  503  502  0.00000000000E+00  0.00000000000E+00  0.64717776357E+03  0.64717776357E+03  0.00000000000E+00 0. -1.
         21   -1    0    0  501  503 -0.00000000000E+00 -0.00000000000E+00 -0.86730866614E+02  0.86730866614E+02  0.00000000000E+00 0. -1.
          6    1    1    2  501    0  0.64793151551E+02  0.14691434209E+03  0.31193970709E+03  0.39117433103E+03  0.17300000000E+03 0. -1.
         -6    1    1    2    0  502 -0.64793151551E+02 -0.14691434209E+03  0.24850718986E+03  0.34273429915E+03  0.17300000000E+03 0. -1.
</event>
<event>
 4    1  0.5943823E+000  0.1000000E+03  0.7546771E-02  0.1280296E+00
         21   -1    0    0  503  502  0.00000000000E+00  0.00000000000E+00  0.23308699834E+03  0.23308699834E+03  0.00000000000E+00 0. -1.
         21   -1    0    0  501  503 -0.00000000000E+00 -0.00000000000E+00 -0.26058524880E+03  0.26058524880E+03  0.00000000000E+00 0. -1.
          6    1    1    2  501    0 -0.72348200060E+02  0.33151830230E+02 -0.17044279650E+03  0.25556418524E+03  0.17300000000E+03 0. -1.
         -6    1    1    2    0  502  0.72348200060E+02 -0.33151830230E+02  0.14294454604E+03  0.23810806190E+03  0.17300000000E+03 0. -1.
</event>
<event>
 4    1  0.5943823E+000  0.1000000E+03  0.7546771E-02  0.1280296E+00
         21   -1    0    0  503  502  0.00000000000E+00  0.00000000000E+00  0.44920627556E+02  0.44920627556E+02  0.00000000000E+00 0. -1.
         21   -1    0    0  501  503 -0.00000000000E+00 -0.00000000000E+00 -0.70032649616E+03  0.70032649616E+03  0.00000000000E+00 0. -1.
          6    1    1    2  501    0 -0.28607276342E+02  0.26636793847E+02 -0.32457931831E+03  0.36987650496E+03  0.17300000000E+03 0. -1.
         -6    1    1    2    0  502  0.28607276342E+02 -0.26636793847E+02 -0.33082655030E+03  0.37537061876E+03  0.17300000000E+03 0. -1.
</event>
<event>
 4    1  0.5943823E+000  0.1000000E+03  0.7546771E-02  0.1280296E+00
         21   -1    0    0  503  502  0.00000000000E+00  0.00000000000E+00  0.20191495127E+03  0.20191495127E+03  0.00000000000E+00 0. -1.
         21   -1    0    0  501  503 -0.00000000000E+00 -0.00000000000E+00 -0.27685369380E+03  0.27685369380E+03  0.00000000000E+00 0.  1.
          6    1    1    2  501    0  0.79892569884E+02 -0.73854331058E+02 -0.15784215345E+03  0.25822554162E+03  0.17300000000E+03 0. -1.
         -6    1    1    2    0  502 -0.79892569884E+02  0.73854331058E+02  0.82903410922E+02  0.22054310345E+03  0.17300000000E+03 0. -1.
</event>
<event>
 4    1  0.5943823E+000  0.1000000E+03  0.7546771E-02  0.1280296E+00
         21   -1    0    0  503  502  0.00000000000E+00  0.00000000000E+00  0.14803453216E+04  0.14803453216E+04  0.00000000000E+00 0. -1.
         21   -1    0    0  501  503 -0.00000000000E+00 -0.00000000000E+00 -0.27709069912E+02  0.27709069912E+02  0.00000000000E+00 0. -1.
          6    1    1    2  501    0 -0.43480126307E+02  0.73750650883E+02  0.49801783469E+03  0.53411650748E+03  0.17300000000E+03 0. -1.
         -6    1    1    2    0  502  0.43480126307E+02 -0.73750650883E+02  0.95461841698E+03  0.97393788402E+03  0.17300000000E+03 0. -1.
</event>
<event>
 4    1  0.5943823E+000  0.1000000E+03  0.7546771E-02  0.1280296E+00
         21   -1    0    0  503  502  0.00000000000E+00  0.00000000000E+00  0.18140169462E+02  0.18140169462E+02  0.00000000000E+00 0. -1.
         21   -1    0    0  501  503 -0.00000000000E+00 -0.00000000000E+00 -0.25771778656E+04  0.25771778656E+04  0.00000000000E+00 0. -1.
          6    1    1    2  501    0 -0.28972934704E+02  0.80005130436E+01 -0.52231636696E+03  0.55104158314E+03  0.17300000000E+03 0. -1.
         -6    1    1    2    0  502  0.28972934704E+02 -0.80005130436E+01 -0.20367213292E+04  0.20442764519E+04  0.17300000000E+03 0. -1.
</event>
<event>
 4    1  0.5943823E+000  0.1000000E+03  0.7546771E-02  0.1280296E+00
         21   -1    0    0  503  502  0.00000000000E+00  0.00000000000E+00  0.12156538176E+03  0.12156538176E+03  0.00000000000E+00 0. -1.
         21   -1    0    0  501  503 -0.00000000000E+00 -0.00000000000E+00 -0.63481629444E+03  0.63481629444E+03  0.00000000000E+00 0. -1.
          6    1    1    2  501    0  0.30234506085E+01 -0.59278681554E+02 -0.54128123939E+03  0.57134707793E+03  0.17300000000E+03 0. -1.
         -6    1    1    2    0  502 -0.30234506085E+01  0.59278681554E+02  0.28030326710E+02  0.18503459827E+03  0.17300000000E+03 0. -1.
</event>
<event>
 4    1  0.5943823E+000  0.1000000E+03  0.7546771E-02  0.1280296E+00
         21   -1    0    0  503  502  0.00000000000E+00  0.00000000000E+00  0.31852376026E+03  0.31852376026E+03  0.00000000000E+00 0. -1.
         21   -1    0    0  501  503 -0.00000000000E+00 -0.00000000000E+00 -0.34710324046E+03  0.34710324046E+03  0.00000000000E+00 0. -1.
          6    1    1    2  501    0 -0.24523466128E+03 -0.42684647015E+02 -0.15105264608E+03  0.33868557700E+03  0.17300000000E+03 0. -1.
         -6    1    1    2    0  502  0.24523466128E+03  0.42684647015E+02  0.12247316589E+03  0.32694142372E+03  0.17300000000E+03 0. -1.
</event>
<event>
 4    1  0.5943823E+000  0.1000000E+03  0.7546771E-02  0.1280296E+00
         21   -1    0    0  503  502  0.00000000000E+00  0.00000000000E+00  0.29676547225E+03  0.29676547225E+03  0.00000000000E+00 0. -1.
         21   -1    0    0  501  503 -0.00000000000E+00 -0.00000000000E+00 -0.33214381620E+03  0.33214381620E+03  0.00000000000E+00 0. -1.
          6    1    1    2  501    0 -0.91355098052E+02 -0.10548040778E+03 -0.23977931088E+03  0.32694799019E+03  0.17300000000E+03 0. -1.
         -6    1    1    2    0  502  0.91355098052E+02  0.10548040778E+03  0.20440096693E+03  0.30196129826E+03  0.17300000000E+03 0. -1.
</event>
<event>
 4    1  0.5943823E+000  0.1000000E+03  0.7546771E-02  0.1280296E+00
         21   -1    0    0  501  502  0.00000000000E+00  0.00000000000E+00  0.56836786050E+03  0.56836786050E+03  0.00000000000E+00 0.  1.
         21   -1    0    0  502  503 -0.00000000000E+00 -0.00000000000E+00 -0.79236426107E+02  0.79236426107E+02  0.00000000000E+00 0. -1.
          6    1    1    2  501    0 -0.48650455046E+02  0.10720689917E+03  0.29843056704E+03  0.36448592476E+03  0.17300000000E+03 0. -1.
         -6    1    1    2    0  503  0.48650455046E+02 -0.10720689917E+03  0.19070086736E+03  0.28311836185E+03  0.17300000000E+03 0. -1.
</event>
<event>
 4    1  0.5943823E+000  0.1000000E+03  0.7546771E-02  0.1280296E+00
         21   -1    0    0  501  502  0.00000000000E+00  0.00000000000E+00  0.12121694656E+04  0.12121694656E+04  0.00000000000E+00 0.  1.
         21   -1    0    0  502  503 -0.00000000000E+00 -0.00000000000E+00 -0.17504443596E+03  0.17504443596E+03  0.00000000000E+00 0. -1.
          6    1    1    2  501    0 -0.44998119372E+02 -0.18373023581E+02  0.11572136423E+04  0.11710827523E+04  0.17300000000E+03 0. -1.
         -6    1    1    2    0  503  0.44998119372E+02  0.18373023581E+02 -0.12008861275E+03  0.21613114920E+03  0.17300000000E+03 0. -1.
</event>
<event>
 4    1  0.5943823E+000  0.1000000E+03  0.7546771E-02  0.1280296E+00
         21   -1    0    0  501  502  0.00000000000E+00  0.00000000000E+00  0.21483924866E+03  0.21483924866E+03  0.00000000000E+00 0.  1.
         21   -1    0    0  502  503 -0.00000000000E+00 -0.00000000000E+00 -0.38957954431E+03  0.38957954431E+03  0.00000000000E+00 0. -1.
          6    1    1    2  501    0  0.15426607084E+03  0.17253551349E+03 -0.10219667642E+03  0.30649581514E+03  0.17300000000E+03 0. -1.
         -6    1    1    2    0  503 -0.15426607084E+03 -0.17253551349E+03 -0.72543619224E+02  0.29792297783E+03  0.17300000000E+03 0. -1.
</event>
<event>
 4    1  0.5943823E+000  0.1000000E+03  0.7546771E-02  0.1280296E+00
         21   -1    0    0  503  502  0.00000000000E+00  0.00000000000E+00  0.94199769439E+03  0.94199769439E+03  0.00000000000E+00 0. -1.
         21   -1    0    0  501  503 -0.00000000000E+00 -0.00000000000E+00 -0.76667340226E+02  0.76667340226E+02  0.00000000000E+00 0. -1.
          6    1    1    2  501    0  0.60965804045E+02  0.41870288115E+02  0.68982958712E+02  0.20039360988E+03  0.17300000000E+03 0. -1.
         -6    1    1    2    0  502 -0.60965804045E+02 -0.41870288115E+02  0.79634739546E+03  0.81827142474E+03  0.17300000000E+03 0. -1.
</event>
<event>
 4    1  0.5943823E+000  0.1000000E+03  0.7546771E-02  0.1280296E+00
         21   -1    0    0  503  502  0.00000000000E+00  0.00000000000E+00  0.14345943081E+04  0.14345943081E+04  0.00000000000E+00 0. -1.
         21   -1    0    0  501  503 -0.00000000000E+00 -0.00000000000E+00 -0.26037689575E+03  0.26037689575E+03  0.00000000000E+00 0. -1.
          6    1    1    2  501    0 -0.77051121085E+02  0.28302602325E+03 -0.11662846392E+03  0.35996083634E+03  0.17300000000E+03 0. -1.
         -6    1    1    2    0  502  0.77051121085E+02 -0.28302602325E+03  0.12908458762E+04  0.13350103675E+04  0.17300000000E+03 0. -1.
</event>
<event>
 4    1  0.5943823E+000  0.1000000E+03  0.7546771E-02  0.1280296E+00
         21   -1    0    0  503  502  0.00000000000E+00  0.00000000000E+00  0.96029870220E+03  0.96029870220E+03  0.00000000000E+00 0. -1.
         21   -1    0    0  501  503 -0.00000000000E+00 -0.00000000000E+00 -0.33460272649E+02  0.33460272649E+02  0.00000000000E+00 0. -1.
          6    1    1    2  501    0 -0.20020438162E+02  0.22053693698E+02  0.56396344397E+03  0.59065298567E+03  0.17300000000E+03 0. -1.
         -6    1    1    2    0  502  0.20020438162E+02 -0.22053693698E+02  0.36287498558E+03  0.40310598918E+03  0.17300000000E+03 0. -1.
</event>
<event>
 4    1  0.5943823E+000  0.1000000E+03  0.7546771E-02  0.1280296E+00
         21   -1    0    0  503  502  0.00000000000E+00  0.00000000000E+00  0.10653399807E+03  0.10653399807E+03  0.00000000000E+00 0. -1.
         21   -1    0    0  501  503 -0.00000000000E+00 -0.00000000000E+00 -0.39755256351E+03  0.39755256351E+03  0.00000000000E+00 0. -1.
          6    1    1    2  501    0 -0.92155461088E+01  0.96692723090E+02 -0.21247148762E+03  0.29070180949E+03  0.17300000000E+03 0. -1.
         -6    1    1    2    0  502  0.92155461088E+01 -0.96692723090E+02 -0.78547077826E+02  0.21338475209E+03  0.17300000000E+03 0. -1.
</event>
<event>
 4    1  0.5943823E+000  0.1000000E+03  0.7546771E-02  0.1280296E+00
         21   -1    0    0  501  502  0.00000000000E+00  0.00000000000E+00  0.25210600156E+02  0.25210600156E+02  0.00000000000E+00 0. -1.
         21   -1    0    0  502  503 -0.00000000000E+00 -0.00000000000E+00 -0.27636442975E+04  0.27636442975E+04  0.00000000000E+00 0.  1.
          6    1    1    2  501    0 -0.16904269671E+03  0.22955037220E+01 -0.81105254324E+03  0.84635449460E+03  0.17300000000E+03 0. -1.
         -6    1    1    2    0  503  0.16904269671E+03 -0.22955037220E+01 -0.19273811542E+04  0.19425004031E+04  0.17300000000E+03 0.  1.
</event>
<event>
 4    1  0.5943823E+000  0.1000000E+03  0.7546771E-02  0.1280296E+00
         21   -1    0    0  501  502  0.00000000000E+00  0.00000000000E+00  0.21438086665E+03  0.21438086665E+03  0.00000000000E+00 0.  1.
         21   -1    0    0  502  503 -0.00000000000E+00 -0.00000000000E+00 -0.33404188585E+03  0.33404188585E+03  0.00000000000E+00 0. -1.
          6    1    1    2  501    0  0.63830549689E+02 -0.11027493519E+03  0.10363317514E+03  0.23854503850E+03  0.17300000000E+03 0.  1.
         -6    1    1    2    0  503 -0.63830549689E+02  0.11027493519E+03 -0.22329419434E+03  0.30987771400E+03  0.17300000000E+03 0. -1.
</event>
<event>
 4    1  0.5943823E+000  0.1000000E+03  0.7546771E-02  0.1280296E+00
         21   -1    0    0  503  502  0.00000000000E+00  0.00000000000E+00  0.28691819577E+03  0.28691819577E+03  0.00000000000E+00 0. -1.
         21   -1    0    0  501  503 -0.00000000000E+00 -0.00000000000E+00 -0.94388334171E+03  0.94388334171E+03  0.00000000000E+00 0.  1.
          6    1    1    2  501    0 -0.43323971746E+03  0.36864235028E+01 -0.55781978396E+02  0.46984132600E+03  0.17300000000E+03 0.  1.
         -6    1    1    2    0  502  0.43323971746E+03 -0.36864235028E+01 -0.60118316754E+03  0.76096021147E+03  0.17300000000E+03 0. -1.
</event>
<event>
 4    1  0.5943823E+000  0.1000000E+03  0.7546771E-02  0.1280296E+00
         21   -1    0    0  503  502  0.00000000000E+00  0.00000000000E+00  0.17115930986E+04  0.17115930986E+04  0.00000000000E+00 0.  1.
         21   -1    0    0  501  503 -0.00000000000E+00 -0.00000000000E+00 -0.21403935450E+02  0.21403935450E+02  0.00000000000E+00 0. -1.
          6    1    1    2  501    0 -0.40271027401E+02 -0.99347315775E+01  0.52544834061E+03  0.55474806281E+03  0.17300000000E+03 0. -1.
         -6    1    1    2    0  502  0.40271027401E+02  0.99347315775E+01  0.11647408225E+04  0.11782489712E+04  0.17300000000E+03 0. -1.
</event>
<event>
 4    1  0.5943823E+000  0.1000000E+03  0.7546771E-02  0.1280296E+00
         21   -1    0    0  503  502  0.00000000000E+00  0.00000000000E+00  0.58710447496E+03  0.58710447496E+03  0.00000000000E+00 0.  1.
         21   -1    0    0  501  503 -0.00000000000E+00 -0.00000000000E+00 -0.80392167201E+02  0.80392167201E+02  0.00000000000E+00 0. -1.
          6    1    1    2  501    0  0.51798282616E+02 -0.26777941295E+02  0.72436966069E+02  0.19640833555E+03  0.17300000000E+03 0. -1.
         -6    1    1    2    0  502 -0.51798282616E+02  0.26777941295E+02  0.43427534169E+03  0.47108830661E+03  0.17300000000E+03 0. -1.
</event>
<event>
 4    1  0.5943823E+000  0.1000000E+03  0.7546771E-02  0.1280296E+00
         21   -1    0    0  503  502  0.00000000000E+00  0.00000000000E+00  0.10979277102E+03  0.10979277102E+03  0.00000000000E+00 0.  1.
         21   -1    0    0  501  503 -0.00000000000E+00 -0.00000000000E+00 -0.10306776397E+04  0.10306776397E+04  0.00000000000E+00 0. -1.
          6    1    1    2  501    0  0.15574388239E+03 -0.22397560833E+03 -0.61955758197E+03  0.69871441047E+03  0.17300000000E+03 0. -1.
         -6    1    1    2    0  502 -0.15574388239E+03  0.22397560833E+03 -0.30132728667E+03  0.44175600021E+03  0.17300000000E+03 0. -1.
</event>
<event>
 4    1  0.5943823E+000  0.1000000E+03  0.7546771E-02  0.1280296E+00
         21   -1    0    0  503  502  0.00000000000E+00  0.00000000000E+00  0.44435782955E+02  0.44435782955E+02  0.00000000000E+00 0. -1.
         21   -1    0    0  501  503 -0.00000000000E+00 -0.00000000000E+00 -0.10793237957E+04  0.10793237957E+04  0.00000000000E+00 0. -1.
          6    1    1    2  501    0 -0.28601293924E+00  0.11018906603E+03 -0.71434801394E+03  0.74321181173E+03  0.17300000000E+03 0. -1.
         -6    1    1    2    0  502  0.28601293924E+00 -0.11018906603E+03 -0.32053999878E+03  0.38054776690E+03  0.17300000000E+03 0. -1.
</event>
<event>
 4    1  0.5943823E+000  0.1000000E+03  0.7546771E-02  0.1280296E+00
         21   -1    0    0  503  502  0.00000000000E+00  0.00000000000E+00  0.56340202292E+02  0.56340202292E+02  0.00000000000E+00 0. -1.
         21   -1    0    0  501  503 -0.00000000000E+00 -0.00000000000E+00 -0.24598935430E+04  0.24598935430E+04  0.00000000000E+00 0. -1.
          6    1    1    2  501    0 -0.72859511038E+02 -0.11368838142E+03 -0.22180392090E+04  0.22288697784E+04  0.17300000000E+03 0. -1.
         -6    1    1    2    0  502  0.72859511038E+02  0.11368838142E+03 -0.18551413179E+03  0.28736396697E+03  0.17300000000E+03 0. -1.
</event>
<event>
 4    1  0.5943823E+000  0.1000000E+03  0.7546771E-02  0.1280296E+00
         21   -1    0    0  503  502  0.00000000000E+00  0.00000000000E+00  0.15704350427E+03  0.15704350427E+03  0.00000000000E+00 0. -1.
         21   -1    0    0  501  503 -0.00000000000E+00 -0.00000000000E+00 -0.19464491974E+03  0.19464491974E+03  0.00000000000E+00 0. -1.
          6    1    1    2  501    0 -0.14404553492E+02 -0.18476265385E+02 -0.28334636126E+02  0.17686354952E+03  0.17300000000E+03 0. -1.
         -6    1    1    2    0  502  0.14404553492E+02  0.18476265385E+02 -0.92667793470E+01  0.17482487450E+03  0.17300000000E+03 0. -1.
</event>
<event>
 4    1  0.5943823E+000  0.1000000E+03  0.7546771E-02  0.1280296E+00
         21   -1    0    0  503  502  0.00000000000E+00  0.00000000000E+00  0.50077959483E+02  0.50077959483E+02  0.00000000000E+00 0.  1.
         21   -1    0    0  501  503 -0.00000000000E+00 -0.00000000000E+00 -0.11365756563E+04  0.11365756563E+04  0.00000000000E+00 0.  1.
          6    1    1    2  501    0 -0.75447466368E+02 -0.96835111404E+02 -0.81476267645E+03  0.84192433028E+03  0.17300000000E+03 0. -1.
         -6    1    1    2    0  502  0.75447466368E+02  0.96835111404E+02 -0.27173502031E+03  0.34472928545E+03  0.17300000000E+03 0. -1.
</event>
<event>
 4    1  0.5943823E+000  0.1000000E+03  0.7546771E-02  0.1280296E+00
         21   -1    0    0  501  502  0.00000000000E+00  0.00000000000E+00  0.13147277241E+03  0.13147277241E+03  0.00000000000E+00 0. -1.
         21   -1    0    0  502  503 -0.00000000000E+00 -0.00000000000E+00 -0.68402834511E+03  0.68402834511E+03  0.00000000000E+00 0.  1.
          6    1    1    2  501    0 -0.10075862534E+03  0.88555301388E+01  0.27062054592E+02  0.20221789187E+03  0.17300000000E+03 0. -1.
         -6    1    1    2    0  503  0.10075862534E+03 -0.88555301388E+01 -0.57961762729E+03  0.61328322565E+03  0.17300000000E+03 0.  1.
</event>
<event>
 4    1  0.5943823E+000  0.1000000E+03  0.7546771E-02  0.1280296E+00
         21   -1    0    0  501  502  0.00000000000E+00  0.00000000000E+00  0.24566041324E+03  0.24566041324E+03  0.00000000000E+00 0. -1.
         21   -1    0    0  502  503 -0.00000000000E+00 -0.00000000000E+00 -0.59701633154E+03  0.59701633154E+03  0.00000000000E+00 0.  1.
          6    1    1    2  501    0 -0.56190595165E+02 -0.54681004972E+02  0.19018810456E+03  0.26878971410E+03  0.17300000000E+03 0. -1.
         -6    1    1    2    0  503  0.56190595165E+02  0.54681004972E+02 -0.54154402286E+03  0.57388703068E+03  0.17300000000E+03 0.  1.
</event>
<event>
 4    1  0.5943823E+000  0.1000000E+03  0.7546771E-02  0.1280296E+00
         21   -1    0    0  503  502  0.00000000000E+00  0.00000000000E+00  0.30744644018E+04  0.30744644018E+04  0.00000000000E+00 0.  1.
         21   -1    0    0  501  503 -0.00000000000E+00 -0.00000000000E+00 -0.13636965193E+02  0.13636965193E+02  0.00000000000E+00 0.  1.
          6    1    1    2  501    0  0.85353902725E+02  0.67321330024E+02  0.14292673607E+04  0.14437976446E+04  0.17300000000E+03 0.  1.
         -6    1    1    2    0  502 -0.85353902725E+02 -0.67321330024E+02  0.16315600759E+04  0.16443037224E+04  0.17300000000E+03 0.  1.
</event>
<event>
 4    1  0.5943823E+000  0.1000000E+03  0.7546771E-02  0.1280296E+00
         21   -1    0    0  503  502  0.00000000000E+00  0.00000000000E+00  0.14684277225E+03  0.14684277225E+03  0.00000000000E+00 0.  1.
         21   -1    0    0  501  503 -0.00000000000E+00 -0.00000000000E+00 -0.38195508550E+03  0.38195508550E+03  0.00000000000E+00 0.  1.
          6    1    1    2  501    0 -0.50664108637E+02  0.37323890479E+02 -0.28389293168E+03  0.33835502266E+03  0.17300000000E+03 0.  1.
         -6    1    1    2    0  502  0.50664108637E+02 -0.37323890479E+02  0.48780618426E+02  0.19044283509E+03  0.17300000000E+03 0.  1.
</event>
<event>
 4    1  0.5943823E+000  0.1000000E+03  0.7546771E-02  0.1280296E+00
         21   -1    0    0  503  502  0.00000000000E+00  0.00000000000E+00  0.19742343798E+03  0.19742343798E+03  0.00000000000E+00 0.  1.
         21   -1    0    0  501  503 -0.00000000000E+00 -0.00000000000E+00 -0.31030845506E+03  0.31030845506E+03  0.00000000000E+00 0.  1.
          6    1    1    2  501    0 -0.15835326918E+03 -0.41345330459E+02 -0.12561238188E+03  0.26924461869E+03  0.17300000000E+03 0.  1.
         -6    1    1    2    0  502  0.15835326918E+03  0.41345330459E+02  0.12727364801E+02  0.23848727435E+03  0.17300000000E+03 0.  1.
</event>
<event>
 4    1  0.5943823E+000  0.1000000E+03  0.7546771E-02  0.1280296E+00
         21   -1    0    0  501  502  0.00000000000E+00  0.00000000000E+00  0.48883033127E+03  0.48883033127E+03  0.00000000000E+00 0.  1.
         21   -1    0    0  502  503 -0.00000000000E+00 -0.00000000000E+00 -0.16848793614E+03  0.16848793614E+03  0.00000000000E+00 0. -1.
          6    1    1    2  501    0 -0.96158866030E+02 -0.18155619064E+03  0.27596602513E+03  0.38509145005E+03  0.17300000000E+03 0.  1.
         -6    1    1    2    0  503  0.96158866030E+02  0.18155619064E+03  0.44376369996E+02  0.27222681736E+03  0.17300000000E+03 0. -1.
</event>
<event>
 4    1  0.5943823E+000  0.1000000E+03  0.7546771E-02  0.1280296E+00
         21   -1    0    0  501  502  0.00000000000E+00  0.00000000000E+00  0.28361449219E+03  0.28361449219E+03  0.00000000000E+00 0.  1.
         21   -1    0    0  502  503 -0.00000000000E+00 -0.00000000000E+00 -0.33959603030E+03  0.33959603030E+03  0.00000000000E+00 0. -1.
          6    1    1    2  501    0  0.23907444587E+03  0.64438477458E+02  0.43547631410E+02  0.30517913468E+03  0.17300000000E+03 0.  1.
         -6    1    1    2    0  503 -0.23907444587E+03 -0.64438477458E+02 -0.99529169520E+02  0.31803138781E+03  0.17300000000E+03 0. -1.
</event>
<event>
 4    1  0.5943823E+000  0.1000000E+03  0.7546771E-02  0.1280296E+00
         21   -1    0    0  501  502  0.00000000000E+00  0.00000000000E+00  0.98875786988E+02  0.98875786988E+02  0.00000000000E+00 0.  1.
         21   -1    0    0  502  503 -0.00000000000E+00 -0.00000000000E+00 -0.11987874022E+04  0.11987874022E+04  0.00000000000E+00 0. -1.
          6    1    1    2  501    0 -0.13251109698E+03  0.48151857063E+02 -0.55905754747E+02  0.23007008840E+03  0.17300000000E+03 0.  1.
         -6    1    1    2    0  503  0.13251109698E+03 -0.48151857063E+02 -0.10440058605E+04  0.10675931008E+04  0.17300000000E+03 0. -1.
</event>
<event>
 4    1  0.5943823E+000  0.1000000E+03  0.7546771E-02  0.1280296E+00
         21   -1    0    0  501  502  0.00000000000E+00  0.00000000000E+00  0.12736324966E+04  0.12736324966E+04  0.00000000000E+00 0. -1.
         21   -1    0    0  502  503 -0.00000000000E+00 -0.00000000000E+00 -0.40911812428E+02  0.40911812428E+02  0.00000000000E+00 0. -1.
          6    1    1    2  501    0  0.83662981013E+02  0.66977393354E+02  0.91409630327E+03  0.93647558284E+03  0.17300000000E+03 0. -1.
         -6    1    1    2    0  503 -0.83662981013E+02 -0.66977393354E+02  0.31862438090E+03  0.37806872618E+03  0.17300000000E+03 0. -1.
</event>
<event>
 4    1  0.5943823E+000  0.1000000E+03  0.7546771E-02  0.1280296E+00
         21   -1    0    0  503  502  0.00000000000E+00  0.00000000000E+00  0.67313095986E+03  0.67313095986E+03  0.00000000000E+00 0. -1.
         21   -1    0    0  501  503 -0.00000000000E+00 -0.00000000000E+00 -0.14699795150E+03  0.14699795150E+03  0.00000000000E+00 0. -1.
          6    1    1    2  501    0  0.18371894195E+03  0.22148940787E+02  0.19963371383E+02  0.25410777518E+03  0.17300000000E+03 0. -1.
         -6    1    1    2    0  502 -0.18371894195E+03 -0.22148940787E+02  0.50616963698E+03  0.56602113619E+03  0.17300000000E+03 0. -1.
</event>
<event>
 4    1  0.5943823E+000  0.1000000E+03  0.7546771E-02  0.1280296E+00
         21   -1    0    0  503  502  0.00000000000E+00  0.00000000000E+00  0.18357164760E+03  0.18357164760E+03  0.00000000000E+00 0. -1.
         21   -1    0    0  501  503 -0.00000000000E+00 -0.00000000000E+00 -0.17453866675E+03  0.17453866675E+03  0.00000000000E+00 0. -1.
          6    1    1    2  501    0  0.33539591905E+02  0.27962639346E+02  0.18822692570E+02  0.17941601707E+03  0.17300000000E+03 0. -1.
         -6    1    1    2    0  502 -0.33539591905E+02 -0.27962639346E+02 -0.97897117182E+01  0.17869429728E+03  0.17300000000E+03 0. -1.
</event>
<event>
 4    1  0.5943823E+000  0.1000000E+03  0.7546771E-02  0.1280296E+00
         21   -1    0    0  503  502  0.00000000000E+00  0.00000000000E+00  0.10727648996E+03  0.10727648996E+03  0.00000000000E+00 0. -1.
         21   -1    0    0  501  503 -0.00000000000E+00 -0.00000000000E+00 -0.63749379919E+03  0.63749379919E+03  0.00000000000E+00 0. -1.
          6    1    1    2  501    0 -0.28946973990E+02  0.11424839785E+03 -0.48830710431E+03  0.53128471824E+03  0.17300000000E+03 0. -1.
         -6    1    1    2    0  502  0.28946973990E+02 -0.11424839785E+03 -0.41910204916E+02  0.21348557092E+03  0.17300000000E+03 0. -1.
</event>
<event>
 4    1  0.5943823E+000  0.1000000E+03  0.7546771E-02  0.1280296E+00
         21   -1    0    0  503  502  0.00000000000E+00  0.00000000000E+00  0.33236964832E+03  0.33236964832E+03  0.00000000000E+00 0. -1.
         21   -1    0    0  501  503 -0.00000000000E+00 -0.00000000000E+00 -0.19282102355E+03  0.19282102355E+03  0.00000000000E+00 0. -1.
          6    1    1    2  501    0  0.28761166095E+00 -0.76856711579E+02 -0.10457584535E+03  0.21626868536E+03  0.17300000000E+03 0. -1.
         -6    1    1    2    0  502 -0.28761166095E+00  0.76856711579E+02  0.24412447012E+03  0.30892198651E+03  0.17300000000E+03 0. -1.
</event>
<event>
 4    1  0.5943823E+000  0.1000000E+03  0.7546771E-02  0.1280296E+00
         21   -1    0    0  501  502  0.00000000000E+00  0.00000000000E+00  0.28286101295E+04  0.28286101295E+04  0.00000000000E+00 0.  1.
         21   -1    0    0  502  503 -0.00000000000E+00 -0.00000000000E+00 -0.34682561580E+02  0.34682561580E+02  0.00000000000E+00 0. -1.
          6    1    1    2  501    0 -0.39281939744E+02  0.17445100506E+03  0.22665992312E+04  0.22802143099E+04  0.17300000000E+03 0. -1.
         -6    1    1    2    0  503  0.39281939744E+02 -0.17445100506E+03  0.52732833673E+03  0.58307838124E+03  0.17300000000E+03 0.  1.
</event>
<event>
 4    1  0.5943823E+000  0.1000000E+03  0.7546771E-02  0.1280296E+00
         21   -1    0    0  501  502  0.00000000000E+00  0.00000000000E+00  0.36498887810E+02  0.36498887810E+02  0.00000000000E+00 0.  1.
         21   -1    0    0  502  503 -0.00000000000E+00 -0.00000000000E+00 -0.23726605171E+04  0.23726605171E+04  0.00000000000E+00 0. -1.
          6    1    1    2  501    0  0.15459477081E+03  0.23018659293E+02 -0.43308877605E+03  0.49185799758E+03  0.17300000000E+03 0. -1.
         -6    1    1    2    0  503 -0.15459477081E+03 -0.23018659293E+02 -0.19030728532E+04  0.19173014073E+04  0.17300000000E+03 0.  1.
</event>
<event>
 4    1  0.5943823E+000  0.1000000E+03  0.7546771E-02  0.1280296E+00
         21   -1    0    0  501  502  0.00000000000E+00  0.00000000000E+00  0.27048464441E+03  0.27048464441E+03  0.00000000000E+00 0.  1.
         21   -1    0    0  502  503 -0.00000000000E+00 -0.00000000000E+00 -0.11682284584E+03  0.11682284584E+03  0.00000000000E+00 0.  1.
          6    1    1    2  501    0  0.34059354425E+02 -0.21108357384E+02  0.68103144400E+02  0.19019106355E+03  0.17300000000E+03 0.  1.
         -6    1    1    2    0  503 -0.34059354425E+02  0.21108357384E+02  0.85558654163E+02  0.19711642671E+03  0.17300000000E+03 0.  1.
</event>
<event>
 4    1  0.5943823E+000  0.1000000E+03  0.7546771E-02  0.1280296E+00
         21   -1    0    0  501  502  0.00000000000E+00  0.00000000000E+00  0.66534600802E+03  0.66534600802E+03  0.00000000000E+00 0.  1.
         21   -1    0    0  502  503 -0.00000000000E+00 -0.00000000000E+00 -0.82820779474E+02  0.82820779474E+02  0.00000000000E+00 0.  1.
          6    1    1    2  501    0  0.56982607772E+02  0.30770042299E+02  0.52209404177E+03  0.55380953544E+03  0.17300000000E+03 0.  1.
         -6    1    1    2    0  503 -0.56982607772E+02 -0.30770042299E+02  0.60431186776E+02  0.19435725206E+03  0.17300000000E+03 0.  1.
</event>
<event>
 4    1  0.5943823E+000  0.1000000E+03  0.7546771E-02  0.1280296E+00
         21   -1    0    0  501  502  0.00000000000E+00  0.00000000000E+00  0.19486805839E+03  0.19486805839E+03  0.00000000000E+00 0. -1.
         21   -1    0    0  502  503 -0.00000000000E+00 -0.00000000000E+00 -0.32773968785E+03  0.32773968785E+03  0.00000000000E+00 0.  1.
          6    1    1    2  501    0 -0.14038974508E+03  0.10544534063E+03 -0.87829225190E+01  0.24664577862E+03  0.17300000000E+03 0.  1.
         -6    1    1    2    0  503  0.14038974508E+03 -0.10544534063E+03 -0.12408870694E+03  0.27596196762E+03  0.17300000000E+03 0. -1.
</event>
<event>
 4    1  0.5943823E+000  0.1000000E+03  0.7546771E-02  0.1280296E+00
         21   -1    0    0  501  502  0.00000000000E+00  0.00000000000E+00  0.43639866968E+02  0.43639866968E+02  0.00000000000E+00 0.  1.
         21   -1    0    0  502  503 -0.00000000000E+00 -0.00000000000E+00 -0.11076115299E+04  0.11076115299E+04  0.00000000000E+00 0.  1.
          6    1    1    2  501    0 -0.26616210632E+02 -0.13282828309E+03 -0.55144609437E+03  0.59361062192E+03  0.17300000000E+03 0.  1.
         -6    1    1    2    0  503  0.26616210632E+02  0.13282828309E+03 -0.51252556855E+03  0.55764077494E+03  0.17300000000E+03 0.  1.
</event>
<event>
 4    1  0.5943823E+000  0.1000000E+03  0.7546771E-02  0.1280296E+00
         21   -1    0    0  501  502  0.00000000000E+00  0.00000000000E+00  0.19813734691E+03  0.19813734691E+03  0.00000000000E+00 0.  1.
         21   -1    0    0  502  503 -0.00000000000E+00 -0.00000000000E+00 -0.17703967733E+03  0.17703967733E+03  0.00000000000E+00 0.  1.
          6    1    1    2  501    0 -0.23371398029E+02  0.51230735398E+02  0.55098104055E+02  0.19009369155E+03  0.17300000000E+03 0.  1.
         -6    1    1    2    0  503  0.23371398029E+02 -0.51230735398E+02 -0.34000434479E+02  0.18508333269E+03  0.17300000000E+03 0.  1.
</event>
<event>
 4    1  0.5943823E+000  0.1000000E+03  0.7546771E-02  0.1280296E+00
         21   -1    0    0  501  502  0.00000000000E+00  0.00000000000E+00  0.12835487788E+04  0.12835487788E+04  0.00000000000E+00 0.  1.
         21   -1    0    0  502  503 -0.00000000000E+00 -0.00000000000E+00 -0.99234330806E+02  0.99234330806E+02  0.00000000000E+00 0.  1.
          6    1    1    2  501    0 -0.20665533836E+03  0.32656516260E+02  0.14335642058E+03  0.30700641727E+03  0.17300000000E+03 0.  1.
         -6    1    1    2    0  503  0.20665533836E+03 -0.32656516260E+02  0.10409580274E+04  0.10757766923E+04  0.17300000000E+03 0.  1.
</event>
<event>
 4    1  0.5943823E+000  0.1000000E+03  0.7546771E-02  0.1280296E+00
         21   -1    0    0  501  502  0.00000000000E+00  0.00000000000E+00  0.25974839656E+03  0.25974839656E+03  0.00000000000E+00 0.  1.
         21   -1    0    0  502  503 -0.00000000000E+00 -0.00000000000E+00 -0.32943312545E+03  0.32943312545E+03  0.00000000000E+00 0.  1.
          6    1    1    2  501    0  0.17693137195E+03 -0.57281458147E+02  0.11128620415E+03  0.27730758205E+03  0.17300000000E+03 0.  1.
         -6    1    1    2    0  503 -0.17693137195E+03  0.57281458147E+02 -0.18097093304E+03  0.31187393997E+03  0.17300000000E+03 0.  1.
</event>
<event>
 4    1  0.5943823E+000  0.1000000E+03  0.7546771E-02  0.1280296E+00
         21   -1    0    0  501  502  0.00000000000E+00  0.00000000000E+00  0.31707527075E+03  0.31707527075E+03  0.00000000000E+00 0. -1.
         21   -1    0    0  502  503 -0.00000000000E+00 -0.00000000000E+00 -0.64596639136E+03  0.64596639136E+03  0.00000000000E+00 0. -1.
          6    1    1    2  501    0 -0.75496570167E+02 -0.19160069181E+03  0.22281633462E+03  0.34926591042E+03  0.17300000000E+03 0. -1.
         -6    1    1    2    0  503  0.75496570167E+02  0.19160069181E+03 -0.55170745523E+03  0.61377575169E+03  0.17300000000E+03 0. -1.
</event>
<event>
 4    1  0.5943823E+000  0.1000000E+03  0.7546771E-02  0.1280296E+00
         21   -1    0    0  501  502  0.00000000000E+00  0.00000000000E+00  0.16105791750E+04  0.16105791750E+04  0.00000000000E+00 0. -1.
         21   -1    0    0  502  503 -0.00000000000E+00 -0.00000000000E+00 -0.60183597891E+02  0.60183597891E+02  0.00000000000E+00 0. -1.
          6    1    1    2  501    0  0.24496772487E+03 -0.60380511321E+01  0.99898145502E+03  0.10430429482E+04  0.17300000000E+03 0. -1.
         -6    1    1    2    0  503 -0.24496772487E+03  0.60380511321E+01  0.55141412208E+03  0.62771982470E+03  0.17300000000E+03 0. -1.
</event>
<event>
 4    1  0.5943823E+000  0.1000000E+03  0.7546771E-02  0.1280296E+00
         21   -1    0    0  501  502  0.00000000000E+00  0.00000000000E+00  0.26831785506E+03  0.26831785506E+03  0.00000000000E+00 0. -1.
         21   -1    0    0  502  503 -0.00000000000E+00 -0.00000000000E+00 -0.15211848626E+03  0.15211848626E+03  0.00000000000E+00 0. -1.
          6    1    1    2  501    0 -0.62542180975E+02  0.77359178567E+02  0.90858014832E+02  0.21927185357E+03  0.17300000000E+03 0. -1.
         -6    1    1    2    0  503  0.62542180975E+02 -0.77359178567E+02  0.25341353964E+02  0.20116448775E+03  0.17300000000E+03 0. -1.
</event>
<event>
 4    1  0.5943823E+000  0.1000000E+03  0.7546771E-02  0.1280296E+00
         21   -1    0    0  501  502  0.00000000000E+00  0.00000000000E+00  0.33904119617E+03  0.33904119617E+03  0.00000000000E+00 0. -1.
         21   -1    0    0  502  503 -0.00000000000E+00 -0.00000000000E+00 -0.58567739174E+03  0.58567739174E+03  0.00000000000E+00 0. -1.
          6    1    1    2  501    0 -0.26120964319E+03  0.33250644423E+02  0.20365106746E+03  0.37515175640E+03  0.17300000000E+03 0. -1.
         -6    1    1    2    0  503  0.26120964319E+03 -0.33250644423E+02 -0.45028726303E+03  0.54956683151E+03  0.17300000000E+03 0. -1.
</event>
<event>
 4    1  0.5943823E+000  0.1000000E+03  0.7546771E-02  0.1280296E+00
         21   -1    0    0  501  502  0.00000000000E+00  0.00000000000E+00  0.42910627462E+02  0.42910627462E+02  0.00000000000E+00 0. -1.
         21   -1    0    0  502  503 -0.00000000000E+00 -0.00000000000E+00 -0.79420238832E+03  0.79420238832E+03  0.00000000000E+00 0. -1.
          6    1    1    2  501    0 -0.35323761827E+02  0.14376734883E+02 -0.49337592037E+03  0.52421680387E+03  0.17300000000E+03 0. -1.
         -6    1    1    2    0  503  0.35323761827E+02 -0.14376734883E+02 -0.25791584049E+03  0.31289621191E+03  0.17300000000E+03 0. -1.
</event>
<event>
 4    1  0.5943823E+000  0.1000000E+03  0.7546771E-02  0.1280296E+00
         21   -1    0    0  501  502  0.00000000000E+00  0.00000000000E+00  0.59075455941E+03  0.59075455941E+03  0.00000000000E+00 0. -1.
         21   -1    0    0  502  503 -0.00000000000E+00 -0.00000000000E+00 -0.70743321032E+02  0.70743321032E+02  0.00000000000E+00 0. -1.
          6    1    1    2  501    0  0.13599798535E+02  0.68619527743E+02  0.39507228858E+03  0.43692643238E+03  0.17300000000E+03 0. -1.
         -6    1    1    2    0  503 -0.13599798535E+02 -0.68619527743E+02  0.12493894980E+03  0.22457144806E+03  0.17300000000E+03 0. -1.
</event>
<event>
 4    1  0.5943823E+000  0.1000000E+03  0.7546771E-02  0.1280296E+00
         21   -1    0    0  503  502  0.00000000000E+00  0.00000000000E+00  0.12985665876E+03  0.12985665876E+03  0.00000000000E+00 0.  1.
         21   -1    0    0  501  503 -0.00000000000E+00 -0.00000000000E+00 -0.79371101261E+03  0.79371101261E+03  0.00000000000E+00 0.  1.
          6    1    1    2  501    0 -0.16979026274E+02  0.14958380016E+03 -0.65508757430E+03  0.69406939899E+03  0.17300000000E+03 0.  1.
         -6    1    1    2    0  502  0.16979026274E+02 -0.14958380016E+03 -0.87667795545E+01  0.22949827238E+03  0.17300000000E+03 0.  1.
</event>
<event>
 4    1  0.5943823E+000  0.1000000E+03  0.7546771E-02  0.1280296E+00
         21   -1    0    0  503  502  0.00000000000E+00  0.00000000000E+00  0.28402672283E+03  0.28402672283E+03  0.00000000000E+00 0.  1.
         21   -1    0    0  501  503 -0.00000000000E+00 -0.00000000000E+00 -0.12089142084E+03  0.12089142084E+03  0.00000000000E+00 0.  1.
          6    1    1    2  501    0 -0.98968179369E+01 -0.59291646288E+02  0.11235383506E+03  0.21486235263E+03  0.17300000000E+03 0.  1.
         -6    1    1    2    0  502  0.98968179369E+01  0.59291646288E+02  0.50781466927E+02  0.19005579104E+03  0.17300000000E+03 0.  1.
</event>
<event>
 4    1  0.5943823E+000  0.1000000E+03  0.7546771E-02  0.1280296E+00
         21   -1    0    0  503  502  0.00000000000E+00  0.00000000000E+00  0.36424780408E+03  0.36424780408E+03  0.00000000000E+00 0.  1.
         21   -1    0    0  501  503 -0.00000000000E+00 -0.00000000000E+00 -0.26469483042E+03  0.26469483042E+03  0.00000000000E+00 0.  1.
          6    1    1    2  501    0 -0.98164440720E+02 -0.11386312124E+03 -0.16238430806E+03  0.28088917976E+03  0.17300000000E+03 0.  1.
         -6    1    1    2    0  502  0.98164440720E+02  0.11386312124E+03  0.26193728173E+03  0.34805345474E+03  0.17300000000E+03 0.  1.
</event>
<event>
 4    1  0.5943823E+000  0.1000000E+03  0.7546771E-02  0.1280296E+00
         21   -1    0    0  503  502  0.00000000000E+00  0.00000000000E+00  0.78619905631E+03  0.78619905631E+03  0.00000000000E+00 0.  1.
         21   -1    0    0  501  503 -0.00000000000E+00 -0.00000000000E+00 -0.88099293267E+02  0.88099293267E+02  0.00000000000E+00 0.  1.
          6    1    1    2  501    0  0.18219209569E+03  0.35446208284E+02  0.46513415014E+03  0.52983881609E+03  0.17300000000E+03 0.  1.
         -6    1    1    2    0  502 -0.18219209569E+03 -0.35446208284E+02  0.23296561290E+03  0.34445953348E+03  0.17300000000E+03 0.  1.
</event>
<event>
 4    1  0.5943823E+000  0.1000000E+03  0.7546771E-02  0.1280296E+00
         21   -1    0    0  503  502  0.00000000000E+00  0.00000000000E+00  0.75070577898E+02  0.75070577898E+02  0.00000000000E+00 0.  1.
         21   -1    0    0  501  503 -0.00000000000E+00 -0.00000000000E+00 -0.55460680353E+03  0.55460680353E+03  0.00000000000E+00 0.  1.
          6    1    1    2  501    0  0.44354920304E+02 -0.61675601799E+02 -0.12090432716E+03  0.22431695241E+03  0.17300000000E+03 0.  1.
         -6    1    1    2    0  502 -0.44354920304E+02  0.61675601799E+02 -0.35863189848E+03  0.40536042902E+03  0.17300000000E+03 0.  1.
</event>
<event>
 4    1  0.5943823E+000  0.1000000E+03  0.7546771E-02  0.1280296E+00
         21   -1    0    0  503  502  0.00000000000E+00  0.00000000000E+00  0.41773887205E+02  0.41773887205E+02  0.00000000000E+00 0.  1.
         21   -1    0    0  501  503 -0.00000000000E+00 -0.00000000000E+00 -0.85585433153E+03  0.85585433153E+03  0.00000000000E+00 0.  1.
          6    1    1    2  501    0  0.65269461156E+02  0.38772539692E+02 -0.38866179183E+03  0.43214627249E+03  0.17300000000E+03 0.  1.
         -6    1    1    2    0  502 -0.65269461156E+02 -0.38772539692E+02 -0.42541865249E+03  0.46548194624E+03  0.17300000000E+03 0.  1.
</event>
<event>
 4    1  0.5943823E+000  0.1000000E+03  0.7546771E-02  0.1280296E+00
         21   -1    0    0  501  502  0.00000000000E+00  0.00000000000E+00  0.52460212572E+03  0.52460212572E+03  0.00000000000E+00 0. -1.
         21   -1    0    0  502  503 -0.00000000000E+00 -0.00000000000E+00 -0.11168149898E+03  0.11168149898E+03  0.00000000000E+00 0.  1.
          6    1    1    2  501    0  0.88349788640E+02 -0.10154574500E+03  0.34141229279E+03  0.40571982593E+03  0.17300000000E+03 0. -1.
         -6    1    1    2    0  503 -0.88349788640E+02  0.10154574500E+03  0.71508333953E+02  0.23056379878E+03  0.17300000000E+03 0. -1.
</event>
<event>
 4    1  0.5943823E+000  0.1000000E+03  0.7546771E-02  0.1280296E+00
         21   -1    0    0  501  502  0.00000000000E+00  0.00000000000E+00  0.17947971838E+03  0.17947971838E+03  0.00000000000E+00 0. -1.
         21   -1    0    0  502  503 -0.00000000000E+00 -0.00000000000E+00 -0.26434069893E+03  0.26434069893E+03  0.00000000000E+00 0.  1.
          6    1    1    2  501    0  0.21326802102E+02 -0.89620991494E+02  0.54371503589E+02  0.20340111850E+03  0.17300000000E+03 0. -1.
         -6    1    1    2    0  503 -0.21326802102E+02  0.89620991494E+02 -0.13923248414E+03  0.24041929882E+03  0.17300000000E+03 0. -1.
</event>
<event>
 4    1  0.5943823E+000  0.1000000E+03  0.7546771E-02  0.1280296E+00
         21   -1    0    0  501  502  0.00000000000E+00  0.00000000000E+00  0.71527616081E+02  0.71527616081E+02  0.00000000000E+00 0.  1.
         21   -1    0    0  502  503 -0.00000000000E+00 -0.00000000000E+00 -0.53776663756E+03  0.53776663756E+03  0.00000000000E+00 0. -1.
          6    1    1    2  501    0  0.36042780119E+02 -0.39830640887E+02 -0.34988397898E+03  0.39399665062E+03  0.17300000000E+03 0.  1.
         -6    1    1    2    0  503 -0.36042780119E+02  0.39830640887E+02 -0.11635504250E+03  0.21529760302E+03  0.17300000000E+03 0. -1.
</event>
<event>
 4    1  0.5943823E+000  0.1000000E+03  0.7546771E-02  0.1280296E+00
         21   -1    0    0  501  502  0.00000000000E+00  0.00000000000E+00  0.78734580709E+03  0.78734580709E+03  0.00000000000E+00 0.  1.
         21   -1    0    0  502  503 -0.00000000000E+00 -0.00000000000E+00 -0.12099112645E+03  0.12099112645E+03  0.00000000000E+00 0. -1.
          6    1    1    2  501    0  0.22559405362E+03 -0.60710878404E+01  0.50977655879E+03  0.58372140190E+03  0.17300000000E+03 0.  1.
         -6    1    1    2    0  503 -0.22559405362E+03  0.60710878404E+01  0.15657812185E+03  0.32461553163E+03  0.17300000000E+03 0. -1.
</event>
<event>
 4    1  0.5943823E+000  0.1000000E+03  0.7546771E-02  0.1280296E+00
         21   -1    0    0  503  502  0.00000000000E+00  0.00000000000E+00  0.13370349203E+04  0.13370349203E+04  0.00000000000E+00 0. -1.
         21   -1    0    0  501  503 -0.00000000000E+00 -0.00000000000E+00 -0.58557639424E+02  0.58557639424E+02  0.00000000000E+00 0.  1.
          6    1    1    2  501    0 -0.45696941760E+02 -0.16472837229E+03  0.29421617793E+03  0.38172739812E+03  0.17300000000E+03 0.  1.
         -6    1    1    2    0  502  0.45696941760E+02  0.16472837229E+03  0.98426110294E+03  0.10138651616E+04  0.17300000000E+03 0. -1.
</event>
<event>
 4    1  0.5943823E+000  0.1000000E+03  0.7546771E-02  0.1280296E+00
         21   -1    0    0  503  502  0.00000000000E+00  0.00000000000E+00  0.14921917940E+04  0.14921917940E+04  0.00000000000E+00 0.  1.
         21   -1    0    0  501  503 -0.00000000000E+00 -0.00000000000E+00 -0.23276708910E+02  0.23276708910E+02  0.00000000000E+00 0.  1.
          6    1    1    2  501    0 -0.58249651840E+02 -0.32675557358E+02  0.65909242013E+03  0.68468425735E+03  0.17300000000E+03 0. -1.
         -6    1    1    2    0  502  0.58249651840E+02  0.32675557358E+02  0.80982266494E+03  0.83078424554E+03  0.17300000000E+03 0. -1.
</event>
<event>
 4    1  0.5943823E+000  0.1000000E+03  0.7546771E-02  0.1280296E+00
         21   -1    0    0  503  502  0.00000000000E+00  0.00000000000E+00  0.10561974738E+03  0.10561974738E+03  0.00000000000E+00 0.  1.
         21   -1    0    0  501  503 -0.00000000000E+00 -0.00000000000E+00 -0.86317063933E+03  0.86317063933E+03  0.00000000000E+00 0.  1.
          6    1    1    2  501    0 -0.14904389454E+02  0.11084321716E+03 -0.73291903987E+03  0.76131969541E+03  0.17300000000E+03 0. -1.
         -6    1    1    2    0  502  0.14904389454E+02 -0.11084321716E+03 -0.24631852082E+02  0.20747069131E+03  0.17300000000E+03 0. -1.
</event>
<event>
 4    1  0.5943823E+000  0.1000000E+03  0.7546771E-02  0.1280296E+00
         21   -1    0    0  503  502  0.00000000000E+00  0.00000000000E+00  0.74782601738E+03  0.74782601738E+03  0.00000000000E+00 0.  1.
         21   -1    0    0  501  503 -0.00000000000E+00 -0.00000000000E+00 -0.13278338216E+03  0.13278338216E+03  0.00000000000E+00 0.  1.
          6    1    1    2  501    0  0.14855578194E+03 -0.12959848149E+03  0.63477006528E+02  0.26985721615E+03  0.17300000000E+03 0. -1.
         -6    1    1    2    0  502 -0.14855578194E+03  0.12959848149E+03  0.55156562870E+03  0.61075218339E+03  0.17300000000E+03 0. -1.
</event>
<event>
 4    1  0.5943823E+000  0.1000000E+03  0.7546771E-02  0.1280296E+00
         21   -1    0    0  501  502  0.00000000000E+00  0.00000000000E+00  0.21059157515E+03  0.21059157515E+03  0.00000000000E+00 0.  1.
         21   -1    0    0  502  503 -0.00000000000E+00 -0.00000000000E+00 -0.26867687576E+03  0.26867687576E+03  0.00000000000E+00 0.  1.
          6    1    1    2  501    0 -0.10121523803E+03 -0.86483466952E+02  0.66148040553E+02  0.22809751804E+03  0.17300000000E+03 0.  1.
         -6    1    1    2    0  503  0.10121523803E+03  0.86483466952E+02 -0.12423334117E+03  0.25117093288E+03  0.17300000000E+03 0.  1.
</event>
<event>
 4    1  0.5943823E+000  0.1000000E+03  0.7546771E-02  0.1280296E+00
         21   -1    0    0  503  502  0.00000000000E+00  0.00000000000E+00  0.78164350319E+03  0.78164350319E+03  0.00000000000E+00 0.  1.
         21   -1    0    0  501  503 -0.00000000000E+00 -0.00000000000E+00 -0.12547694198E+03  0.12547694198E+03  0.00000000000E+00 0. -1.
          6    1    1    2  501    0  0.10644480101E+03  0.17647662081E+03  0.96022531795E+02  0.28569882738E+03  0.17300000000E+03 0. -1.
         -6    1    1    2    0  502 -0.10644480101E+03 -0.17647662081E+03  0.56014402941E+03  0.62142161778E+03  0.17300000000E+03 0.  1.
</event>
<event>
 4    1  0.5943823E+000  0.1000000E+03  0.7546771E-02  0.1280296E+00
         21   -1    0    0  503  502  0.00000000000E+00  0.00000000000E+00  0.94367181415E+03  0.94367181415E+03  0.00000000000E+00 0.  1.
         21   -1    0    0  501  503 -0.00000000000E+00 -0.00000000000E+00 -0.15712081068E+03  0.15712081068E+03  0.00000000000E+00 0. -1.
          6    1    1    2  501    0 -0.54826733400E+02 -0.19974305782E+03  0.68129556183E+00  0.26987538607E+03  0.17300000000E+03 0. -1.
         -6    1    1    2    0  502  0.54826733400E+02  0.19974305782E+03  0.78586970791E+03  0.83091723875E+03  0.17300000000E+03 0.  1.
</event>
<event>
 4    1  0.5943823E+000  0.1000000E+03  0.7546771E-02  0.1280296E+00
         21   -1    0    0  503  502  0.00000000000E+00  0.00000000000E+00  0.35949013729E+03  0.35949013729E+03  0.00000000000E+00 0.  1.
         21   -1    0    0  501  503 -0.00000000000E+00 -0.00000000000E+00 -0.17638531639E+03  0.17638531639E+03  0.00000000000E+00 0. -1.
          6    1    1    2  501    0  0.10515720428E+02 -0.82570013732E+02 -0.81829118547E+02  0.20869449486E+03  0.17300000000E+03 0. -1.
         -6    1    1    2    0  502 -0.10515720428E+02  0.82570013732E+02  0.26493393944E+03  0.32718095882E+03  0.17300000000E+03 0.  1.
</event>
<event>
 4    1  0.5943823E+000  0.1000000E+03  0.7546771E-02  0.1280296E+00
         21   -1    0    0  501  502  0.00000000000E+00  0.00000000000E+00  0.71765155416E+03  0.71765155416E+03  0.00000000000E+00 0. -1.
         21   -1    0    0  502  503 -0.00000000000E+00 -0.00000000000E+00 -0.52076761838E+02  0.52076761838E+02  0.00000000000E+00 0. -1.
          6    1    1    2  501    0  0.37847843848E+02 -0.24169694058E+02  0.47945088384E+03  0.51168230711E+03  0.17300000000E+03 0. -1.
         -6    1    1    2    0  503 -0.37847843848E+02  0.24169694058E+02  0.18612390849E+03  0.25804600889E+03  0.17300000000E+03 0. -1.
</event>
<event>
 4    1  0.5943823E+000  0.1000000E+03  0.7546771E-02  0.1280296E+00
         21   -1    0    0  501  502  0.00000000000E+00  0.00000000000E+00  0.32918229366E+03  0.32918229366E+03  0.00000000000E+00 0. -1.
         21   -1    0    0  502  503 -0.00000000000E+00 -0.00000000000E+00 -0.26905602891E+03  0.26905602891E+03  0.00000000000E+00 0.  1.
          6    1    1    2  501    0  0.13869962783E+03 -0.14402986182E+03 -0.10722372106E+03  0.28532107215E+03  0.17300000000E+03 0. -1.
         -6    1    1    2    0  503 -0.13869962783E+03  0.14402986182E+03  0.16734998581E+03  0.31291725041E+03  0.17300000000E+03 0.  1.
</event>
<event>
 4    1  0.5943823E+000  0.1000000E+03  0.7546771E-02  0.1280296E+00
         21   -1    0    0  501  502  0.00000000000E+00  0.00000000000E+00  0.15844601674E+03  0.15844601674E+03  0.00000000000E+00 0. -1.
         21   -1    0    0  502  503 -0.00000000000E+00 -0.00000000000E+00 -0.26512477745E+03  0.26512477745E+03  0.00000000000E+00 0.  1.
          6    1    1    2  501    0  0.36594242747E+01  0.14174946685E+01  0.60153341323E+02  0.18320159702E+03  0.17300000000E+03 0. -1.
         -6    1    1    2    0  503 -0.36594242747E+01 -0.14174946685E+01 -0.16683210204E+03  0.24036919717E+03  0.17300000000E+03 0.  1.
</event>
<event>
 4    1  0.5943823E+000  0.1000000E+03  0.7546771E-02  0.1280296E+00
         21   -1    0    0  503  502  0.00000000000E+00  0.00000000000E+00  0.12547086646E+04  0.12547086646E+04  0.00000000000E+00 0. -1.
         21   -1    0    0  501  503 -0.00000000000E+00 -0.00000000000E+00 -0.26422168436E+02  0.26422168436E+02  0.00000000000E+00 0.  1.
          6    1    1    2  501    0  0.28145801973E+02 -0.27908334290E+02  0.47114818883E+03  0.50346864563E+03  0.17300000000E+03 0.  1.
         -6    1    1    2    0  502 -0.28145801973E+02  0.27908334290E+02  0.75713830732E+03  0.77766218740E+03  0.17300000000E+03 0. -1.
</event>
<event>
 4    1  0.5943823E+000  0.1000000E+03  0.7546771E-02  0.1280296E+00
         21   -1    0    0  501  502  0.00000000000E+00  0.00000000000E+00  0.26305784060E+03  0.26305784060E+03  0.00000000000E+00 0.  1.
         21   -1    0    0  502  503 -0.00000000000E+00 -0.00000000000E+00 -0.20406456159E+03  0.20406456159E+03  0.00000000000E+00 0. -1.
          6    1    1    2  501    0 -0.11471781769E+03  0.28550178608E+02 -0.70177573547E+02  0.22097326133E+03  0.17300000000E+03 0.  1.
         -6    1    1    2    0  503  0.11471781769E+03 -0.28550178608E+02  0.12917085256E+03  0.24614914086E+03  0.17300000000E+03 0. -1.
</event>
<event>
 4    1  0.5943823E+000  0.1000000E+03  0.7546771E-02  0.1280296E+00
         21   -1    0    0  501  502  0.00000000000E+00  0.00000000000E+00  0.96583040601E+02  0.96583040601E+02  0.00000000000E+00 0. -1.
         21   -1    0    0  502  503 -0.00000000000E+00 -0.00000000000E+00 -0.63777469908E+03  0.63777469908E+03  0.00000000000E+00 0. -1.
          6    1    1    2  501    0 -0.27548266924E+02  0.14831213278E+03 -0.41027306319E+03  0.47011528599E+03  0.17300000000E+03 0. -1.
         -6    1    1    2    0  503  0.27548266924E+02 -0.14831213278E+03 -0.13091859529E+03  0.26424245369E+03  0.17300000000E+03 0. -1.
</event>
<event>
 4    1  0.5943823E+000  0.1000000E+03  0.7546771E-02  0.1280296E+00
         21   -1    0    0  501  502  0.00000000000E+00  0.00000000000E+00  0.51992876276E+03  0.51992876276E+03  0.00000000000E+00 0.  1.
         21   -1    0    0  502  503 -0.00000000000E+00 -0.00000000000E+00 -0.91052446979E+02  0.91052446979E+02  0.00000000000E+00 0.  1.
          6    1    1    2  501    0 -0.60679163422E+02  0.89670266573E+02  0.10853700010E+03  0.23115362418E+03  0.17300000000E+03 0.  1.
         -6    1    1    2    0  503  0.60679163422E+02 -0.89670266573E+02  0.32033931568E+03  0.37982758556E+03  0.17300000000E+03 0.  1.
</event>
<event>
 4    1  0.5943823E+000  0.1000000E+03  0.7546771E-02  0.1280296E+00
         21   -1    0    0  501  502  0.00000000000E+00  0.00000000000E+00  0.29129092453E+03  0.29129092453E+03  0.00000000000E+00 0. -1.
         21   -1    0    0  502  503 -0.00000000000E+00 -0.00000000000E+00 -0.14784043283E+03  0.14784043283E+03  0.00000000000E+00 0. -1.
          6    1    1    2  501    0  0.50941012808E+02  0.10262116357E+03  0.74984019626E+02  0.22063021823E+03  0.17300000000E+03 0. -1.
         -6    1    1    2    0  503 -0.50941012808E+02 -0.10262116357E+03  0.68466472073E+02  0.21850113912E+03  0.17300000000E+03 0. -1.
</event>
<event>
 4    1  0.5943823E+000  0.1000000E+03  0.7546771E-02  0.1280296E+00
         21   -1    0    0  501  502  0.00000000000E+00  0.00000000000E+00  0.19806223474E+04  0.19806223474E+04  0.00000000000E+00 0. -1.
         21   -1    0    0  502  503 -0.00000000000E+00 -0.00000000000E+00 -0.38520535154E+02  0.38520535154E+02  0.00000000000E+00 0. -1.
          6    1    1    2  501    0  0.12303807283E+03  0.26282938489E+02  0.16097547017E+04  0.16239052805E+04  0.17300000000E+03 0. -1.
         -6    1    1    2    0  503 -0.12303807283E+03 -0.26282938489E+02  0.33234711048E+03  0.39523760204E+03  0.17300000000E+03 0. -1.
</event>
<event>
 4    1  0.5943823E+000  0.1000000E+03  0.7546771E-02  0.1280296E+00
         21   -1    0    0  501  502  0.00000000000E+00  0.00000000000E+00  0.19941932417E+03  0.19941932417E+03  0.00000000000E+00 0. -1.
         21   -1    0    0  502  503 -0.00000000000E+00 -0.00000000000E+00 -0.23943851414E+03  0.23943851414E+03  0.00000000000E+00 0.  1.
          6    1    1    2  501    0  0.47721490239E+02  0.43730903097E+02  0.97226169116E+02  0.20873825830E+03  0.17300000000E+03 0. -1.
         -6    1    1    2    0  503 -0.47721490239E+02 -0.43730903097E+02 -0.13724535908E+03  0.23011958001E+03  0.17300000000E+03 0.  1.
</event>
<event>
 4    1  0.5943823E+000  0.1000000E+03  0.7546771E-02  0.1280296E+00
         21   -1    0    0  501  502  0.00000000000E+00  0.00000000000E+00  0.30671965603E+03  0.30671965603E+03  0.00000000000E+00 0. -1.
         21   -1    0    0  502  503 -0.00000000000E+00 -0.00000000000E+00 -0.24339146811E+03  0.24339146811E+03  0.00000000000E+00 0.  1.
          6    1    1    2  501    0 -0.61824473856E+02  0.85527506843E+02  0.21615747791E+03  0.29629423763E+03  0.17300000000E+03 0. -1.
         -6    1    1    2    0  503  0.61824473856E+02 -0.85527506843E+02 -0.15282929000E+03  0.25381688651E+03  0.17300000000E+03 0.  1.
</event>
<event>
 4    1  0.5943823E+000  0.1000000E+03  0.7546771E-02  0.1280296E+00
         21   -1    0    0  501  502  0.00000000000E+00  0.00000000000E+00  0.37689452375E+03  0.37689452375E+03  0.00000000000E+00 0. -1.
         21   -1    0    0  502  503 -0.00000000000E+00 -0.00000000000E+00 -0.11763388002E+03  0.11763388002E+03  0.00000000000E+00 0.  1.
          6    1    1    2  501    0  0.12406399826E+02 -0.77299023573E+02  0.23647057517E+03  0.30327609653E+03  0.17300000000E+03 0. -1.
         -6    1    1    2    0  503 -0.12406399826E+02  0.77299023573E+02  0.22790068551E+02  0.19125230725E+03  0.17300000000E+03 0.  1.
</event>
<event>
 4    1  0.5943823E+000  0.1000000E+03  0.7546771E-02  0.1280296E+00
         21   -1    0    0  501  502  0.00000000000E+00  0.00000000000E+00  0.19966051467E+03  0.19966051467E+03  0.00000000000E+00 0. -1.
         21   -1    0    0  502  503 -0.00000000000E+00 -0.00000000000E+00 -0.22549088401E+03  0.22549088401E+03  0.00000000000E+00 0. -1.
          6    1    1    2  501    0 -0.50991728496E+02 -0.36074619067E+02  0.93068557744E+02  0.20613658326E+03  0.17300000000E+03 0. -1.
         -6    1    1    2    0  503  0.50991728496E+02  0.36074619067E+02 -0.11889892708E+03  0.21901481543E+03  0.17300000000E+03 0. -1.
</event>
<event>
 4    1  0.5943823E+000  0.1000000E+03  0.7546771E-02  0.1280296E+00
         21   -1    0    0  501  502  0.00000000000E+00  0.00000000000E+00  0.11564146196E+03  0.11564146196E+03  0.00000000000E+00 0. -1.
         21   -1    0    0  502  503 -0.00000000000E+00 -0.00000000000E+00 -0.73276960695E+03  0.73276960695E+03  0.00000000000E+00 0. -1.
          6    1    1    2  501    0  0.81337733270E+02  0.25194603095E+02  0.92345172511E+01  0.19304111269E+03  0.17300000000E+03 0. -1.
         -6    1    1    2    0  503 -0.81337733270E+02 -0.25194603095E+02 -0.62636266223E+03  0.65536995622E+03  0.17300000000E+03 0. -1.
</event>
<event>
 4    1  0.5943823E+000  0.1000000E+03  0.7546771E-02  0.1280296E+00
         21   -1    0    0  501  502  0.00000000000E+00  0.00000000000E+00  0.93000823769E+02  0.93000823769E+02  0.00000000000E+00 0.  1.
         21   -1    0    0  502  503 -0.00000000000E+00 -0.00000000000E+00 -0.61871847411E+03  0.61871847411E+03  0.00000000000E+00 0. -1.
          6    1    1    2  501    0 -0.12354836588E+02 -0.12933731577E+03 -0.10917791549E+03  0.24234190820E+03  0.17300000000E+03 0.  1.
         -6    1    1    2    0  503  0.12354836588E+02  0.12933731577E+03 -0.41653973485E+03  0.46937738968E+03  0.17300000000E+03 0. -1.
</event>
<event>
 4    1  0.5943823E+000  0.1000000E+03  0.7546771E-02  0.1280296E+00
         21   -1    0    0  501  502  0.00000000000E+00  0.00000000000E+00  0.11618061295E+03  0.11618061295E+03  0.00000000000E+00 0.  1.
         21   -1    0    0  502  503 -0.00000000000E+00 -0.00000000000E+00 -0.61375488796E+03  0.61375488796E+03  0.00000000000E+00 0. -1.
          6    1    1    2  501    0 -0.12731166930E+02  0.71008281800E+02  0.11159021167E+02  0.18777055799E+03  0.17300000000E+03 0.  1.
         -6    1    1    2    0  503  0.12731166930E+02 -0.71008281800E+02 -0.50873329617E+03  0.54216494292E+03  0.17300000000E+03 0. -1.
</event>
<event>
 4    1  0.5943823E+000  0.1000000E+03  0.7546771E-02  0.1280296E+00
         21   -1    0    0  501  502  0.00000000000E+00  0.00000000000E+00  0.88874129090E+03  0.88874129090E+03  0.00000000000E+00 0.  1.
         21   -1    0    0  502  503 -0.00000000000E+00 -0.00000000000E+00 -0.90103092192E+02  0.90103092192E+02  0.00000000000E+00 0. -1.
          6    1    1    2  501    0 -0.28769040127E+02  0.14608840929E+03  0.68861939641E+03  0.72546202803E+03  0.17300000000E+03 0.  1.
         -6    1    1    2    0  503  0.28769040127E+02 -0.14608840929E+03  0.11001880230E+03  0.25338235507E+03  0.17300000000E+03 0. -1.
</event>
<event>
 4    1  0.5943823E+000  0.1000000E+03  0.7546771E-02  0.1280296E+00
         21   -1    0    0  501  502  0.00000000000E+00  0.00000000000E+00  0.18232942605E+03  0.18232942605E+03  0.00000000000E+00 0. -1.
         21   -1    0    0  502  503 -0.00000000000E+00 -0.00000000000E+00 -0.41892798529E+03  0.41892798529E+03  0.00000000000E+00 0. -1.
          6    1    1    2  501    0 -0.15892836386E+03 -0.84898228643E+02  0.10350677938E+02  0.25000414117E+03  0.17300000000E+03 0. -1.
         -6    1    1    2    0  503  0.15892836386E+03  0.84898228643E+02 -0.24694923718E+03  0.35125327018E+03  0.17300000000E+03 0. -1.
</event>
<event>
 4    1  0.5943823E+000  0.1000000E+03  0.7546771E-02  0.1280296E+00
         21   -1    0    0  503  502  0.00000000000E+00  0.00000000000E+00  0.65743556359E+03  0.65743556359E+03  0.00000000000E+00 0.  1.
         21   -1    0    0  501  503 -0.00000000000E+00 -0.00000000000E+00 -0.13000080271E+03  0.13000080271E+03  0.00000000000E+00 0.  1.
          6    1    1    2  501    0  0.53825544185E+02  0.53402804122E+02 -0.36788522027E+02  0.19243555817E+03  0.17300000000E+03 0.  1.
         -6    1    1    2    0  502 -0.53825544185E+02 -0.53402804122E+02  0.56422328291E+03  0.59500080813E+03  0.17300000000E+03 0.  1.
</event>
<event>
 4    1  0.5943823E+000  0.1000000E+03  0.7546771E-02  0.1280296E+00
         21   -1    0    0  503  502  0.00000000000E+00  0.00000000000E+00  0.94155227357E+02  0.94155227357E+02  0.00000000000E+00 0.  1.
         21   -1    0    0  501  503 -0.00000000000E+00 -0.00000000000E+00 -0.40969604660E+03  0.40969604660E+03  0.00000000000E+00 0.  1.
          6    1    1    2  501    0  0.75329886384E+02 -0.37488404048E+02 -0.20853049883E+03  0.28371454168E+03  0.17300000000E+03 0.  1.
         -6    1    1    2    0  502 -0.75329886384E+02  0.37488404048E+02 -0.10701032041E+03  0.22013673227E+03  0.17300000000E+03 0.  1.
</event>
<event>
 4    1  0.5943823E+000  0.1000000E+03  0.7546771E-02  0.1280296E+00
         21   -1    0    0  503  502  0.00000000000E+00  0.00000000000E+00  0.11255412539E+04  0.11255412539E+04  0.00000000000E+00 0.  1.
         21   -1    0    0  501  503 -0.00000000000E+00 -0.00000000000E+00 -0.38432231661E+02  0.38432231661E+02  0.00000000000E+00 0.  1.
          6    1    1    2  501    0  0.17405051161E+01  0.15558647016E+02  0.22348993474E+03  0.28305803607E+03  0.17300000000E+03 0.  1.
         -6    1    1    2    0  502 -0.17405051161E+01 -0.15558647016E+02  0.86361908747E+03  0.88091544946E+03  0.17300000000E+03 0.  1.
</event>
<event>
 4    1  0.5943823E+000  0.1000000E+03  0.7546771E-02  0.1280296E+00
         21   -1    0    0  503  502  0.00000000000E+00  0.00000000000E+00  0.60022553321E+03  0.60022553321E+03  0.00000000000E+00 0.  1.
         21   -1    0    0  501  503 -0.00000000000E+00 -0.00000000000E+00 -0.81459641664E+02  0.81459641664E+02  0.00000000000E+00 0. -1.
          6    1    1    2  501    0 -0.87549871929E+02  0.10496388173E+03  0.28530292190E+03  0.36056782134E+03  0.17300000000E+03 0. -1.
         -6    1    1    2    0  502  0.87549871929E+02 -0.10496388173E+03  0.23346296964E+03  0.32111735353E+03  0.17300000000E+03 0.  1.
</event>
<event>
 4    1  0.5943823E+000  0.1000000E+03  0.7546771E-02  0.1280296E+00
         21   -1    0    0  503  502  0.00000000000E+00  0.00000000000E+00  0.69874210120E+03  0.69874210120E+03  0.00000000000E+00 0.  1.
         21   -1    0    0  501  503 -0.00000000000E+00 -0.00000000000E+00 -0.36680063647E+03  0.36680063647E+03  0.00000000000E+00 0. -1.
          6    1    1    2  501    0  0.33726289285E+03 -0.17289400332E+03 -0.13672249609E+03  0.43847535417E+03  0.17300000000E+03 0. -1.
         -6    1    1    2    0  502 -0.33726289285E+03  0.17289400332E+03  0.46866396082E+03  0.62706738350E+03  0.17300000000E+03 0.  1.
</event>
<event>
 4    1  0.5943823E+000  0.1000000E+03  0.7546771E-02  0.1280296E+00
         21   -1    0    0  503  502  0.00000000000E+00  0.00000000000E+00  0.25336018638E+03  0.25336018638E+03  0.00000000000E+00 0. -1.
         21   -1    0    0  501  503 -0.00000000000E+00 -0.00000000000E+00 -0.61504908808E+03  0.61504908808E+03  0.00000000000E+00 0. -1.
          6    1    1    2  501    0 -0.13157195484E+03 -0.12190975483E+03 -0.51759029186E+03  0.57445789911E+03  0.17300000000E+03 0. -1.
         -6    1    1    2    0  502  0.13157195484E+03  0.12190975483E+03  0.15590139016E+03  0.29395137536E+03  0.17300000000E+03 0. -1.
</event>
<event>
 4    1  0.5943823E+000  0.1000000E+03  0.7546771E-02  0.1280296E+00
         21   -1    0    0  501  502  0.00000000000E+00  0.00000000000E+00  0.91501965963E+03  0.91501965963E+03  0.00000000000E+00 0. -1.
         21   -1    0    0  502  503 -0.00000000000E+00 -0.00000000000E+00 -0.58820835155E+02  0.58820835155E+02  0.00000000000E+00 0. -1.
          6    1    1    2  501    0 -0.12053336143E+02 -0.94101697022E+02  0.17196653544E+03  0.26172867937E+03  0.17300000000E+03 0. -1.
         -6    1    1    2    0  503  0.12053336143E+02  0.94101697022E+02  0.68423228903E+03  0.71211181541E+03  0.17300000000E+03 0. -1.
</event>
<event>
 4    1  0.5943823E+000  0.1000000E+03  0.7546771E-02  0.1280296E+00
         21   -1    0    0  501  502  0.00000000000E+00  0.00000000000E+00  0.15508251097E+04  0.15508251097E+04  0.00000000000E+00 0. -1.
         21   -1    0    0  502  503 -0.00000000000E+00 -0.00000000000E+00 -0.63015931718E+02  0.63015931718E+02  0.00000000000E+00 0. -1.
          6    1    1    2  501    0 -0.10983237970E+03 -0.72485491925E+02  0.13238478715E+04  0.13415735109E+04  0.17300000000E+03 0. -1.
         -6    1    1    2    0  503  0.10983237970E+03  0.72485491925E+02  0.16396130647E+03  0.27226753055E+03  0.17300000000E+03 0. -1.
</event>
<event>
 4    1  0.5943823E+000  0.1000000E+03  0.7546771E-02  0.1280296E+00
         21   -1    0    0  501  502  0.00000000000E+00  0.00000000000E+00  0.32937084058E+03  0.32937084058E+03  0.00000000000E+00 0. -1.
         21   -1    0    0  502  503 -0.00000000000E+00 -0.00000000000E+00 -0.19475442128E+03  0.19475442128E+03  0.00000000000E+00 0. -1.
          6    1    1    2  501    0 -0.10524635553E+03  0.15199276984E+03  0.73755876476E+02  0.26371865075E+03  0.17300000000E+03 0. -1.
         -6    1    1    2    0  503  0.10524635553E+03 -0.15199276984E+03  0.60860542830E+02  0.26040661111E+03  0.17300000000E+03 0. -1.
</event>
<event>
 4    1  0.5943823E+000  0.1000000E+03  0.7546771E-02  0.1280296E+00
         21   -1    0    0  503  502  0.00000000000E+00  0.00000000000E+00  0.11276972085E+04  0.11276972085E+04  0.00000000000E+00 0. -1.
         21   -1    0    0  501  503 -0.00000000000E+00 -0.00000000000E+00 -0.55805079980E+02  0.55805079980E+02  0.00000000000E+00 0.  1.
          6    1    1    2  501    0 -0.42893725435E+00 -0.18162196576E+03  0.54523612612E+03  0.60016510700E+03  0.17300000000E+03 0. -1.
         -6    1    1    2    0  502  0.42893725435E+00  0.18162196576E+03  0.52665600242E+03  0.58333718150E+03  0.17300000000E+03 0.  1.
</event>
<event>
 4    1  0.5943823E+000  0.1000000E+03  0.7546771E-02  0.1280296E+00
         21   -1    0    0  503  502  0.00000000000E+00  0.00000000000E+00  0.82921690715E+03  0.82921690715E+03  0.00000000000E+00 0. -1.
         21   -1    0    0  501  503 -0.00000000000E+00 -0.00000000000E+00 -0.82991093779E+02  0.82991093779E+02  0.00000000000E+00 0.  1.
          6    1    1    2  501    0 -0.12064972306E+03 -0.33836739311E+02  0.10836075114E+03  0.23952522412E+03  0.17300000000E+03 0. -1.
         -6    1    1    2    0  502  0.12064972306E+03  0.33836739311E+02  0.63786506223E+03  0.67268277681E+03  0.17300000000E+03 0.  1.
</event>
<event>
 4    1  0.5943823E+000  0.1000000E+03  0.7546771E-02  0.1280296E+00
         21   -1    0    0  501  502  0.00000000000E+00  0.00000000000E+00  0.83359219905E+03  0.83359219905E+03  0.00000000000E+00 0. -1.
         21   -1    0    0  502  503 -0.00000000000E+00 -0.00000000000E+00 -0.59674423752E+02  0.59674423752E+02  0.00000000000E+00 0. -1.
          6    1    1    2  501    0  0.57255586806E+02  0.12047825500E+03  0.47700446134E+03  0.52464794700E+03  0.17300000000E+03 0. -1.
         -6    1    1    2    0  503 -0.57255586806E+02 -0.12047825500E+03  0.29691331395E+03  0.36861867580E+03  0.17300000000E+03 0. -1.
</event>
<event>
 4    1  0.5943823E+000  0.1000000E+03  0.7546771E-02  0.1280296E+00
         21   -1    0    0  501  502  0.00000000000E+00  0.00000000000E+00  0.81534670152E+03  0.81534670152E+03  0.00000000000E+00 0. -1.
         21   -1    0    0  502  503 -0.00000000000E+00 -0.00000000000E+00 -0.97405322394E+02  0.97405322394E+02  0.00000000000E+00 0. -1.
          6    1    1    2  501    0 -0.21781457749E+02 -0.61099365531E+02  0.70357897441E+03  0.72743380290E+03  0.17300000000E+03 0. -1.
         -6    1    1    2    0  503  0.21781457749E+02  0.61099365531E+02  0.14362404714E+02  0.18531822101E+03  0.17300000000E+03 0. -1.
</event>
<event>
 4    1  0.5943823E+000  0.1000000E+03  0.7546771E-02  0.1280296E+00
         21   -1    0    0  501  502  0.00000000000E+00  0.00000000000E+00  0.51390461777E+02  0.51390461777E+02  0.00000000000E+00 0. -1.
         21   -1    0    0  502  503 -0.00000000000E+00 -0.00000000000E+00 -0.13915389042E+04  0.13915389042E+04  0.00000000000E+00 0. -1.
          6    1    1    2  501    0  0.36649113974E+02 -0.18825854057E+03 -0.48318942701E+03  0.54789183060E+03  0.17300000000E+03 0. -1.
         -6    1    1    2    0  503 -0.36649113974E+02  0.18825854057E+03 -0.85695901545E+03  0.89503753543E+03  0.17300000000E+03 0. -1.
</event>
<event>
 4    1  0.5943823E+000  0.1000000E+03  0.7546771E-02  0.1280296E+00
         21   -1    0    0  501  502  0.00000000000E+00  0.00000000000E+00  0.11857074089E+03  0.11857074089E+03  0.00000000000E+00 0.  1.
         21   -1    0    0  502  503 -0.00000000000E+00 -0.00000000000E+00 -0.60773525178E+03  0.60773525178E+03  0.00000000000E+00 0.  1.
          6    1    1    2  501    0  0.19717254233E+03  0.33221192289E+02 -0.18185463090E+03  0.32090616361E+03  0.17300000000E+03 0.  1.
         -6    1    1    2    0  503 -0.19717254233E+03 -0.33221192289E+02 -0.30730987999E+03  0.40539982907E+03  0.17300000000E+03 0.  1.
</event>
<event>
 4    1  0.5943823E+000  0.1000000E+03  0.7546771E-02  0.1280296E+00
         21   -1    0    0  501  502  0.00000000000E+00  0.00000000000E+00  0.20209807653E+02  0.20209807653E+02  0.00000000000E+00 0.  1.
         21   -1    0    0  502  503 -0.00000000000E+00 -0.00000000000E+00 -0.25359137879E+04  0.25359137879E+04  0.00000000000E+00 0.  1.
          6    1    1    2  501    0  0.44497496993E+02  0.80344648194E+02 -0.61699184893E+03  0.64733548596E+03  0.17300000000E+03 0.  1.
         -6    1    1    2    0  503 -0.44497496993E+02 -0.80344648194E+02 -0.18987121313E+04  0.19087881096E+04  0.17300000000E+03 0.  1.
</event>
<event>
 4    1  0.5943823E+000  0.1000000E+03  0.7546771E-02  0.1280296E+00
         21   -1    0    0  503  502  0.00000000000E+00  0.00000000000E+00  0.74546826130E+03  0.74546826130E+03  0.00000000000E+00 0.  1.
         21   -1    0    0  501  503 -0.00000000000E+00 -0.00000000000E+00 -0.59260111806E+02  0.59260111806E+02  0.00000000000E+00 0. -1.
          6    1    1    2  501    0  0.49427616284E+02 -0.16400122938E+01  0.13513594894E+03  0.22502556208E+03  0.17300000000E+03 0. -1.
         -6    1    1    2    0  502 -0.49427616284E+02  0.16400122938E+01  0.55107220055E+03  0.57970281103E+03  0.17300000000E+03 0. -1.
</event>
<event>
 4    1  0.5943823E+000  0.1000000E+03  0.7546771E-02  0.1280296E+00
         21   -1    0    0  501  502  0.00000000000E+00  0.00000000000E+00  0.11133464027E+04  0.11133464027E+04  0.00000000000E+00 0.  1.
         21   -1    0    0  502  503 -0.00000000000E+00 -0.00000000000E+00 -0.17052726915E+03  0.17052726915E+03  0.00000000000E+00 0.  1.
          6    1    1    2  501    0 -0.17301927529E+03  0.99513294083E+02  0.98195062461E+03  0.10168552476E+04  0.17300000000E+03 0.  1.
         -6    1    1    2    0  503  0.17301927529E+03 -0.99513294083E+02 -0.39131491054E+02  0.26701842430E+03  0.17300000000E+03 0.  1.
</event>
<event>
 4    1  0.5943823E+000  0.1000000E+03  0.7546771E-02  0.1280296E+00
         21   -1    0    0  501  502  0.00000000000E+00  0.00000000000E+00  0.47807877367E+03  0.47807877367E+03  0.00000000000E+00 0.  1.
         21   -1    0    0  502  503 -0.00000000000E+00 -0.00000000000E+00 -0.19253717087E+03  0.19253717087E+03  0.00000000000E+00 0.  1.
          6    1    1    2  501    0  0.61285487927E+02  0.22632348844E+03  0.23616229318E+03  0.37507314109E+03  0.17300000000E+03 0.  1.
         -6    1    1    2    0  503 -0.61285487927E+02 -0.22632348844E+03  0.49379309610E+02  0.29554280344E+03  0.17300000000E+03 0.  1.
</event>
<event>
 4    1  0.5943823E+000  0.1000000E+03  0.7546771E-02  0.1280296E+00
         21   -1    0    0  503  502  0.00000000000E+00  0.00000000000E+00  0.12726606342E+03  0.12726606342E+03  0.00000000000E+00 0.  1.
         21   -1    0    0  501  503 -0.00000000000E+00 -0.00000000000E+00 -0.12935225310E+04  0.12935225310E+04  0.00000000000E+00 0.  1.
          6    1    1    2  501    0  0.15389073739E+03  0.13129980791E+03 -0.11192819599E+04  0.11504968946E+04  0.17300000000E+03 0.  1.
         -6    1    1    2    0  502 -0.15389073739E+03 -0.13129980791E+03 -0.46974507601E+02  0.27029169979E+03  0.17300000000E+03 0.  1.
</event>
<event>
 4    1  0.5943823E+000  0.1000000E+03  0.7546771E-02  0.1280296E+00
         21   -1    0    0  501  502  0.00000000000E+00  0.00000000000E+00  0.35317378034E+03  0.35317378034E+03  0.00000000000E+00 0.  1.
         21   -1    0    0  502  503 -0.00000000000E+00 -0.00000000000E+00 -0.17328809090E+03  0.17328809090E+03  0.00000000000E+00 0.  1.
          6    1    1    2  501    0 -0.14168305062E+03  0.10321639691E+03  0.11476258290E+03  0.27171154164E+03  0.17300000000E+03 0.  1.
         -6    1    1    2    0  503  0.14168305062E+03 -0.10321639691E+03  0.65123106543E+02  0.25475032960E+03  0.17300000000E+03 0.  1.
</event>
<event>
 4    1  0.5943823E+000  0.1000000E+03  0.7546771E-02  0.1280296E+00
         21   -1    0    0  501  502  0.00000000000E+00  0.00000000000E+00  0.12982304535E+03  0.12982304535E+03  0.00000000000E+00 0.  1.
         21   -1    0    0  502  503 -0.00000000000E+00 -0.00000000000E+00 -0.39626923467E+03  0.39626923467E+03  0.00000000000E+00 0.  1.
          6    1    1    2  501    0 -0.42959696175E+02 -0.10103347638E+03 -0.20408408236E+02  0.20590969373E+03  0.17300000000E+03 0.  1.
         -6    1    1    2    0  503  0.42959696175E+02  0.10103347638E+03 -0.24603778108E+03  0.32018258629E+03  0.17300000000E+03 0.  1.
</event>
<event>
 4    1  0.5943823E+000  0.1000000E+03  0.7546771E-02  0.1280296E+00
         21   -1    0    0  501  502  0.00000000000E+00  0.00000000000E+00  0.54702631554E+02  0.54702631554E+02  0.00000000000E+00 0.  1.
         21   -1    0    0  502  503 -0.00000000000E+00 -0.00000000000E+00 -0.12733807818E+04  0.12733807818E+04  0.00000000000E+00 0.  1.
          6    1    1    2  501    0 -0.30534354366E+02 -0.82770485157E+02 -0.15964888842E+03  0.25139623621E+03  0.17300000000E+03 0.  1.
         -6    1    1    2    0  503  0.30534354366E+02  0.82770485157E+02 -0.10590292618E+04  0.10766871771E+04  0.17300000000E+03 0.  1.
</event>
<event>
 4    1  0.5943823E+000  0.1000000E+03  0.7546771E-02  0.1280296E+00
         21   -1    0    0  501  502  0.00000000000E+00  0.00000000000E+00  0.10685145939E+03  0.10685145939E+03  0.00000000000E+00 0.  1.
         21   -1    0    0  502  503 -0.00000000000E+00 -0.00000000000E+00 -0.32797888127E+03  0.32797888127E+03  0.00000000000E+00 0.  1.
          6    1    1    2  501    0 -0.56089264263E+02 -0.35586380570E+01 -0.59181686308E+02  0.19128549727E+03  0.17300000000E+03 0.  1.
         -6    1    1    2    0  503  0.56089264263E+02  0.35586380570E+01 -0.16194573557E+03  0.24354484339E+03  0.17300000000E+03 0.  1.
</event>
<event>
 4    1  0.5943823E+000  0.1000000E+03  0.7546771E-02  0.1280296E+00
         21   -1    0    0  501  502  0.00000000000E+00  0.00000000000E+00  0.25200422992E+04  0.25200422992E+04  0.00000000000E+00 0.  1.
         21   -1    0    0  502  503 -0.00000000000E+00 -0.00000000000E+00 -0.29800038205E+02  0.29800038205E+02  0.00000000000E+00 0. -1.
          6    1    1    2  501    0 -0.10805818701E+02  0.15020186599E+03  0.54741056782E+03  0.59351890958E+03  0.17300000000E+03 0.  1.
         -6    1    1    2    0  503  0.10805818701E+02 -0.15020186599E+03  0.19428316931E+04  0.19563234278E+04  0.17300000000E+03 0. -1.
</event>
<event>
 4    1  0.5943823E+000  0.1000000E+03  0.7546771E-02  0.1280296E+00
         21   -1    0    0  501  502  0.00000000000E+00  0.00000000000E+00  0.13609227644E+04  0.13609227644E+04  0.00000000000E+00 0. -1.
         21   -1    0    0  502  503 -0.00000000000E+00 -0.00000000000E+00 -0.30232324561E+02  0.30232324561E+02  0.00000000000E+00 0. -1.
          6    1    1    2  501    0 -0.58818509412E+02 -0.83901593520E+02  0.75708930002E+03  0.78333409389E+03  0.17300000000E+03 0. -1.
         -6    1    1    2    0  503  0.58818509412E+02  0.83901593520E+02  0.57360113978E+03  0.60782099503E+03  0.17300000000E+03 0. -1.
</event>
<event>
 4    1  0.5943823E+000  0.1000000E+03  0.7546771E-02  0.1280296E+00
         21   -1    0    0  501  502  0.00000000000E+00  0.00000000000E+00  0.17928851537E+04  0.17928851537E+04  0.00000000000E+00 0. -1.
         21   -1    0    0  502  503 -0.00000000000E+00 -0.00000000000E+00 -0.24409142001E+02  0.24409142001E+02  0.00000000000E+00 0. -1.
          6    1    1    2  501    0  0.65562883709E+01 -0.30993917730E+02  0.13762312708E+04  0.13874239145E+04  0.17300000000E+03 0. -1.
         -6    1    1    2    0  503 -0.65562883709E+01  0.30993917730E+02  0.39224474088E+03  0.42987038117E+03  0.17300000000E+03 0. -1.
</event>
<event>
 4    1  0.5943823E+000  0.1000000E+03  0.7546771E-02  0.1280296E+00
         21   -1    0    0  501  502  0.00000000000E+00  0.00000000000E+00  0.24766087072E+04  0.24766087072E+04  0.00000000000E+00 0. -1.
         21   -1    0    0  502  503 -0.00000000000E+00 -0.00000000000E+00 -0.85210073291E+02  0.85210073291E+02  0.00000000000E+00 0. -1.
          6    1    1    2  501    0 -0.17226338112E+03 -0.18233082688E+02  0.22795527817E+04  0.22926615542E+04  0.17300000000E+03 0. -1.
         -6    1    1    2    0  503  0.17226338112E+03  0.18233082688E+02  0.11184585220E+03  0.26915722624E+03  0.17300000000E+03 0. -1.
</event>
<event>
 4    1  0.5943823E+000  0.1000000E+03  0.7546771E-02  0.1280296E+00
         21   -1    0    0  503  502  0.00000000000E+00  0.00000000000E+00  0.16908325232E+03  0.16908325232E+03  0.00000000000E+00 0.  1.
         21   -1    0    0  501  503 -0.00000000000E+00 -0.00000000000E+00 -0.43282047076E+03  0.43282047076E+03  0.00000000000E+00 0.  1.
          6    1    1    2  501    0 -0.56572980385E+02 -0.93632385645E+01 -0.35426901631E+03  0.39840144110E+03  0.17300000000E+03 0. -1.
         -6    1    1    2    0  502  0.56572980385E+02  0.93632385645E+01  0.90531797880E+02  0.20350228199E+03  0.17300000000E+03 0. -1.
</event>
<event>
 4    1  0.5943823E+000  0.1000000E+03  0.7546771E-02  0.1280296E+00
         21   -1    0    0  503  502  0.00000000000E+00  0.00000000000E+00  0.40975333059E+03  0.40975333059E+03  0.00000000000E+00 0.  1.
         21   -1    0    0  501  503 -0.00000000000E+00 -0.00000000000E+00 -0.85352605781E+02  0.85352605781E+02  0.00000000000E+00 0.  1.
          6    1    1    2  501    0 -0.36095289819E+02  0.59799781957E+02  0.14516431584E+03  0.23639069876E+03  0.17300000000E+03 0. -1.
         -6    1    1    2    0  502  0.36095289819E+02 -0.59799781957E+02  0.17923640897E+03  0.25871523761E+03  0.17300000000E+03 0. -1.
</event>
<event>
 4    1  0.5943823E+000  0.1000000E+03  0.7546771E-02  0.1280296E+00
         21   -1    0    0  501  502  0.00000000000E+00  0.00000000000E+00  0.21697713681E+03  0.21697713681E+03  0.00000000000E+00 0. -1.
         21   -1    0    0  502  503 -0.00000000000E+00 -0.00000000000E+00 -0.46681312178E+03  0.46681312178E+03  0.00000000000E+00 0. -1.
          6    1    1    2  501    0 -0.21481795536E+03 -0.15860913958E+03 -0.11693928821E+03  0.33897995550E+03  0.17300000000E+03 0. -1.
         -6    1    1    2    0  503  0.21481795536E+03  0.15860913958E+03 -0.13289669676E+03  0.34481030309E+03  0.17300000000E+03 0. -1.
</event>
<event>
 4    1  0.5943823E+000  0.1000000E+03  0.7546771E-02  0.1280296E+00
         21   -1    0    0  501  502  0.00000000000E+00  0.00000000000E+00  0.28159272333E+03  0.28159272333E+03  0.00000000000E+00 0. -1.
         21   -1    0    0  502  503 -0.00000000000E+00 -0.00000000000E+00 -0.13811685547E+03  0.13811685547E+03  0.00000000000E+00 0.  1.
          6    1    1    2  501    0 -0.12234457823E+01  0.91971860685E+02  0.95612388161E+02  0.21801616625E+03  0.17300000000E+03 0. -1.
         -6    1    1    2    0  503  0.12234457823E+01 -0.91971860685E+02  0.47863479697E+02  0.20169341255E+03  0.17300000000E+03 0.  1.
</event>
<event>
 4    1  0.5943823E+000  0.1000000E+03  0.7546771E-02  0.1280296E+00
         21   -1    0    0  501  502  0.00000000000E+00  0.00000000000E+00  0.24034202622E+03  0.24034202622E+03  0.00000000000E+00 0. -1.
         21   -1    0    0  502  503 -0.00000000000E+00 -0.00000000000E+00 -0.21908602915E+03  0.21908602915E+03  0.00000000000E+00 0.  1.
          6    1    1    2  501    0 -0.13383439227E+03  0.44276524179E+02  0.64113028327E+02  0.23218857756E+03  0.17300000000E+03 0. -1.
         -6    1    1    2    0  503  0.13383439227E+03 -0.44276524179E+02 -0.42857031253E+02  0.22723947781E+03  0.17300000000E+03 0.  1.
</event>
<event>
 4    1  0.5943823E+000  0.1000000E+03  0.7546771E-02  0.1280296E+00
         21   -1    0    0  501  502  0.00000000000E+00  0.00000000000E+00  0.62806852099E+03  0.62806852099E+03  0.00000000000E+00 0. -1.
         21   -1    0    0  502  503 -0.00000000000E+00 -0.00000000000E+00 -0.23465898474E+03  0.23465898474E+03  0.00000000000E+00 0. -1.
          6    1    1    2  501    0  0.38982151485E+02  0.20573774472E+02  0.57858870931E+03  0.60550539458E+03  0.17300000000E+03 0. -1.
         -6    1    1    2    0  503 -0.38982151485E+02 -0.20573774472E+02 -0.18517917306E+03  0.25722211115E+03  0.17300000000E+03 0. -1.
</event>
<event>
 4    1  0.5943823E+000  0.1000000E+03  0.7546771E-02  0.1280296E+00
         21   -1    0    0  503  502  0.00000000000E+00  0.00000000000E+00  0.41262208056E+02  0.41262208056E+02  0.00000000000E+00 0. -1.
         21   -1    0    0  501  503 -0.00000000000E+00 -0.00000000000E+00 -0.19266290605E+04  0.19266290605E+04  0.00000000000E+00 0. -1.
          6    1    1    2  501    0  0.18476057459E+02 -0.36467744691E+02 -0.17064289010E+04  0.17156630950E+04  0.17300000000E+03 0. -1.
         -6    1    1    2    0  502 -0.18476057459E+02  0.36467744691E+02 -0.17893795140E+03  0.25222817359E+03  0.17300000000E+03 0. -1.
</event>
<event>
 4    1  0.5943823E+000  0.1000000E+03  0.7546771E-02  0.1280296E+00
         21   -1    0    0  503  502  0.00000000000E+00  0.00000000000E+00  0.25249840246E+03  0.25249840246E+03  0.00000000000E+00 0. -1.
         21   -1    0    0  501  503 -0.00000000000E+00 -0.00000000000E+00 -0.25495651459E+03  0.25495651459E+03  0.00000000000E+00 0. -1.
          6    1    1    2  501    0  0.71740663309E+02  0.27727371114E+02 -0.17014398211E+03  0.25454568260E+03  0.17300000000E+03 0. -1.
         -6    1    1    2    0  502 -0.71740663309E+02 -0.27727371114E+02  0.16768586998E+03  0.25290923445E+03  0.17300000000E+03 0. -1.
</event>
<event>
 4    1  0.5943823E+000  0.1000000E+03  0.7546771E-02  0.1280296E+00
         21   -1    0    0  503  502  0.00000000000E+00  0.00000000000E+00  0.67424509593E+02  0.67424509593E+02  0.00000000000E+00 0. -1.
         21   -1    0    0  501  503 -0.00000000000E+00 -0.00000000000E+00 -0.63294470499E+03  0.63294470499E+03  0.00000000000E+00 0. -1.
          6    1    1    2  501    0 -0.53510256015E+02 -0.87595008760E+02 -0.36246323327E+03  0.41454170904E+03  0.17300000000E+03 0. -1.
         -6    1    1    2    0  502  0.53510256015E+02  0.87595008760E+02 -0.20305696212E+03  0.28582750554E+03  0.17300000000E+03 0. -1.
</event>
<event>
 4    1  0.5943823E+000  0.1000000E+03  0.7546771E-02  0.1280296E+00
         21   -1    0    0  501  502  0.00000000000E+00  0.00000000000E+00  0.12496255166E+04  0.12496255166E+04  0.00000000000E+00 0.  1.
         21   -1    0    0  502  503 -0.00000000000E+00 -0.00000000000E+00 -0.51696386104E+02  0.51696386104E+02  0.00000000000E+00 0. -1.
          6    1    1    2  501    0 -0.13436832685E+03 -0.49487429561E+02  0.29425006208E+03  0.37015665870E+03  0.17300000000E+03 0. -1.
         -6    1    1    2    0  503  0.13436832685E+03  0.49487429561E+02  0.90367906845E+03  0.93116524403E+03  0.17300000000E+03 0.  1.
</event>
<event>
 4    1  0.5943823E+000  0.1000000E+03  0.7546771E-02  0.1280296E+00
         21   -1    0    0  501  502  0.00000000000E+00  0.00000000000E+00  0.13672548777E+03  0.13672548777E+03  0.00000000000E+00 0.  1.
         21   -1    0    0  502  503 -0.00000000000E+00 -0.00000000000E+00 -0.33069783556E+03  0.33069783556E+03  0.00000000000E+00 0. -1.
          6    1    1    2  501    0 -0.79165441448E+02 -0.30615348672E+02 -0.19579189463E+03  0.27471427465E+03  0.17300000000E+03 0. -1.
         -6    1    1    2    0  503  0.79165441448E+02  0.30615348672E+02  0.18195468431E+01  0.19270904868E+03  0.17300000000E+03 0.  1.
</event>
<event>
 4    1  0.5943823E+000  0.1000000E+03  0.7546771E-02  0.1280296E+00
         21   -1    0    0  503  502  0.00000000000E+00  0.00000000000E+00  0.85743176567E+03  0.85743176567E+03  0.00000000000E+00 0.  1.
         21   -1    0    0  501  503 -0.00000000000E+00 -0.00000000000E+00 -0.72964560499E+02  0.72964560499E+02  0.00000000000E+00 0. -1.
          6    1    1    2  501    0 -0.33960941626E+02  0.12821761852E+03  0.16414344064E+03  0.27288307452E+03  0.17300000000E+03 0.  1.
         -6    1    1    2    0  502  0.33960941626E+02 -0.12821761852E+03  0.62032376453E+03  0.65751325165E+03  0.17300000000E+03 0. -1.
</event>
<event>
 4    1  0.5943823E+000  0.1000000E+03  0.7546771E-02  0.1280296E+00
         21   -1    0    0  503  502  0.00000000000E+00  0.00000000000E+00  0.39412940616E+03  0.39412940616E+03  0.00000000000E+00 0.  1.
         21   -1    0    0  501  503 -0.00000000000E+00 -0.00000000000E+00 -0.10049930256E+03  0.10049930256E+03  0.00000000000E+00 0. -1.
          6    1    1    2  501    0 -0.28726110922E+02 -0.48443193935E+02  0.46561729033E+02  0.18780023189E+03  0.17300000000E+03 0.  1.
         -6    1    1    2    0  502  0.28726110922E+02  0.48443193935E+02  0.24706837457E+03  0.30682847684E+03  0.17300000000E+03 0. -1.
</event>
<event>
 4    1  0.5943823E+000  0.1000000E+03  0.7546771E-02  0.1280296E+00
         21   -1    0    0  503  502  0.00000000000E+00  0.00000000000E+00  0.36596471064E+03  0.36596471064E+03  0.00000000000E+00 0.  1.
         21   -1    0    0  501  503 -0.00000000000E+00 -0.00000000000E+00 -0.53308840756E+03  0.53308840756E+03  0.00000000000E+00 0. -1.
          6    1    1    2  501    0 -0.13647105242E+03 -0.22726136152E+03 -0.39706898511E+03  0.50780395186E+03  0.17300000000E+03 0.  1.
         -6    1    1    2    0  502  0.13647105242E+03  0.22726136152E+03  0.22994528820E+03  0.39124916633E+03  0.17300000000E+03 0. -1.
</event>
<event>
 4    1  0.5943823E+000  0.1000000E+03  0.7546771E-02  0.1280296E+00
         21   -1    0    0  501  502  0.00000000000E+00  0.00000000000E+00  0.20656219709E+03  0.20656219709E+03  0.00000000000E+00 0. -1.
         21   -1    0    0  502  503 -0.00000000000E+00 -0.00000000000E+00 -0.45944392116E+03  0.45944392116E+03  0.00000000000E+00 0. -1.
          6    1    1    2  501    0  0.19180401797E+02 -0.24472577345E+03 -0.52207261509E+02  0.30481665007E+03  0.17300000000E+03 0. -1.
         -6    1    1    2    0  503 -0.19180401797E+02  0.24472577345E+03 -0.20067446256E+03  0.36118946819E+03  0.17300000000E+03 0. -1.
</event>
<event>
 4    1  0.5943823E+000  0.1000000E+03  0.7546771E-02  0.1280296E+00
         21   -1    0    0  501  502  0.00000000000E+00  0.00000000000E+00  0.11057978701E+04  0.11057978701E+04  0.00000000000E+00 0. -1.
         21   -1    0    0  502  503 -0.00000000000E+00 -0.00000000000E+00 -0.10733800124E+03  0.10733800124E+03  0.00000000000E+00 0. -1.
          6    1    1    2  501    0 -0.18925458313E+01 -0.24621503124E+01  0.10237503947E+04  0.10382694807E+04  0.17300000000E+03 0. -1.
         -6    1    1    2    0  503  0.18925458313E+01  0.24621503124E+01 -0.25290525746E+02  0.17486639073E+03  0.17300000000E+03 0. -1.
</event>
<event>
 4    1  0.5943823E+000  0.1000000E+03  0.7546771E-02  0.1280296E+00
         21   -1    0    0  501  502  0.00000000000E+00  0.00000000000E+00  0.30866124595E+03  0.30866124595E+03  0.00000000000E+00 0. -1.
         21   -1    0    0  502  503 -0.00000000000E+00 -0.00000000000E+00 -0.15628910952E+03  0.15628910952E+03  0.00000000000E+00 0. -1.
          6    1    1    2  501    0 -0.13099132395E+03  0.31962953713E+02  0.88302173318E+02  0.23644583137E+03  0.17300000000E+03 0. -1.
         -6    1    1    2    0  503  0.13099132395E+03 -0.31962953713E+02  0.64069963114E+02  0.22850452410E+03  0.17300000000E+03 0. -1.
</event>
<event>
 4    1  0.5943823E+000  0.1000000E+03  0.7546771E-02  0.1280296E+00
         21   -1    0    0  503  502  0.00000000000E+00  0.00000000000E+00  0.26397872075E+03  0.26397872075E+03  0.00000000000E+00 0. -1.
         21   -1    0    0  501  503 -0.00000000000E+00 -0.00000000000E+00 -0.14930651232E+03  0.14930651232E+03  0.00000000000E+00 0.  1.
          6    1    1    2  501    0  0.67790942861E+02  0.68072079180E+02  0.73967946796E+02  0.21125737159E+03  0.17300000000E+03 0.  1.
         -6    1    1    2    0  502 -0.67790942861E+02 -0.68072079180E+02  0.40704261631E+02  0.20202786148E+03  0.17300000000E+03 0. -1.
</event>
<event>
 4    1  0.5943823E+000  0.1000000E+03  0.7546771E-02  0.1280296E+00
         21   -1    0    0  503  502  0.00000000000E+00  0.00000000000E+00  0.22522090858E+03  0.22522090858E+03  0.00000000000E+00 0. -1.
         21   -1    0    0  501  503 -0.00000000000E+00 -0.00000000000E+00 -0.46085899964E+03  0.46085899964E+03  0.00000000000E+00 0.  1.
          6    1    1    2  501    0  0.95597184752E+02 -0.90624965554E+02 -0.37094448026E+03  0.42997734074E+03  0.17300000000E+03 0.  1.
         -6    1    1    2    0  502 -0.95597184752E+02  0.90624965554E+02  0.13530638920E+03  0.25610256748E+03  0.17300000000E+03 0. -1.
</event>
<event>
 4    1  0.5943823E+000  0.1000000E+03  0.7546771E-02  0.1280296E+00
         21   -1    0    0  501  502  0.00000000000E+00  0.00000000000E+00  0.24216438002E+03  0.24216438002E+03  0.00000000000E+00 0.  1.
         21   -1    0    0  502  503 -0.00000000000E+00 -0.00000000000E+00 -0.50421497509E+03  0.50421497509E+03  0.00000000000E+00 0.  1.
          6    1    1    2  501    0 -0.28729252767E+03  0.60335779349E+02 -0.48323359078E+02  0.34415338115E+03  0.17300000000E+03 0.  1.
         -6    1    1    2    0  503  0.28729252767E+03 -0.60335779349E+02 -0.21372723599E+03  0.40222597396E+03  0.17300000000E+03 0.  1.
</event>
<event>
 4    1  0.5943823E+000  0.1000000E+03  0.7546771E-02  0.1280296E+00
         21   -1    0    0  501  502  0.00000000000E+00  0.00000000000E+00  0.23468228491E+03  0.23468228491E+03  0.00000000000E+00 0.  1.
         21   -1    0    0  502  503 -0.00000000000E+00 -0.00000000000E+00 -0.20689061287E+03  0.20689061287E+03  0.00000000000E+00 0.  1.
          6    1    1    2  501    0 -0.10246826066E+03  0.88902981743E+02 -0.10023638632E+01  0.21984878744E+03  0.17300000000E+03 0.  1.
         -6    1    1    2    0  503  0.10246826066E+03 -0.88902981743E+02  0.28794035907E+02  0.22172411035E+03  0.17300000000E+03 0.  1.
</event>
<event>
 4    1  0.5943823E+000  0.1000000E+03  0.7546771E-02  0.1280296E+00
         21   -1    0    0  503  502  0.00000000000E+00  0.00000000000E+00  0.96118430161E+02  0.96118430161E+02  0.00000000000E+00 0. -1.
         21   -1    0    0  501  503 -0.00000000000E+00 -0.00000000000E+00 -0.44286039096E+03  0.44286039096E+03  0.00000000000E+00 0. -1.
          6    1    1    2  501    0  0.96937482996E+02 -0.48600774148E+02 -0.21209965746E+03  0.29440478181E+03  0.17300000000E+03 0. -1.
         -6    1    1    2    0  502 -0.96937482996E+02  0.48600774148E+02 -0.13464230334E+03  0.24457403931E+03  0.17300000000E+03 0. -1.
</event>
<event>
 4    1  0.5943823E+000  0.1000000E+03  0.7546771E-02  0.1280296E+00
         21   -1    0    0  501  502  0.00000000000E+00  0.00000000000E+00  0.38765493524E+03  0.38765493524E+03  0.00000000000E+00 0.  1.
         21   -1    0    0  502  503 -0.00000000000E+00 -0.00000000000E+00 -0.89498403280E+02  0.89498403280E+02  0.00000000000E+00 0.  1.
          6    1    1    2  501    0  0.32759222736E+02  0.54474412852E+02  0.18356305327E+03  0.26012501390E+03  0.17300000000E+03 0.  1.
         -6    1    1    2    0  503 -0.32759222736E+02 -0.54474412852E+02  0.11459347869E+03  0.21702832462E+03  0.17300000000E+03 0.  1.
</event>
<event>
 4    1  0.5943823E+000  0.1000000E+03  0.7546771E-02  0.1280296E+00
         21   -1    0    0  501  502  0.00000000000E+00  0.00000000000E+00  0.20397548555E+03  0.20397548555E+03  0.00000000000E+00 0.  1.
         21   -1    0    0  502  503 -0.00000000000E+00 -0.00000000000E+00 -0.33542273350E+03  0.33542273350E+03  0.00000000000E+00 0.  1.
          6    1    1    2  501    0  0.40313521602E+02  0.15375515300E+03  0.52842974663E+02  0.24080533023E+03  0.17300000000E+03 0.  1.
         -6    1    1    2    0  503 -0.40313521602E+02 -0.15375515300E+03 -0.18429022262E+03  0.29859288882E+03  0.17300000000E+03 0.  1.
</event>
<event>
 4    1  0.5943823E+000  0.1000000E+03  0.7546771E-02  0.1280296E+00
         21   -1    0    0  501  502  0.00000000000E+00  0.00000000000E+00  0.10996587532E+03  0.10996587532E+03  0.00000000000E+00 0.  1.
         21   -1    0    0  502  503 -0.00000000000E+00 -0.00000000000E+00 -0.76618331924E+03  0.76618331924E+03  0.00000000000E+00 0.  1.
          6    1    1    2  501    0  0.16214269554E+02  0.26676323599E+02  0.20486929288E+02  0.17698373668E+03  0.17300000000E+03 0.  1.
         -6    1    1    2    0  503 -0.16214269554E+02 -0.26676323599E+02 -0.67670437321E+03  0.69916545789E+03  0.17300000000E+03 0.  1.
</event>
<event>
 4    1  0.5943823E+000  0.1000000E+03  0.7546771E-02  0.1280296E+00
         21   -1    0    0  501  502  0.00000000000E+00  0.00000000000E+00  0.13416356012E+03  0.13416356012E+03  0.00000000000E+00 0.  1.
         21   -1    0    0  502  503 -0.00000000000E+00 -0.00000000000E+00 -0.29631400543E+03  0.29631400543E+03  0.00000000000E+00 0.  1.
          6    1    1    2  501    0  0.58353668729E+02 -0.70135632795E+02 -0.12290379840E+03  0.23099459150E+03  0.17300000000E+03 0.  1.
         -6    1    1    2    0  503 -0.58353668729E+02  0.70135632795E+02 -0.39246646917E+02  0.19948297405E+03  0.17300000000E+03 0.  1.
</event>
<event>
 4    1  0.5943823E+000  0.1000000E+03  0.7546771E-02  0.1280296E+00
         21   -1    0    0  501  502  0.00000000000E+00  0.00000000000E+00  0.13914555207E+03  0.13914555207E+03  0.00000000000E+00 0.  1.
         21   -1    0    0  502  503 -0.00000000000E+00 -0.00000000000E+00 -0.39495813918E+03  0.39495813918E+03  0.00000000000E+00 0. -1.
          6    1    1    2  501    0 -0.10663724363E+03  0.55476840648E+02 -0.10741492696E+02  0.21093496923E+03  0.17300000000E+03 0.  1.
         -6    1    1    2    0  503  0.10663724363E+03 -0.55476840648E+02 -0.24507109441E+03  0.32316872202E+03  0.17300000000E+03 0. -1.
</event>
<event>
 4    1  0.5943823E+000  0.1000000E+03  0.7546771E-02  0.1280296E+00
         21   -1    0    0  501  502  0.00000000000E+00  0.00000000000E+00  0.99314315814E+03  0.99314315814E+03  0.00000000000E+00 0. -1.
         21   -1    0    0  502  503 -0.00000000000E+00 -0.00000000000E+00 -0.21540473638E+03  0.21540473638E+03  0.00000000000E+00 0.  1.
          6    1    1    2  501    0  0.45207132707E+02 -0.33810134075E+02  0.94440732452E+03  0.96178012280E+03  0.17300000000E+03 0. -1.
         -6    1    1    2    0  503 -0.45207132707E+02  0.33810134075E+02 -0.16666890276E+03  0.24676777172E+03  0.17300000000E+03 0.  1.
</event>
<event>
 4    1  0.5943823E+000  0.1000000E+03  0.7546771E-02  0.1280296E+00
         21   -1    0    0  501  502  0.00000000000E+00  0.00000000000E+00  0.79538157307E+03  0.79538157307E+03  0.00000000000E+00 0. -1.
         21   -1    0    0  502  503 -0.00000000000E+00 -0.00000000000E+00 -0.26314311753E+03  0.26314311753E+03  0.00000000000E+00 0.  1.
          6    1    1    2  501    0  0.58999681663E+02 -0.40472465843E+03  0.39330825184E+03  0.59321445746E+03  0.17300000000E+03 0. -1.
         -6    1    1    2    0  503 -0.58999681663E+02  0.40472465843E+03  0.13893020370E+03  0.46531023315E+03  0.17300000000E+03 0.  1.
</event>
<event>
 4    1  0.5943823E+000  0.1000000E+03  0.7546771E-02  0.1280296E+00
         21   -1    0    0  501  502  0.00000000000E+00  0.00000000000E+00  0.54390047387E+03  0.54390047387E+03  0.00000000000E+00 0. -1.
         21   -1    0    0  502  503 -0.00000000000E+00 -0.00000000000E+00 -0.12772565766E+03  0.12772565766E+03  0.00000000000E+00 0.  1.
          6    1    1    2  501    0  0.16723530751E+03  0.90530907015E+02  0.28213310974E+03  0.38169567042E+03  0.17300000000E+03 0. -1.
         -6    1    1    2    0  503 -0.16723530751E+03 -0.90530907015E+02  0.13404170647E+03  0.28993046111E+03  0.17300000000E+03 0.  1.
</event>
<event>
 4    1  0.5943823E+000  0.1000000E+03  0.7546771E-02  0.1280296E+00
         21   -1    0    0  501  502  0.00000000000E+00  0.00000000000E+00  0.13576359589E+04  0.13576359589E+04  0.00000000000E+00 0. -1.
         21   -1    0    0  502  503 -0.00000000000E+00 -0.00000000000E+00 -0.11432998320E+03  0.11432998320E+03  0.00000000000E+00 0. -1.
          6    1    1    2  501    0 -0.21854845848E+02  0.54222422479E+01  0.12815448974E+04  0.12933651298E+04  0.17300000000E+03 0. -1.
         -6    1    1    2    0  503  0.21854845848E+02 -0.54222422479E+01 -0.38238921734E+02  0.17860081224E+03  0.17300000000E+03 0. -1.
</event>
<event>
 4    1  0.5943823E+000  0.1000000E+03  0.7546771E-02  0.1280296E+00
         21   -1    0    0  501  502  0.00000000000E+00  0.00000000000E+00  0.16886346249E+03  0.16886346249E+03  0.00000000000E+00 0. -1.
         21   -1    0    0  502  503 -0.00000000000E+00 -0.00000000000E+00 -0.48589252174E+03  0.48589252174E+03  0.00000000000E+00 0. -1.
          6    1    1    2  501    0 -0.10301741221E+02 -0.82892228259E+02  0.84318591097E+02  0.20979960005E+03  0.17300000000E+03 0. -1.
         -6    1    1    2    0  503  0.10301741221E+02  0.82892228259E+02 -0.40134765035E+03  0.44495638417E+03  0.17300000000E+03 0. -1.
</event>
<event>
 4    1  0.5943823E+000  0.1000000E+03  0.7546771E-02  0.1280296E+00
         21   -1    0    0  503  502  0.00000000000E+00  0.00000000000E+00  0.13188706621E+03  0.13188706621E+03  0.00000000000E+00 0. -1.
         21   -1    0    0  501  503 -0.00000000000E+00 -0.00000000000E+00 -0.55300396793E+03  0.55300396793E+03  0.00000000000E+00 0.  1.
          6    1    1    2  501    0  0.17342902113E+03 -0.40800810908E+02 -0.34512845794E+03  0.42518817484E+03  0.17300000000E+03 0. -1.
         -6    1    1    2    0  502 -0.17342902113E+03  0.40800810908E+02 -0.75988443783E+02  0.25970285930E+03  0.17300000000E+03 0.  1.
</event>
<event>
 4    1  0.5943823E+000  0.1000000E+03  0.7546771E-02  0.1280296E+00
         21   -1    0    0  503  502  0.00000000000E+00  0.00000000000E+00  0.47671194338E+03  0.47671194338E+03  0.00000000000E+00 0. -1.
         21   -1    0    0  501  503 -0.00000000000E+00 -0.00000000000E+00 -0.19413432670E+03  0.19413432670E+03  0.00000000000E+00 0.  1.
          6    1    1    2  501    0  0.24091682207E+02 -0.19012831700E+02 -0.13253380323E+03  0.22008204361E+03  0.17300000000E+03 0. -1.
         -6    1    1    2    0  502 -0.24091682207E+02  0.19012831700E+02  0.41511141991E+03  0.45076422647E+03  0.17300000000E+03 0.  1.
</event>
<event>
 4    1  0.5943823E+000  0.1000000E+03  0.7546771E-02  0.1280296E+00
         21   -1    0    0  501  502  0.00000000000E+00  0.00000000000E+00  0.40180857393E+02  0.40180857393E+02  0.00000000000E+00 0.  1.
         21   -1    0    0  502  503 -0.00000000000E+00 -0.00000000000E+00 -0.95031627082E+03  0.95031627082E+03  0.00000000000E+00 0.  1.
          6    1    1    2  501    0  0.24133490757E+02  0.83496712667E+02 -0.52218914169E+03  0.55692425527E+03  0.17300000000E+03 0.  1.
         -6    1    1    2    0  503 -0.24133490757E+02 -0.83496712667E+02 -0.38794627173E+03  0.43357287294E+03  0.17300000000E+03 0.  1.
</event>
<event>
 4    1  0.5943823E+000  0.1000000E+03  0.7546771E-02  0.1280296E+00
         21   -1    0    0  501  502  0.00000000000E+00  0.00000000000E+00  0.32823936673E+02  0.32823936673E+02  0.00000000000E+00 0. -1.
         21   -1    0    0  502  503 -0.00000000000E+00 -0.00000000000E+00 -0.91377149017E+03  0.91377149017E+03  0.00000000000E+00 0. -1.
          6    1    1    2  501    0 -0.79073678595E+01 -0.14284702071E+01 -0.44019330045E+03  0.47303668859E+03  0.17300000000E+03 0. -1.
         -6    1    1    2    0  503  0.79073678595E+01  0.14284702071E+01 -0.44075425305E+03  0.47355873825E+03  0.17300000000E+03 0. -1.
</event>
<event>
 4    1  0.5943823E+000  0.1000000E+03  0.7546771E-02  0.1280296E+00
         21   -1    0    0  501  502  0.00000000000E+00  0.00000000000E+00  0.45483677460E+03  0.45483677460E+03  0.00000000000E+00 0. -1.
         21   -1    0    0  502  503 -0.00000000000E+00 -0.00000000000E+00 -0.66640992337E+03  0.66640992337E+03  0.00000000000E+00 0. -1.
          6    1    1    2  501    0  0.50438881113E+02 -0.41838750517E+02  0.42223940680E+03  0.46098772047E+03  0.17300000000E+03 0. -1.
         -6    1    1    2    0  503 -0.50438881113E+02  0.41838750517E+02 -0.63381255557E+03  0.66025897750E+03  0.17300000000E+03 0. -1.
</event>
<event>
 4    1  0.5943823E+000  0.1000000E+03  0.7546771E-02  0.1280296E+00
         21   -1    0    0  501  502  0.00000000000E+00  0.00000000000E+00  0.15070436854E+04  0.15070436854E+04  0.00000000000E+00 0. -1.
         21   -1    0    0  502  503 -0.00000000000E+00 -0.00000000000E+00 -0.70486546688E+02  0.70486546688E+02  0.00000000000E+00 0. -1.
          6    1    1    2  501    0 -0.18164244447E+02 -0.26287124698E+03  0.51774556507E+03  0.60615237558E+03  0.17300000000E+03 0. -1.
         -6    1    1    2    0  503  0.18164244447E+02  0.26287124698E+03  0.91881157362E+03  0.97137785649E+03  0.17300000000E+03 0. -1.
</event>
<event>
 4    1  0.5943823E+000  0.1000000E+03  0.7546771E-02  0.1280296E+00
         21   -1    0    0  501  502  0.00000000000E+00  0.00000000000E+00  0.91064657375E+03  0.91064657375E+03  0.00000000000E+00 0. -1.
         21   -1    0    0  502  503 -0.00000000000E+00 -0.00000000000E+00 -0.43886760109E+02  0.43886760109E+02  0.00000000000E+00 0. -1.
          6    1    1    2  501    0 -0.39627842635E+02  0.31665302447E+02  0.63962517985E+03  0.66454678390E+03  0.17300000000E+03 0. -1.
         -6    1    1    2    0  503  0.39627842635E+02 -0.31665302447E+02  0.22713463379E+03  0.28998654996E+03  0.17300000000E+03 0. -1.
</event>
<event>
 4    1  0.5943823E+000  0.1000000E+03  0.7546771E-02  0.1280296E+00
         21   -1    0    0  501  502  0.00000000000E+00  0.00000000000E+00  0.13588562490E+04  0.13588562490E+04  0.00000000000E+00 0. -1.
         21   -1    0    0  502  503 -0.00000000000E+00 -0.00000000000E+00 -0.42626894942E+02  0.42626894942E+02  0.00000000000E+00 0. -1.
          6    1    1    2  501    0 -0.55319070581E+02  0.72252850303E+02  0.10669216444E+04  0.10846803535E+04  0.17300000000E+03 0. -1.
         -6    1    1    2    0  503  0.55319070581E+02 -0.72252850303E+02  0.24930770966E+03  0.31680279046E+03  0.17300000000E+03 0. -1.
</event>
<event>
 4    1  0.5943823E+000  0.1000000E+03  0.7546771E-02  0.1280296E+00
         21   -1    0    0  503  502  0.00000000000E+00  0.00000000000E+00  0.24865953985E+03  0.24865953985E+03  0.00000000000E+00 0.  1.
         21   -1    0    0  501  503 -0.00000000000E+00 -0.00000000000E+00 -0.15733138052E+03  0.15733138052E+03  0.00000000000E+00 0. -1.
          6    1    1    2  501    0  0.60978618002E+02  0.36735106878E+02 -0.20252207085E+02  0.18816751001E+03  0.17300000000E+03 0. -1.
         -6    1    1    2    0  502 -0.60978618002E+02 -0.36735106878E+02  0.11158036642E+03  0.21782341036E+03  0.17300000000E+03 0.  1.
</event>
<event>
 4    1  0.5943823E+000  0.1000000E+03  0.7546771E-02  0.1280296E+00
         21   -1    0    0  501  502  0.00000000000E+00  0.00000000000E+00  0.42942520741E+03  0.42942520741E+03  0.00000000000E+00 0.  1.
         21   -1    0    0  502  503 -0.00000000000E+00 -0.00000000000E+00 -0.12482909455E+03  0.12482909455E+03  0.00000000000E+00 0. -1.
          6    1    1    2  501    0 -0.79344206033E+02  0.98689574857E+01  0.30965474642E+03  0.36360412723E+03  0.17300000000E+03 0. -1.
         -6    1    1    2    0  503  0.79344206033E+02 -0.98689574857E+01 -0.50586335580E+01  0.19065017473E+03  0.17300000000E+03 0.  1.
</event>
<event>
 4    1  0.5943823E+000  0.1000000E+03  0.7546771E-02  0.1280296E+00
         21   -1    0    0  503  502  0.00000000000E+00  0.00000000000E+00  0.97367032434E+02  0.97367032434E+02  0.00000000000E+00 0. -1.
         21   -1    0    0  501  503 -0.00000000000E+00 -0.00000000000E+00 -0.77723027741E+03  0.77723027741E+03  0.00000000000E+00 0. -1.
          6    1    1    2  501    0 -0.17478051594E+02 -0.41342907588E+02 -0.67236252992E+03  0.69571193028E+03  0.17300000000E+03 0. -1.
         -6    1    1    2    0  502  0.17478051594E+02  0.41342907588E+02 -0.75007150570E+01  0.17888537956E+03  0.17300000000E+03 0. -1.
</event>
<event>
 4    1  0.5943823E+000  0.1000000E+03  0.7546771E-02  0.1280296E+00
         21   -1    0    0  503  502  0.00000000000E+00  0.00000000000E+00  0.96573586052E+02  0.96573586052E+02  0.00000000000E+00 0.  1.
         21   -1    0    0  501  503 -0.00000000000E+00 -0.00000000000E+00 -0.35259874575E+03  0.35259874575E+03  0.00000000000E+00 0. -1.
          6    1    1    2  501    0 -0.24459020565E+02 -0.18060456282E+02 -0.19684184682E+03  0.26381837773E+03  0.17300000000E+03 0. -1.
         -6    1    1    2    0  502  0.24459020565E+02  0.18060456282E+02 -0.59183312881E+02  0.18535395408E+03  0.17300000000E+03 0.  1.
</event>
<event>
 4    1  0.5943823E+000  0.1000000E+03  0.7546771E-02  0.1280296E+00
         21   -1    0    0  503  502  0.00000000000E+00  0.00000000000E+00  0.70959358048E+02  0.70959358048E+02  0.00000000000E+00 0.  1.
         21   -1    0    0  501  503 -0.00000000000E+00 -0.00000000000E+00 -0.89496206382E+03  0.89496206382E+03  0.00000000000E+00 0. -1.
          6    1    1    2  501    0 -0.56773606334E+02 -0.39545637287E+02 -0.73718165349E+03  0.76036365645E+03  0.17300000000E+03 0. -1.
         -6    1    1    2    0  502  0.56773606334E+02  0.39545637287E+02 -0.86821052280E+02  0.20555776542E+03  0.17300000000E+03 0.  1.
</event>
<event>
 4    1  0.5943823E+000  0.1000000E+03  0.7546771E-02  0.1280296E+00
         21   -1    0    0  501  502  0.00000000000E+00  0.00000000000E+00  0.20640721047E+03  0.20640721047E+03  0.00000000000E+00 0.  1.
         21   -1    0    0  502  503 -0.00000000000E+00 -0.00000000000E+00 -0.34155397632E+03  0.34155397632E+03  0.00000000000E+00 0. -1.
          6    1    1    2  501    0  0.16177602328E+03  0.85587424872E+02  0.19211747403E+02  0.25257628599E+03  0.17300000000E+03 0. -1.
         -6    1    1    2    0  503 -0.16177602328E+03 -0.85587424872E+02 -0.15435851326E+03  0.29538490080E+03  0.17300000000E+03 0. -1.
</event>
<event>
 4    1  0.5943823E+000  0.1000000E+03  0.7546771E-02  0.1280296E+00
         21   -1    0    0  501  502  0.00000000000E+00  0.00000000000E+00  0.58177078356E+02  0.58177078356E+02  0.00000000000E+00 0.  1.
         21   -1    0    0  502  503 -0.00000000000E+00 -0.00000000000E+00 -0.11244670712E+04  0.11244670712E+04  0.00000000000E+00 0. -1.
          6    1    1    2  501    0  0.26508884338E+02  0.14556581532E+03 -0.26355882213E+03  0.34825907061E+03  0.17300000000E+03 0. -1.
         -6    1    1    2    0  503 -0.26508884338E+02 -0.14556581532E+03 -0.80273117075E+03  0.83438507898E+03  0.17300000000E+03 0. -1.
</event>
<event>
 4    1  0.5943823E+000  0.1000000E+03  0.7546771E-02  0.1280296E+00
         21   -1    0    0  503  502  0.00000000000E+00  0.00000000000E+00  0.14660051147E+04  0.14660051147E+04  0.00000000000E+00 0. -1.
         21   -1    0    0  501  503 -0.00000000000E+00 -0.00000000000E+00 -0.24819301458E+03  0.24819301458E+03  0.00000000000E+00 0.  1.
          6    1    1    2  501    0  0.79503954033E+02 -0.85062773008E+02 -0.19534598427E+03  0.28573695531E+03  0.17300000000E+03 0.  1.
         -6    1    1    2    0  502 -0.79503954033E+02  0.85062773008E+02  0.14131580844E+04  0.14284611740E+04  0.17300000000E+03 0. -1.
</event>
<event>
 4    1  0.5943823E+000  0.1000000E+03  0.7546771E-02  0.1280296E+00
         21   -1    0    0  503  502  0.00000000000E+00  0.00000000000E+00  0.85395685460E+02  0.85395685460E+02  0.00000000000E+00 0. -1.
         21   -1    0    0  501  503 -0.00000000000E+00 -0.00000000000E+00 -0.36130498795E+03  0.36130498795E+03  0.00000000000E+00 0.  1.
          6    1    1    2  501    0  0.15046158757E+01  0.28344776724E+02 -0.12407226595E+03  0.21477573749E+03  0.17300000000E+03 0.  1.
         -6    1    1    2    0  502 -0.15046158757E+01 -0.28344776724E+02 -0.15183703655E+03  0.23192493592E+03  0.17300000000E+03 0. -1.
</event>
<event>
 4    1  0.5943823E+000  0.1000000E+03  0.7546771E-02  0.1280296E+00
         21   -1    0    0  501  502  0.00000000000E+00  0.00000000000E+00  0.10337741848E+03  0.10337741848E+03  0.00000000000E+00 0.  1.
         21   -1    0    0  502  503 -0.00000000000E+00 -0.00000000000E+00 -0.41917973834E+03  0.41917973834E+03  0.00000000000E+00 0. -1.
          6    1    1    2  501    0 -0.45495247904E+01  0.81121889577E+02 -0.54375177886E+02  0.19871366112E+03  0.17300000000E+03 0. -1.
         -6    1    1    2    0  503  0.45495247904E+01 -0.81121889577E+02 -0.26142714198E+03  0.32384349570E+03  0.17300000000E+03 0. -1.
</event>
<event>
 4    1  0.5943823E+000  0.1000000E+03  0.7546771E-02  0.1280296E+00
         21   -1    0    0  501  502  0.00000000000E+00  0.00000000000E+00  0.29235595968E+02  0.29235595968E+02  0.00000000000E+00 0.  1.
         21   -1    0    0  502  503 -0.00000000000E+00 -0.00000000000E+00 -0.10933857619E+04  0.10933857619E+04  0.00000000000E+00 0.  1.
          6    1    1    2  501    0  0.43828380811E+01 -0.44290668838E+02 -0.50859972709E+03  0.53905802565E+03  0.17300000000E+03 0.  1.
         -6    1    1    2    0  503 -0.43828380811E+01  0.44290668838E+02 -0.55555043881E+03  0.58356333219E+03  0.17300000000E+03 0.  1.
</event>
<event>
 4    1  0.5943823E+000  0.1000000E+03  0.7546771E-02  0.1280296E+00
         21   -1    0    0  501  502  0.00000000000E+00  0.00000000000E+00  0.72277935448E+03  0.72277935448E+03  0.00000000000E+00 0.  1.
         21   -1    0    0  502  503 -0.00000000000E+00 -0.00000000000E+00 -0.10130430093E+04  0.10130430093E+04  0.00000000000E+00 0.  1.
          6    1    1    2  501    0 -0.22049702296E+03 -0.45851022260E+03  0.53028137318E+03  0.75496880472E+03  0.17300000000E+03 0.  1.
         -6    1    1    2    0  503  0.22049702296E+03  0.45851022260E+03 -0.82054502804E+03  0.98085355910E+03  0.17300000000E+03 0.  1.
</event>
<event>
 4    1  0.5943823E+000  0.1000000E+03  0.7546771E-02  0.1280296E+00
         21   -1    0    0  501  502  0.00000000000E+00  0.00000000000E+00  0.36846402063E+03  0.36846402063E+03  0.00000000000E+00 0.  1.
         21   -1    0    0  502  503 -0.00000000000E+00 -0.00000000000E+00 -0.20680263805E+03  0.20680263805E+03  0.00000000000E+00 0.  1.
          6    1    1    2  501    0  0.11337746074E+03  0.13251639006E+03  0.21203579002E+03  0.32450457391E+03  0.17300000000E+03 0.  1.
         -6    1    1    2    0  503 -0.11337746074E+03 -0.13251639006E+03 -0.50374407447E+02  0.25076208478E+03  0.17300000000E+03 0.  1.
</event>
<event>
 4    1  0.5943823E+000  0.1000000E+03  0.7546771E-02  0.1280296E+00
         21   -1    0    0  501  502  0.00000000000E+00  0.00000000000E+00  0.88715958711E+02  0.88715958711E+02  0.00000000000E+00 0.  1.
         21   -1    0    0  502  503 -0.00000000000E+00 -0.00000000000E+00 -0.57609052922E+03  0.57609052922E+03  0.00000000000E+00 0.  1.
          6    1    1    2  501    0  0.12684058236E+03 -0.67803926285E+02 -0.27635136619E+03  0.35634952413E+03  0.17300000000E+03 0.  1.
         -6    1    1    2    0  503 -0.12684058236E+03  0.67803926285E+02 -0.21102320431E+03  0.30845696379E+03  0.17300000000E+03 0.  1.
</event>
<event>
 4    1  0.5943823E+000  0.1000000E+03  0.7546771E-02  0.1280296E+00
         21   -1    0    0  501  502  0.00000000000E+00  0.00000000000E+00  0.11947740775E+03  0.11947740775E+03  0.00000000000E+00 0.  1.
         21   -1    0    0  502  503 -0.00000000000E+00 -0.00000000000E+00 -0.45884143315E+03  0.45884143315E+03  0.00000000000E+00 0.  1.
          6    1    1    2  501    0 -0.81474896191E+02 -0.39185643883E+02 -0.99978146143E+01  0.19545493008E+03  0.17300000000E+03 0.  1.
         -6    1    1    2    0  503  0.81474896191E+02  0.39185643883E+02 -0.32936621079E+03  0.38286391082E+03  0.17300000000E+03 0.  1.
</event>
<event>
 4    1  0.5943823E+000  0.1000000E+03  0.7546771E-02  0.1280296E+00
         21   -1    0    0  503  502  0.00000000000E+00  0.00000000000E+00  0.38900978286E+02  0.38900978286E+02  0.00000000000E+00 0. -1.
         21   -1    0    0  501  503 -0.00000000000E+00 -0.00000000000E+00 -0.19047731479E+04  0.19047731479E+04  0.00000000000E+00 0. -1.
          6    1    1    2  501    0 -0.45825845673E+02 -0.12076175002E+03 -0.15248253557E+04  0.15400340170E+04  0.17300000000E+03 0.  1.
         -6    1    1    2    0  502  0.45825845673E+02  0.12076175002E+03 -0.34104681397E+03  0.40364010915E+03  0.17300000000E+03 0.  1.
</event>
<event>
 4    1  0.5943823E+000  0.1000000E+03  0.7546771E-02  0.1280296E+00
         21   -1    0    0  503  502  0.00000000000E+00  0.00000000000E+00  0.20311697999E+03  0.20311697999E+03  0.00000000000E+00 0. -1.
         21   -1    0    0  501  503 -0.00000000000E+00 -0.00000000000E+00 -0.23539943613E+03  0.23539943613E+03  0.00000000000E+00 0. -1.
          6    1    1    2  501    0  0.61175825727E+02 -0.53300718211E+02 -0.12273745271E+03  0.22710554928E+03  0.17300000000E+03 0.  1.
         -6    1    1    2    0  502 -0.61175825727E+02  0.53300718211E+02  0.90454996574E+02  0.21141086685E+03  0.17300000000E+03 0.  1.
</event>
<event>
 4    1  0.5943823E+000  0.1000000E+03  0.7546771E-02  0.1280296E+00
         21   -1    0    0  501  502  0.00000000000E+00  0.00000000000E+00  0.49826420195E+03  0.49826420195E+03  0.00000000000E+00 0. -1.
         21   -1    0    0  502  503 -0.00000000000E+00 -0.00000000000E+00 -0.12935649377E+03  0.12935649377E+03  0.00000000000E+00 0.  1.
          6    1    1    2  501    0  0.91565557521E+01 -0.13121704156E+03  0.34667114371E+03  0.40915967103E+03  0.17300000000E+03 0.  1.
         -6    1    1    2    0  503 -0.91565557521E+01  0.13121704156E+03  0.22236564466E+02  0.21846102469E+03  0.17300000000E+03 0.  1.
</event>
<event>
 4    1  0.5943823E+000  0.1000000E+03  0.7546771E-02  0.1280296E+00
         21   -1    0    0  501  502  0.00000000000E+00  0.00000000000E+00  0.12192466300E+03  0.12192466300E+03  0.00000000000E+00 0. -1.
         21   -1    0    0  502  503 -0.00000000000E+00 -0.00000000000E+00 -0.41313392097E+03  0.41313392097E+03  0.00000000000E+00 0.  1.
          6    1    1    2  501    0  0.14191408426E+03 -0.15261937720E+01 -0.16626040575E+03  0.27877133837E+03  0.17300000000E+03 0.  1.
         -6    1    1    2    0  503 -0.14191408426E+03  0.15261937720E+01 -0.12494885223E+03  0.25628724559E+03  0.17300000000E+03 0.  1.
</event>
<event>
 4    1  0.5943823E+000  0.1000000E+03  0.7546771E-02  0.1280296E+00
         21   -1    0    0  501  502  0.00000000000E+00  0.00000000000E+00  0.16209454885E+03  0.16209454885E+03  0.00000000000E+00 0. -1.
         21   -1    0    0  502  503 -0.00000000000E+00 -0.00000000000E+00 -0.87774460662E+03  0.87774460662E+03  0.00000000000E+00 0.  1.
          6    1    1    2  501    0 -0.78595030449E+02  0.15593703143E+03  0.36533010312E+02  0.24850995438E+03  0.17300000000E+03 0.  1.
         -6    1    1    2    0  503  0.78595030449E+02 -0.15593703143E+03 -0.75218306808E+03  0.79132920109E+03  0.17300000000E+03 0.  1.
</event>
<event>
 4    1  0.5943823E+000  0.1000000E+03  0.7546771E-02  0.1280296E+00
         21   -1    0    0  503  502  0.00000000000E+00  0.00000000000E+00  0.11815773811E+04  0.11815773811E+04  0.00000000000E+00 0.  1.
         21   -1    0    0  501  503 -0.00000000000E+00 -0.00000000000E+00 -0.36760858992E+02  0.36760858992E+02  0.00000000000E+00 0. -1.
          6    1    1    2  501    0  0.11159103353E+03 -0.32196985815E+02  0.56014780602E+03  0.59764853321E+03  0.17300000000E+03 0. -1.
         -6    1    1    2    0  502 -0.11159103353E+03  0.32196985815E+02  0.58466871614E+03  0.62068970693E+03  0.17300000000E+03 0.  1.
</event>
<event>
 4    1  0.5943823E+000  0.1000000E+03  0.7546771E-02  0.1280296E+00
         21   -1    0    0  503  502  0.00000000000E+00  0.00000000000E+00  0.21765773429E+03  0.21765773429E+03  0.00000000000E+00 0.  1.
         21   -1    0    0  501  503 -0.00000000000E+00 -0.00000000000E+00 -0.33448411673E+03  0.33448411673E+03  0.00000000000E+00 0. -1.
          6    1    1    2  501    0  0.96073463958E+02  0.17084917953E+03 -0.12670136001E+03  0.29051985690E+03  0.17300000000E+03 0. -1.
         -6    1    1    2    0  502 -0.96073463958E+02 -0.17084917953E+03  0.98749775692E+01  0.26162199412E+03  0.17300000000E+03 0.  1.
</event>
<event>
 4    1  0.5943823E+000  0.1000000E+03  0.7546771E-02  0.1280296E+00
         21   -1    0    0  503  502  0.00000000000E+00  0.00000000000E+00  0.70168019445E+03  0.70168019445E+03  0.00000000000E+00 0.  1.
         21   -1    0    0  501  503 -0.00000000000E+00 -0.00000000000E+00 -0.15942260528E+03  0.15942260528E+03  0.00000000000E+00 0.  1.
          6    1    1    2  501    0  0.91078885568E+02  0.55770709117E+02 -0.70743693215E+02  0.21526589493E+03  0.17300000000E+03 0.  1.
         -6    1    1    2    0  502 -0.91078885568E+02 -0.55770709117E+02  0.61300128239E+03  0.64583690480E+03  0.17300000000E+03 0.  1.
</event>
<event>
 4    1  0.5943823E+000  0.1000000E+03  0.7546771E-02  0.1280296E+00
         21   -1    0    0  503  502  0.00000000000E+00  0.00000000000E+00  0.51610798778E+03  0.51610798778E+03  0.00000000000E+00 0.  1.
         21   -1    0    0  501  503 -0.00000000000E+00 -0.00000000000E+00 -0.36381537883E+03  0.36381537883E+03  0.00000000000E+00 0.  1.
          6    1    1    2  501    0  0.83047677317E+02  0.18134150070E+02 -0.31788945899E+03  0.37176400074E+03  0.17300000000E+03 0.  1.
         -6    1    1    2    0  502 -0.83047677317E+02 -0.18134150070E+02  0.47018206795E+03  0.50815936588E+03  0.17300000000E+03 0.  1.
</event>
<event>
 4    1  0.5943823E+000  0.1000000E+03  0.7546771E-02  0.1280296E+00
         21   -1    0    0  503  502  0.00000000000E+00  0.00000000000E+00  0.83348378603E+02  0.83348378603E+02  0.00000000000E+00 0.  1.
         21   -1    0    0  501  503 -0.00000000000E+00 -0.00000000000E+00 -0.43544221842E+03  0.43544221842E+03  0.00000000000E+00 0.  1.
          6    1    1    2  501    0  0.49939717342E+00 -0.60123613259E+02 -0.24744058633E+03  0.30784889480E+03  0.17300000000E+03 0.  1.
         -6    1    1    2    0  502 -0.49939717342E+00  0.60123613259E+02 -0.10465325349E+03  0.21094170222E+03  0.17300000000E+03 0.  1.
</event>
<event>
 4    1  0.5943823E+000  0.1000000E+03  0.7546771E-02  0.1280296E+00
         21   -1    0    0  501  502  0.00000000000E+00  0.00000000000E+00  0.86500282848E+03  0.86500282848E+03  0.00000000000E+00 0.  1.
         21   -1    0    0  502  503 -0.00000000000E+00 -0.00000000000E+00 -0.65514361777E+02  0.65514361777E+02  0.00000000000E+00 0.  1.
          6    1    1    2  501    0  0.15488971401E+03 -0.37633244553E+02  0.47112794853E+03  0.52659057007E+03  0.17300000000E+03 0.  1.
         -6    1    1    2    0  503 -0.15488971401E+03  0.37633244553E+02  0.32836051817E+03  0.40392662019E+03  0.17300000000E+03 0.  1.
</event>
<event>
 4    1  0.5943823E+000  0.1000000E+03  0.7546771E-02  0.1280296E+00
         21   -1    0    0  501  502  0.00000000000E+00  0.00000000000E+00  0.49811166200E+02  0.49811166200E+02  0.00000000000E+00 0.  1.
         21   -1    0    0  502  503 -0.00000000000E+00 -0.00000000000E+00 -0.71854839859E+03  0.71854839859E+03  0.00000000000E+00 0.  1.
          6    1    1    2  501    0 -0.40556267993E+02 -0.58948031443E+02 -0.27901412478E+03  0.33600232605E+03  0.17300000000E+03 0.  1.
         -6    1    1    2    0  503  0.40556267993E+02  0.58948031443E+02 -0.38972310761E+03  0.43235723874E+03  0.17300000000E+03 0.  1.
</event>
<event>
 4    1  0.5943823E+000  0.1000000E+03  0.7546771E-02  0.1280296E+00
         21   -1    0    0  501  502  0.00000000000E+00  0.00000000000E+00  0.70680289490E+03  0.70680289490E+03  0.00000000000E+00 0.  1.
         21   -1    0    0  502  503 -0.00000000000E+00 -0.00000000000E+00 -0.32809359146E+03  0.32809359146E+03  0.00000000000E+00 0.  1.
          6    1    1    2  501    0 -0.15075814424E+03  0.15967030945E+03  0.61068293976E+03  0.67162882509E+03  0.17300000000E+03 0.  1.
         -6    1    1    2    0  503  0.15075814424E+03 -0.15967030945E+03 -0.23197363633E+03  0.36326766127E+03  0.17300000000E+03 0.  1.
</event>
<event>
 4    1  0.5943823E+000  0.1000000E+03  0.7546771E-02  0.1280296E+00
         21   -1    0    0  503  502  0.00000000000E+00  0.00000000000E+00  0.56898214064E+02  0.56898214064E+02  0.00000000000E+00 0.  1.
         21   -1    0    0  501  503 -0.00000000000E+00 -0.00000000000E+00 -0.69317284283E+03  0.69317284283E+03  0.00000000000E+00 0.  1.
          6    1    1    2  501    0  0.65789904442E+02  0.71913696193E+02 -0.31175966283E+03  0.36962545718E+03  0.17300000000E+03 0.  1.
         -6    1    1    2    0  502 -0.65789904442E+02 -0.71913696193E+02 -0.32451496594E+03  0.38044559972E+03  0.17300000000E+03 0.  1.
</event>
<event>
 4    1  0.5943823E+000  0.1000000E+03  0.7546771E-02  0.1280296E+00
         21   -1    0    0  501  502  0.00000000000E+00  0.00000000000E+00  0.33459191403E+03  0.33459191403E+03  0.00000000000E+00 0.  1.
         21   -1    0    0  502  503 -0.00000000000E+00 -0.00000000000E+00 -0.53246758772E+03  0.53246758772E+03  0.00000000000E+00 0.  1.
          6    1    1    2  501    0 -0.26302252418E+03 -0.64022285429E+02  0.18225373113E+03  0.36935771789E+03  0.17300000000E+03 0.  1.
         -6    1    1    2    0  503  0.26302252418E+03  0.64022285429E+02 -0.38012940481E+03  0.49770178386E+03  0.17300000000E+03 0.  1.
</event>
<event>
 4    1  0.5943823E+000  0.1000000E+03  0.7546771E-02  0.1280296E+00
         21   -1    0    0  501  502  0.00000000000E+00  0.00000000000E+00  0.79274726504E+02  0.79274726504E+02  0.00000000000E+00 0. -1.
         21   -1    0    0  502  503 -0.00000000000E+00 -0.00000000000E+00 -0.62036973596E+03  0.62036973596E+03  0.00000000000E+00 0. -1.
          6    1    1    2  501    0  0.68918253825E+02  0.12899527544E+02 -0.81684772050E+02  0.20375849800E+03  0.17300000000E+03 0. -1.
         -6    1    1    2    0  503 -0.68918253825E+02 -0.12899527544E+02 -0.45941023741E+03  0.49588596447E+03  0.17300000000E+03 0. -1.
</event>
<event>
 4    1  0.5943823E+000  0.1000000E+03  0.7546771E-02  0.1280296E+00
         21   -1    0    0  501  502  0.00000000000E+00  0.00000000000E+00  0.69293041396E+02  0.69293041396E+02  0.00000000000E+00 0. -1.
         21   -1    0    0  502  503 -0.00000000000E+00 -0.00000000000E+00 -0.56730425227E+03  0.56730425227E+03  0.00000000000E+00 0. -1.
          6    1    1    2  501    0  0.14920174523E+02  0.91362862255E+02 -0.20327429983E+03  0.28252296398E+03  0.17300000000E+03 0. -1.
         -6    1    1    2    0  503 -0.14920174523E+02 -0.91362862255E+02 -0.29473691105E+03  0.35407432968E+03  0.17300000000E+03 0. -1.
</event>
<event>
 4    1  0.5943823E+000  0.1000000E+03  0.7546771E-02  0.1280296E+00
         21   -1    0    0  501  502  0.00000000000E+00  0.00000000000E+00  0.86719215831E+03  0.86719215831E+03  0.00000000000E+00 0. -1.
         21   -1    0    0  502  503 -0.00000000000E+00 -0.00000000000E+00 -0.11084224983E+03  0.11084224983E+03  0.00000000000E+00 0. -1.
          6    1    1    2  501    0  0.26629657877E+02 -0.26062674788E+02  0.77970230855E+03  0.79953304600E+03  0.17300000000E+03 0. -1.
         -6    1    1    2    0  503 -0.26629657877E+02  0.26062674788E+02 -0.23352400060E+02  0.17850136214E+03  0.17300000000E+03 0. -1.
</event>
<event>
 4    1  0.5943823E+000  0.1000000E+03  0.7546771E-02  0.1280296E+00
         21   -1    0    0  501  502  0.00000000000E+00  0.00000000000E+00  0.79561966749E+02  0.79561966749E+02  0.00000000000E+00 0. -1.
         21   -1    0    0  502  503 -0.00000000000E+00 -0.00000000000E+00 -0.10478239733E+04  0.10478239733E+04  0.00000000000E+00 0. -1.
          6    1    1    2  501    0  0.12627629051E+03  0.41580379921E+02 -0.85333341658E+03  0.88078462146E+03  0.17300000000E+03 0. -1.
         -6    1    1    2    0  503 -0.12627629051E+03 -0.41580379921E+02 -0.11492858997E+03  0.24660131859E+03  0.17300000000E+03 0. -1.
</event>
<event>
 4    1  0.5943823E+000  0.1000000E+03  0.7546771E-02  0.1280296E+00
         21   -1    0    0  501  502  0.00000000000E+00  0.00000000000E+00  0.30794195468E+03  0.30794195468E+03  0.00000000000E+00 0. -1.
         21   -1    0    0  502  503 -0.00000000000E+00 -0.00000000000E+00 -0.16276839503E+03  0.16276839503E+03  0.00000000000E+00 0. -1.
          6    1    1    2  501    0 -0.11122038200E+03 -0.25056183558E+02 -0.16592280866E+02  0.20785112338E+03  0.17300000000E+03 0. -1.
         -6    1    1    2    0  503  0.11122038200E+03  0.25056183558E+02  0.16176584052E+03  0.26285922633E+03  0.17300000000E+03 0. -1.
</event>
<event>
 4    1  0.5943823E+000  0.1000000E+03  0.7546771E-02  0.1280296E+00
         21   -1    0    0  501  502  0.00000000000E+00  0.00000000000E+00  0.67886761233E+02  0.67886761233E+02  0.00000000000E+00 0. -1.
         21   -1    0    0  502  503 -0.00000000000E+00 -0.00000000000E+00 -0.61614195926E+03  0.61614195926E+03  0.00000000000E+00 0. -1.
          6    1    1    2  501    0  0.20778379299E+02  0.16314146248E+02 -0.97141318662E+02  0.20015825790E+03  0.17300000000E+03 0. -1.
         -6    1    1    2    0  503 -0.20778379299E+02 -0.16314146248E+02 -0.45111387936E+03  0.48387046259E+03  0.17300000000E+03 0. -1.
</event>
<event>
 4    1  0.5943823E+000  0.1000000E+03  0.7546771E-02  0.1280296E+00
         21   -1    0    0  501  502  0.00000000000E+00  0.00000000000E+00  0.24017325626E+03  0.24017325626E+03  0.00000000000E+00 0. -1.
         21   -1    0    0  502  503 -0.00000000000E+00 -0.00000000000E+00 -0.47345506272E+03  0.47345506272E+03  0.00000000000E+00 0. -1.
          6    1    1    2  501    0 -0.20242615290E+03  0.66063307587E+02  0.90822138711E+02  0.28899544783E+03  0.17300000000E+03 0. -1.
         -6    1    1    2    0  503  0.20242615290E+03 -0.66063307587E+02 -0.32410394517E+03  0.42463287115E+03  0.17300000000E+03 0. -1.
</event>
<event>
 4    1  0.5943823E+000  0.1000000E+03  0.7546771E-02  0.1280296E+00
         21   -1    0    0  501  502  0.00000000000E+00  0.00000000000E+00  0.64981937264E+03  0.64981937264E+03  0.00000000000E+00 0. -1.
         21   -1    0    0  502  503 -0.00000000000E+00 -0.00000000000E+00 -0.18945414074E+03  0.18945414074E+03  0.00000000000E+00 0.  1.
          6    1    1    2  501    0 -0.98643848696E+02  0.27721622399E+02  0.57408320896E+03  0.60827594729E+03  0.17300000000E+03 0. -1.
         -6    1    1    2    0  503  0.98643848696E+02 -0.27721622399E+02 -0.11371797706E+03  0.23099756609E+03  0.17300000000E+03 0.  1.
</event>
<event>
 4    1  0.5943823E+000  0.1000000E+03  0.7546771E-02  0.1280296E+00
         21   -1    0    0  501  502  0.00000000000E+00  0.00000000000E+00  0.29715262379E+02  0.29715262379E+02  0.00000000000E+00 0. -1.
         21   -1    0    0  502  503 -0.00000000000E+00 -0.00000000000E+00 -0.18063308872E+04  0.18063308872E+04  0.00000000000E+00 0.  1.
          6    1    1    2  501    0  0.26493041354E+02  0.10222578129E+03 -0.44361774570E+03  0.48772707112E+03  0.17300000000E+03 0. -1.
         -6    1    1    2    0  503 -0.26493041354E+02 -0.10222578129E+03 -0.13329978791E+04  0.13483190784E+04  0.17300000000E+03 0.  1.
</event>
<event>
 4    1  0.5943823E+000  0.1000000E+03  0.7546771E-02  0.1280296E+00
         21   -1    0    0  501  502  0.00000000000E+00  0.00000000000E+00  0.89556010897E+03  0.89556010897E+03  0.00000000000E+00 0. -1.
         21   -1    0    0  502  503 -0.00000000000E+00 -0.00000000000E+00 -0.12069279458E+03  0.12069279458E+03  0.00000000000E+00 0.  1.
          6    1    1    2  501    0 -0.14719433608E+03 -0.23626338771E+03  0.42750167927E+03  0.53867731224E+03  0.17300000000E+03 0. -1.
         -6    1    1    2    0  503  0.14719433608E+03  0.23626338771E+03  0.34736563512E+03  0.47757559131E+03  0.17300000000E+03 0.  1.
</event>
<event>
 4    1  0.5943823E+000  0.1000000E+03  0.7546771E-02  0.1280296E+00
         21   -1    0    0  501  502  0.00000000000E+00  0.00000000000E+00  0.12132094759E+03  0.12132094759E+03  0.00000000000E+00 0.  1.
         21   -1    0    0  502  503 -0.00000000000E+00 -0.00000000000E+00 -0.34705212096E+03  0.34705212096E+03  0.00000000000E+00 0. -1.
          6    1    1    2  501    0  0.90966218036E+02  0.16593430166E+02 -0.44146010567E+02  0.20106731459E+03  0.17300000000E+03 0.  1.
         -6    1    1    2    0  503 -0.90966218036E+02 -0.16593430166E+02 -0.18158516281E+03  0.26730575396E+03  0.17300000000E+03 0.  1.
</event>
<event>
 4    1  0.5943823E+000  0.1000000E+03  0.7546771E-02  0.1280296E+00
         21   -1    0    0  501  502  0.00000000000E+00  0.00000000000E+00  0.21578285198E+04  0.21578285198E+04  0.00000000000E+00 0.  1.
         21   -1    0    0  502  503 -0.00000000000E+00 -0.00000000000E+00 -0.68622815885E+02  0.68622815885E+02  0.00000000000E+00 0. -1.
          6    1    1    2  501    0  0.15404367090E+03 -0.35127370379E+02  0.19277048855E+04  0.19418904476E+04  0.17300000000E+03 0.  1.
         -6    1    1    2    0  503 -0.15404367090E+03  0.35127370379E+02  0.16150081835E+03  0.28456088808E+03  0.17300000000E+03 0.  1.
</event>
<event>
 4    1  0.5943823E+000  0.1000000E+03  0.7546771E-02  0.1280296E+00
         21   -1    0    0  501  502  0.00000000000E+00  0.00000000000E+00  0.14090384579E+03  0.14090384579E+03  0.00000000000E+00 0.  1.
         21   -1    0    0  502  503 -0.00000000000E+00 -0.00000000000E+00 -0.58380306550E+03  0.58380306550E+03  0.00000000000E+00 0. -1.
          6    1    1    2  501    0  0.38354286946E+01 -0.15517352227E+02  0.66857221450E+02  0.18615688758E+03  0.17300000000E+03 0.  1.
         -6    1    1    2    0  503 -0.38354286946E+01  0.15517352227E+02 -0.50975644116E+03  0.53855002371E+03  0.17300000000E+03 0.  1.
</event>
<event>
 4    1  0.5943823E+000  0.1000000E+03  0.7546771E-02  0.1280296E+00
         21   -1    0    0  501  502  0.00000000000E+00  0.00000000000E+00  0.11117987950E+04  0.11117987950E+04  0.00000000000E+00 0.  1.
         21   -1    0    0  502  503 -0.00000000000E+00 -0.00000000000E+00 -0.31146787268E+02  0.31146787268E+02  0.00000000000E+00 0. -1.
          6    1    1    2  501    0 -0.10606313458E+02 -0.70959553884E-01  0.74832538952E+03  0.76813565698E+03  0.17300000000E+03 0.  1.
         -6    1    1    2    0  503  0.10606313458E+02  0.70959553884E-01  0.33232661817E+03  0.37480992525E+03  0.17300000000E+03 0. -1.
</event>
<event>
 4    1  0.5943823E+000  0.1000000E+03  0.7546771E-02  0.1280296E+00
         21   -1    0    0  501  502  0.00000000000E+00  0.00000000000E+00  0.61315865622E+03  0.61315865622E+03  0.00000000000E+00 0.  1.
         21   -1    0    0  502  503 -0.00000000000E+00 -0.00000000000E+00 -0.13972830339E+03  0.13972830339E+03  0.00000000000E+00 0. -1.
          6    1    1    2  501    0 -0.83504792384E+02  0.55392391430E+02  0.51166548120E+03  0.54933772128E+03  0.17300000000E+03 0.  1.
         -6    1    1    2    0  503  0.83504792384E+02 -0.55392391430E+02 -0.38235128367E+02  0.20354923832E+03  0.17300000000E+03 0. -1.
</event>
<event>
 4    1  0.5943823E+000  0.1000000E+03  0.7546771E-02  0.1280296E+00
         21   -1    0    0  503  502  0.00000000000E+00  0.00000000000E+00  0.68051529946E+02  0.68051529946E+02  0.00000000000E+00 0.  1.
         21   -1    0    0  501  503 -0.00000000000E+00 -0.00000000000E+00 -0.59075475042E+03  0.59075475042E+03  0.00000000000E+00 0.  1.
          6    1    1    2  501    0 -0.69115876700E+02  0.72746585639E+02 -0.28479901500E+03  0.34800653597E+03  0.17300000000E+03 0.  1.
         -6    1    1    2    0  502  0.69115876700E+02 -0.72746585639E+02 -0.23790420548E+03  0.31079974440E+03  0.17300000000E+03 0.  1.
</event>
<event>
 4    1  0.5943823E+000  0.1000000E+03  0.7546771E-02  0.1280296E+00
         21   -1    0    0  503  502  0.00000000000E+00  0.00000000000E+00  0.44850897844E+03  0.44850897844E+03  0.00000000000E+00 0. -1.
         21   -1    0    0  501  503 -0.00000000000E+00 -0.00000000000E+00 -0.12114212338E+03  0.12114212338E+03  0.00000000000E+00 0.  1.
          6    1    1    2  501    0  0.89053942842E+02  0.11576069761E+03  0.95944203294E+02  0.24589720208E+03  0.17300000000E+03 0.  1.
         -6    1    1    2    0  502 -0.89053942842E+02 -0.11576069761E+03  0.23142265176E+03  0.32375389974E+03  0.17300000000E+03 0. -1.
</event>
<event>
 4    1  0.5943823E+000  0.1000000E+03  0.7546771E-02  0.1280296E+00
         21   -1    0    0  503  502  0.00000000000E+00  0.00000000000E+00  0.55317739432E+03  0.55317739432E+03  0.00000000000E+00 0. -1.
         21   -1    0    0  501  503 -0.00000000000E+00 -0.00000000000E+00 -0.18282276658E+03  0.18282276658E+03  0.00000000000E+00 0.  1.
          6    1    1    2  501    0  0.76774903869E+02 -0.80584813042E+02 -0.95462163208E+02  0.22678254466E+03  0.17300000000E+03 0.  1.
         -6    1    1    2    0  502 -0.76774903869E+02  0.80584813042E+02  0.46581679095E+03  0.50921761624E+03  0.17300000000E+03 0. -1.
</event>
<event>
 4    1  0.5943823E+000  0.1000000E+03  0.7546771E-02  0.1280296E+00
         21   -1    0    0  503  502  0.00000000000E+00  0.00000000000E+00  0.71514525794E+03  0.71514525794E+03  0.00000000000E+00 0. -1.
         21   -1    0    0  501  503 -0.00000000000E+00 -0.00000000000E+00 -0.77820989266E+02  0.77820989266E+02  0.00000000000E+00 0.  1.
          6    1    1    2  501    0  0.14115631646E+03 -0.60747603077E+02  0.24148107321E+03  0.33445102134E+03  0.17300000000E+03 0.  1.
         -6    1    1    2    0  502 -0.14115631646E+03  0.60747603077E+02  0.39584319546E+03  0.45851522587E+03  0.17300000000E+03 0. -1.
</event>
<event>
 4    1  0.5943823E+000  0.1000000E+03  0.7546771E-02  0.1280296E+00
         21   -1    0    0  503  502  0.00000000000E+00  0.00000000000E+00  0.11959950061E+03  0.11959950061E+03  0.00000000000E+00 0. -1.
         21   -1    0    0  501  503 -0.00000000000E+00 -0.00000000000E+00 -0.51563338724E+03  0.51563338724E+03  0.00000000000E+00 0.  1.
          6    1    1    2  501    0 -0.16099122290E+03 -0.39934573311E+02 -0.28117651429E+03  0.36946200912E+03  0.17300000000E+03 0.  1.
         -6    1    1    2    0  502  0.16099122290E+03  0.39934573311E+02 -0.11485737234E+03  0.26577087872E+03  0.17300000000E+03 0. -1.
</event>
<event>
 4    1  0.5943823E+000  0.1000000E+03  0.7546771E-02  0.1280296E+00
         21   -1    0    0  503  502  0.00000000000E+00  0.00000000000E+00  0.38974212362E+03  0.38974212362E+03  0.00000000000E+00 0. -1.
         21   -1    0    0  501  503 -0.00000000000E+00 -0.00000000000E+00 -0.11570041353E+03  0.11570041353E+03  0.00000000000E+00 0.  1.
          6    1    1    2  501    0 -0.16292417856E+02  0.32412063425E+02 -0.30296001483E+01  0.17678847025E+03  0.17300000000E+03 0.  1.
         -6    1    1    2    0  502  0.16292417856E+02 -0.32412063425E+02  0.27707131023E+03  0.32865406690E+03  0.17300000000E+03 0. -1.
</event>
<event>
 4    1  0.5943823E+000  0.1000000E+03  0.7546771E-02  0.1280296E+00
         21   -1    0    0  503  502  0.00000000000E+00  0.00000000000E+00  0.86535086020E+02  0.86535086020E+02  0.00000000000E+00 0. -1.
         21   -1    0    0  501  503 -0.00000000000E+00 -0.00000000000E+00 -0.65915795134E+03  0.65915795134E+03  0.00000000000E+00 0.  1.
          6    1    1    2  501    0 -0.10832945755E+03  0.11102825140E+03 -0.37250996162E+03  0.43903896807E+03  0.17300000000E+03 0.  1.
         -6    1    1    2    0  502  0.10832945755E+03 -0.11102825140E+03 -0.20011290370E+03  0.30665406929E+03  0.17300000000E+03 0. -1.
</event>
<event>
 4    1  0.5943823E+000  0.1000000E+03  0.7546771E-02  0.1280296E+00
         21   -1    0    0  503  502  0.00000000000E+00  0.00000000000E+00  0.20052108467E+03  0.20052108467E+03  0.00000000000E+00 0. -1.
         21   -1    0    0  501  503 -0.00000000000E+00 -0.00000000000E+00 -0.97752330241E+03  0.97752330241E+03  0.00000000000E+00 0.  1.
          6    1    1    2  501    0 -0.50691666667E+02  0.85989504204E+02 -0.91417814706E+03  0.93574276618E+03  0.17300000000E+03 0.  1.
         -6    1    1    2    0  502  0.50691666667E+02 -0.85989504204E+02  0.13717592932E+03  0.24230162089E+03  0.17300000000E+03 0. -1.
</event>
<event>
 4    1  0.5943823E+000  0.1000000E+03  0.7546771E-02  0.1280296E+00
         21   -1    0    0  503  502  0.00000000000E+00  0.00000000000E+00  0.16479053900E+03  0.16479053900E+03  0.00000000000E+00 0. -1.
         21   -1    0    0  501  503 -0.00000000000E+00 -0.00000000000E+00 -0.35780278673E+03  0.35780278673E+03  0.00000000000E+00 0.  1.
          6    1    1    2  501    0 -0.96824950810E+02  0.12774015160E+03 -0.15870426238E+03  0.28426864113E+03  0.17300000000E+03 0.  1.
         -6    1    1    2    0  502  0.96824950810E+02 -0.12774015160E+03 -0.34307985344E+02  0.23832468460E+03  0.17300000000E+03 0. -1.
</event>
<event>
 4    1  0.5943823E+000  0.1000000E+03  0.7546771E-02  0.1280296E+00
         21   -1    0    0  503  502  0.00000000000E+00  0.00000000000E+00  0.46342347360E+03  0.46342347360E+03  0.00000000000E+00 0. -1.
         21   -1    0    0  501  503 -0.00000000000E+00 -0.00000000000E+00 -0.96392107602E+02  0.96392107602E+02  0.00000000000E+00 0. -1.
          6    1    1    2  501    0 -0.71104919178E+02 -0.94807044993E+02  0.14854963480E+03  0.25698303312E+03  0.17300000000E+03 0. -1.
         -6    1    1    2    0  502  0.71104919178E+02  0.94807044993E+02  0.21848173120E+03  0.30283254809E+03  0.17300000000E+03 0. -1.
</event>
<event>
 4    1  0.5943823E+000  0.1000000E+03  0.7546771E-02  0.1280296E+00
         21   -1    0    0  503  502  0.00000000000E+00  0.00000000000E+00  0.46573056262E+02  0.46573056262E+02  0.00000000000E+00 0. -1.
         21   -1    0    0  501  503 -0.00000000000E+00 -0.00000000000E+00 -0.25428114353E+04  0.25428114353E+04  0.00000000000E+00 0. -1.
          6    1    1    2  501    0 -0.71768146538E+02 -0.17191824827E+03 -0.21206820087E+04  0.21358669745E+04  0.17300000000E+03 0. -1.
         -6    1    1    2    0  502  0.71768146538E+02  0.17191824827E+03 -0.37555637040E+03  0.45351751708E+03  0.17300000000E+03 0. -1.
</event>
<event>
 4    1  0.5943823E+000  0.1000000E+03  0.7546771E-02  0.1280296E+00
         21   -1    0    0  501  502  0.00000000000E+00  0.00000000000E+00  0.23670634285E+02  0.23670634285E+02  0.00000000000E+00 0. -1.
         21   -1    0    0  502  503 -0.00000000000E+00 -0.00000000000E+00 -0.15968396329E+04  0.15968396329E+04  0.00000000000E+00 0.  1.
          6    1    1    2  501    0 -0.68164640095E+02 -0.19024538995E+02 -0.56367212906E+03  0.59385488153E+03  0.17300000000E+03 0. -1.
         -6    1    1    2    0  503  0.68164640095E+02  0.19024538995E+02 -0.10094968695E+04  0.10266553856E+04  0.17300000000E+03 0.  1.
</event>
<event>
 4    1  0.5943823E+000  0.1000000E+03  0.7546771E-02  0.1280296E+00
         21   -1    0    0  503  502  0.00000000000E+00  0.00000000000E+00  0.62347492858E+03  0.62347492858E+03  0.00000000000E+00 0.  1.
         21   -1    0    0  501  503 -0.00000000000E+00 -0.00000000000E+00 -0.82835291868E+02  0.82835291868E+02  0.00000000000E+00 0.  1.
          6    1    1    2  501    0 -0.10091536458E+03  0.57956861619E+02  0.12982483913E+03  0.24561432668E+03  0.17300000000E+03 0.  1.
         -6    1    1    2    0  502  0.10091536458E+03 -0.57956861619E+02  0.41081479759E+03  0.46069589377E+03  0.17300000000E+03 0.  1.
</event>
<event>
 4    1  0.5943823E+000  0.1000000E+03  0.7546771E-02  0.1280296E+00
         21   -1    0    0  503  502  0.00000000000E+00  0.00000000000E+00  0.12255071800E+03  0.12255071800E+03  0.00000000000E+00 0.  1.
         21   -1    0    0  501  503 -0.00000000000E+00 -0.00000000000E+00 -0.45958166773E+03  0.45958166773E+03  0.00000000000E+00 0.  1.
          6    1    1    2  501    0 -0.46181034116E+02  0.15510526562E+03 -0.18597826623E+03  0.30117643806E+03  0.17300000000E+03 0.  1.
         -6    1    1    2    0  502  0.46181034116E+02 -0.15510526562E+03 -0.15105268351E+03  0.28095594767E+03  0.17300000000E+03 0.  1.
</event>
<event>
 4    1  0.5943823E+000  0.1000000E+03  0.7546771E-02  0.1280296E+00
         21   -1    0    0  501  502  0.00000000000E+00  0.00000000000E+00  0.20430829614E+02  0.20430829614E+02  0.00000000000E+00 0. -1.
         21   -1    0    0  502  503 -0.00000000000E+00 -0.00000000000E+00 -0.29895583177E+04  0.29895583177E+04  0.00000000000E+00 0.  1.
          6    1    1    2  501    0 -0.10995502338E+03  0.13610237908E+03 -0.13435541951E+04  0.13658992788E+04  0.17300000000E+03 0. -1.
         -6    1    1    2    0  503  0.10995502338E+03 -0.13610237908E+03 -0.16255732931E+04  0.16440898686E+04  0.17300000000E+03 0.  1.
</event>
<event>
 4    1  0.5943823E+000  0.1000000E+03  0.7546771E-02  0.1280296E+00
         21   -1    0    0  501  502  0.00000000000E+00  0.00000000000E+00  0.39182878656E+03  0.39182878656E+03  0.00000000000E+00 0. -1.
         21   -1    0    0  502  503 -0.00000000000E+00 -0.00000000000E+00 -0.17054849959E+03  0.17054849959E+03  0.00000000000E+00 0.  1.
          6    1    1    2  501    0 -0.26357490975E+02  0.34356586441E+02  0.31420105464E+03  0.36128436875E+03  0.17300000000E+03 0. -1.
         -6    1    1    2    0  503  0.26357490975E+02 -0.34356586441E+02 -0.92920767670E+02  0.20109291740E+03  0.17300000000E+03 0.  1.
</event>
<event>
 4    1  0.5943823E+000  0.1000000E+03  0.7546771E-02  0.1280296E+00
         21   -1    0    0  503  502  0.00000000000E+00  0.00000000000E+00  0.21896123600E+03  0.21896123600E+03  0.00000000000E+00 0. -1.
         21   -1    0    0  501  503 -0.00000000000E+00 -0.00000000000E+00 -0.38960586836E+03  0.38960586836E+03  0.00000000000E+00 0. -1.
          6    1    1    2  501    0 -0.12749900497E+02  0.52334947062E+02 -0.32397760662E+03  0.37120344319E+03  0.17300000000E+03 0. -1.
         -6    1    1    2    0  502  0.12749900497E+02 -0.52334947062E+02  0.15333297426E+03  0.23736366116E+03  0.17300000000E+03 0. -1.
</event>
<event>
 4    1  0.5943823E+000  0.1000000E+03  0.7546771E-02  0.1280296E+00
         21   -1    0    0  503  502  0.00000000000E+00  0.00000000000E+00  0.15353207296E+03  0.15353207296E+03  0.00000000000E+00 0. -1.
         21   -1    0    0  501  503 -0.00000000000E+00 -0.00000000000E+00 -0.35092370661E+03  0.35092370661E+03  0.00000000000E+00 0. -1.
          6    1    1    2  501    0  0.17331542048E+02 -0.11633342891E+03  0.10592648492E+02  0.20946372773E+03  0.17300000000E+03 0. -1.
         -6    1    1    2    0  502 -0.17331542048E+02  0.11633342891E+03 -0.20798428215E+03  0.29499205184E+03  0.17300000000E+03 0. -1.
</event>
<event>
 4    1  0.5943823E+000  0.1000000E+03  0.7546771E-02  0.1280296E+00
         21   -1    0    0  503  502  0.00000000000E+00  0.00000000000E+00  0.72475386464E+02  0.72475386464E+02  0.00000000000E+00 0. -1.
         21   -1    0    0  501  503 -0.00000000000E+00 -0.00000000000E+00 -0.90843061566E+03  0.90843061566E+03  0.00000000000E+00 0.  1.
          6    1    1    2  501    0  0.14777023979E+03 -0.11858835642E+03 -0.42420600064E+03  0.49576100394E+03  0.17300000000E+03 0.  1.
         -6    1    1    2    0  502 -0.14777023979E+03  0.11858835642E+03 -0.41174922855E+03  0.48514499818E+03  0.17300000000E+03 0. -1.
</event>
<event>
 4    1  0.5943823E+000  0.1000000E+03  0.7546771E-02  0.1280296E+00
         21   -1    0    0  503  502  0.00000000000E+00  0.00000000000E+00  0.86245912463E+02  0.86245912463E+02  0.00000000000E+00 0. -1.
         21   -1    0    0  501  503 -0.00000000000E+00 -0.00000000000E+00 -0.52445384369E+03  0.52445384369E+03  0.00000000000E+00 0.  1.
          6    1    1    2  501    0  0.11674607644E+03  0.21937827961E+02 -0.26867506846E+03  0.34091964900E+03  0.17300000000E+03 0.  1.
         -6    1    1    2    0  502 -0.11674607644E+03 -0.21937827961E+02 -0.16953286277E+03  0.26978010716E+03  0.17300000000E+03 0. -1.
</event>
<event>
 4    1  0.5943823E+000  0.1000000E+03  0.7546771E-02  0.1280296E+00
         21   -1    0    0  501  502  0.00000000000E+00  0.00000000000E+00  0.20270203356E+03  0.20270203356E+03  0.00000000000E+00 0. -1.
         21   -1    0    0  502  503 -0.00000000000E+00 -0.00000000000E+00 -0.17777561720E+03  0.17777561720E+03  0.00000000000E+00 0.  1.
          6    1    1    2  501    0  0.24839758971E+02  0.54899282726E+02  0.62325068238E+02  0.19350544954E+03  0.17300000000E+03 0. -1.
         -6    1    1    2    0  503 -0.24839758971E+02 -0.54899282726E+02 -0.37398651882E+02  0.18697220123E+03  0.17300000000E+03 0.  1.
</event>
<event>
 4    1  0.5943823E+000  0.1000000E+03  0.7546771E-02  0.1280296E+00
         21   -1    0    0  501  502  0.00000000000E+00  0.00000000000E+00  0.28516397716E+03  0.28516397716E+03  0.00000000000E+00 0. -1.
         21   -1    0    0  502  503 -0.00000000000E+00 -0.00000000000E+00 -0.29465380668E+03  0.29465380668E+03  0.00000000000E+00 0.  1.
          6    1    1    2  501    0  0.22967223764E+03 -0.19153782015E+02 -0.36045229974E+02  0.29042118158E+03  0.17300000000E+03 0. -1.
         -6    1    1    2    0  503 -0.22967223764E+03  0.19153782015E+02  0.26555400452E+02  0.28939660226E+03  0.17300000000E+03 0.  1.
</event>
<event>
 4    1  0.5943823E+000  0.1000000E+03  0.7546771E-02  0.1280296E+00
         21   -1    0    0  501  502  0.00000000000E+00  0.00000000000E+00  0.26396086337E+03  0.26396086337E+03  0.00000000000E+00 0. -1.
         21   -1    0    0  502  503 -0.00000000000E+00 -0.00000000000E+00 -0.22280772110E+03  0.22280772110E+03  0.00000000000E+00 0.  1.
          6    1    1    2  501    0 -0.11265365201E+01  0.43181214490E+02  0.18553757807E+03  0.25733068073E+03  0.17300000000E+03 0. -1.
         -6    1    1    2    0  503  0.11265365201E+01 -0.43181214490E+02 -0.14438443581E+03  0.22943790374E+03  0.17300000000E+03 0.  1.
</event>
<event>
 4    1  0.5943823E+000  0.1000000E+03  0.7546771E-02  0.1280296E+00
         21   -1    0    0  501  502  0.00000000000E+00  0.00000000000E+00  0.55107617286E+03  0.55107617286E+03  0.00000000000E+00 0. -1.
         21   -1    0    0  502  503 -0.00000000000E+00 -0.00000000000E+00 -0.60466175984E+02  0.60466175984E+02  0.00000000000E+00 0. -1.
          6    1    1    2  501    0 -0.37363651789E+02 -0.44658078520E+02  0.24772221833E+03  0.30771038966E+03  0.17300000000E+03 0. -1.
         -6    1    1    2    0  503  0.37363651789E+02  0.44658078520E+02  0.24288777854E+03  0.30383195918E+03  0.17300000000E+03 0. -1.
</event>
<event>
 4    1  0.5943823E+000  0.1000000E+03  0.7546771E-02  0.1280296E+00
         21   -1    0    0  501  502  0.00000000000E+00  0.00000000000E+00  0.99813448295E+03  0.99813448295E+03  0.00000000000E+00 0. -1.
         21   -1    0    0  502  503 -0.00000000000E+00 -0.00000000000E+00 -0.36634697548E+02  0.36634697548E+02  0.00000000000E+00 0. -1.
          6    1    1    2  501    0 -0.65436260523E+02  0.47902691118E+02  0.45965568020E+03  0.49778400571E+03  0.17300000000E+03 0. -1.
         -6    1    1    2    0  503  0.65436260523E+02 -0.47902691118E+02  0.50184410521E+03  0.53698517479E+03  0.17300000000E+03 0. -1.
</event>
<event>
 4    1  0.5943823E+000  0.1000000E+03  0.7546771E-02  0.1280296E+00
         21   -1    0    0  501  502  0.00000000000E+00  0.00000000000E+00  0.79006195554E+02  0.79006195554E+02  0.00000000000E+00 0. -1.
         21   -1    0    0  502  503 -0.00000000000E+00 -0.00000000000E+00 -0.83789650687E+03  0.83789650687E+03  0.00000000000E+00 0. -1.
          6    1    1    2  501    0 -0.66876534558E+02  0.10690933893E+03 -0.12514828204E+03  0.24797816461E+03  0.17300000000E+03 0. -1.
         -6    1    1    2    0  503  0.66876534558E+02 -0.10690933893E+03 -0.63374202927E+03  0.66892453781E+03  0.17300000000E+03 0. -1.
</event>
<event>
 4    1  0.5943823E+000  0.1000000E+03  0.7546771E-02  0.1280296E+00
         21   -1    0    0  503  502  0.00000000000E+00  0.00000000000E+00  0.77227499743E+02  0.77227499743E+02  0.00000000000E+00 0.  1.
         21   -1    0    0  501  503 -0.00000000000E+00 -0.00000000000E+00 -0.44873371356E+03  0.44873371356E+03  0.00000000000E+00 0. -1.
          6    1    1    2  501    0  0.61440301594E+02 -0.10571445072E+02 -0.22667001321E+03  0.29188175860E+03  0.17300000000E+03 0. -1.
         -6    1    1    2    0  502 -0.61440301594E+02  0.10571445072E+02 -0.14483620061E+03  0.23407945471E+03  0.17300000000E+03 0.  1.
</event>
<event>
 4    1  0.5943823E+000  0.1000000E+03  0.7546771E-02  0.1280296E+00
         21   -1    0    0  503  502  0.00000000000E+00  0.00000000000E+00  0.15958359589E+04  0.15958359589E+04  0.00000000000E+00 0.  1.
         21   -1    0    0  501  503 -0.00000000000E+00 -0.00000000000E+00 -0.42790187756E+02  0.42790187756E+02  0.00000000000E+00 0. -1.
          6    1    1    2  501    0 -0.20382774789E+02  0.17984180738E+03  0.54192565251E+03  0.59696812816E+03  0.17300000000E+03 0. -1.
         -6    1    1    2    0  502  0.20382774789E+02 -0.17984180738E+03  0.10111201186E+04  0.10416580185E+04  0.17300000000E+03 0.  1.
</event>
<event>
 4    1  0.5943823E+000  0.1000000E+03  0.7546771E-02  0.1280296E+00
         21   -1    0    0  503  502  0.00000000000E+00  0.00000000000E+00  0.37409331401E+03  0.37409331401E+03  0.00000000000E+00 0. -1.
         21   -1    0    0  501  503 -0.00000000000E+00 -0.00000000000E+00 -0.11656662965E+03  0.11656662965E+03  0.00000000000E+00 0. -1.
          6    1    1    2  501    0 -0.53766157301E+02  0.92949630851E+02  0.74322319682E+02  0.21675617811E+03  0.17300000000E+03 0. -1.
         -6    1    1    2    0  502  0.53766157301E+02 -0.92949630851E+02  0.18320436468E+03  0.27390376555E+03  0.17300000000E+03 0. -1.
</event>
<event>
 4    1  0.5943823E+000  0.1000000E+03  0.7546771E-02  0.1280296E+00
         21   -1    0    0  503  502  0.00000000000E+00  0.00000000000E+00  0.59809735272E+03  0.59809735272E+03  0.00000000000E+00 0. -1.
         21   -1    0    0  501  503 -0.00000000000E+00 -0.00000000000E+00 -0.54477503009E+03  0.54477503009E+03  0.00000000000E+00 0. -1.
          6    1    1    2  501    0  0.13637156871E+03 -0.25813498218E+03 -0.43282574579E+03  0.54999818181E+03  0.17300000000E+03 0. -1.
         -6    1    1    2    0  502 -0.13637156871E+03  0.25813498218E+03  0.48614806842E+03  0.59287420100E+03  0.17300000000E+03 0. -1.
</event>
<event>
 4    1  0.5943823E+000  0.1000000E+03  0.7546771E-02  0.1280296E+00
         21   -1    0    0  503  502  0.00000000000E+00  0.00000000000E+00  0.40888771649E+03  0.40888771649E+03  0.00000000000E+00 0. -1.
         21   -1    0    0  501  503 -0.00000000000E+00 -0.00000000000E+00 -0.21448827593E+03  0.21448827593E+03  0.00000000000E+00 0. -1.
          6    1    1    2  501    0  0.55581577710E+02 -0.18847268108E+03 -0.48490167603E+02  0.26625468944E+03  0.17300000000E+03 0. -1.
         -6    1    1    2    0  502 -0.55581577710E+02  0.18847268108E+03  0.24288960816E+03  0.35712130299E+03  0.17300000000E+03 0. -1.
</event>
<event>
 4    1  0.5943823E+000  0.1000000E+03  0.7546771E-02  0.1280296E+00
         21   -1    0    0  503  502  0.00000000000E+00  0.00000000000E+00  0.17309541341E+03  0.17309541341E+03  0.00000000000E+00 0. -1.
         21   -1    0    0  501  503 -0.00000000000E+00 -0.00000000000E+00 -0.50019348787E+03  0.50019348787E+03  0.00000000000E+00 0. -1.
          6    1    1    2  501    0 -0.10347840686E+02  0.12849441429E+03 -0.39246486224E+03  0.44785662929E+03  0.17300000000E+03 0. -1.
         -6    1    1    2    0  502  0.10347840686E+02 -0.12849441429E+03  0.65366787778E+02  0.22543227199E+03  0.17300000000E+03 0. -1.
</event>
<event>
 4    1  0.5943823E+000  0.1000000E+03  0.7546771E-02  0.1280296E+00
         21   -1    0    0  503  502  0.00000000000E+00  0.00000000000E+00  0.24913374926E+04  0.24913374926E+04  0.00000000000E+00 0. -1.
         21   -1    0    0  501  503 -0.00000000000E+00 -0.00000000000E+00 -0.34894384907E+02  0.34894384907E+02  0.00000000000E+00 0. -1.
          6    1    1    2  501    0 -0.15279176978E+02 -0.23642238802E+03  0.11014492150E+04  0.11398457668E+04  0.17300000000E+03 0. -1.
         -6    1    1    2    0  502  0.15279176978E+02  0.23642238802E+03  0.13549938926E+04  0.13863861107E+04  0.17300000000E+03 0. -1.
</event>
<event>
 4    1  0.5943823E+000  0.1000000E+03  0.7546771E-02  0.1280296E+00
         21   -1    0    0  503  502  0.00000000000E+00  0.00000000000E+00  0.10269244733E+03  0.10269244733E+03  0.00000000000E+00 0. -1.
         21   -1    0    0  501  503 -0.00000000000E+00 -0.00000000000E+00 -0.46380758261E+03  0.46380758261E+03  0.00000000000E+00 0. -1.
          6    1    1    2  501    0  0.11798230437E+03  0.12608640818E+01 -0.26034366331E+03  0.33410961817E+03  0.17300000000E+03 0. -1.
         -6    1    1    2    0  502 -0.11798230437E+03 -0.12608640818E+01 -0.10077147196E+03  0.23239041177E+03  0.17300000000E+03 0. -1.
</event>
<event>
 4    1  0.5943823E+000  0.1000000E+03  0.7546771E-02  0.1280296E+00
         21   -1    0    0  501  502  0.00000000000E+00  0.00000000000E+00  0.50543795167E+03  0.50543795167E+03  0.00000000000E+00 0.  1.
         21   -1    0    0  502  503 -0.00000000000E+00 -0.00000000000E+00 -0.15067351780E+03  0.15067351780E+03  0.00000000000E+00 0.  1.
          6    1    1    2  501    0  0.20254124889E+03  0.58445340351E+02  0.22765295949E+03  0.35523750545E+03  0.17300000000E+03 0.  1.
         -6    1    1    2    0  503 -0.20254124889E+03 -0.58445340351E+02  0.12711147438E+03  0.30087396403E+03  0.17300000000E+03 0.  1.
</event>
<event>
 4    1  0.5943823E+000  0.1000000E+03  0.7546771E-02  0.1280296E+00
         21   -1    0    0  501  502  0.00000000000E+00  0.00000000000E+00  0.19357817904E+03  0.19357817904E+03  0.00000000000E+00 0.  1.
         21   -1    0    0  502  503 -0.00000000000E+00 -0.00000000000E+00 -0.21710013644E+04  0.21710013644E+04  0.00000000000E+00 0.  1.
          6    1    1    2  501    0  0.16794760119E+03  0.62144893450E+01  0.10870275949E+03  0.26455681156E+03  0.17300000000E+03 0.  1.
         -6    1    1    2    0  503 -0.16794760119E+03 -0.62144893450E+01 -0.20861259449E+04  0.21000227319E+04  0.17300000000E+03 0.  1.
</event>
<event>
 4    1  0.5943823E+000  0.1000000E+03  0.7546771E-02  0.1280296E+00
         21   -1    0    0  503  502  0.00000000000E+00  0.00000000000E+00  0.96193966050E+02  0.96193966050E+02  0.00000000000E+00 0. -1.
         21   -1    0    0  501  503 -0.00000000000E+00 -0.00000000000E+00 -0.50696529010E+03  0.50696529010E+03  0.00000000000E+00 0. -1.
          6    1    1    2  501    0 -0.21781162969E+02 -0.11897963858E+03 -0.29396804157E+03  0.36190714682E+03  0.17300000000E+03 0.  1.
         -6    1    1    2    0  502  0.21781162969E+02  0.11897963858E+03 -0.11680328248E+03  0.24125210932E+03  0.17300000000E+03 0.  1.
</event>
<event>
 4    1  0.5943823E+000  0.1000000E+03  0.7546771E-02  0.1280296E+00
         21   -1    0    0  503  502  0.00000000000E+00  0.00000000000E+00  0.29501776488E+03  0.29501776488E+03  0.00000000000E+00 0. -1.
         21   -1    0    0  501  503 -0.00000000000E+00 -0.00000000000E+00 -0.27011726784E+03  0.27011726784E+03  0.00000000000E+00 0. -1.
          6    1    1    2  501    0  0.17470666981E+03 -0.29518643441E+02 -0.12320500520E+03  0.27659039045E+03  0.17300000000E+03 0.  1.
         -6    1    1    2    0  502 -0.17470666981E+03  0.29518643441E+02  0.14810550223E+03  0.28854464226E+03  0.17300000000E+03 0.  1.
</event>
<event>
 4    1  0.5943823E+000  0.1000000E+03  0.7546771E-02  0.1280296E+00
         21   -1    0    0  503  502  0.00000000000E+00  0.00000000000E+00  0.81806022097E+03  0.81806022097E+03  0.00000000000E+00 0.  1.
         21   -1    0    0  501  503 -0.00000000000E+00 -0.00000000000E+00 -0.53255708427E+02  0.53255708427E+02  0.00000000000E+00 0.  1.
          6    1    1    2  501    0  0.21726775038E+02  0.11340230077E+03  0.34593592241E+03  0.40364934905E+03  0.17300000000E+03 0.  1.
         -6    1    1    2    0  502 -0.21726775038E+02 -0.11340230077E+03  0.41886859013E+03  0.46766658035E+03  0.17300000000E+03 0.  1.
</event>
<event>
 4    1  0.5943823E+000  0.1000000E+03  0.7546771E-02  0.1280296E+00
         21   -1    0    0  503  502  0.00000000000E+00  0.00000000000E+00  0.20330395581E+04  0.20330395581E+04  0.00000000000E+00 0.  1.
         21   -1    0    0  501  503 -0.00000000000E+00 -0.00000000000E+00 -0.71932288597E+02  0.71932288597E+02  0.00000000000E+00 0.  1.
          6    1    1    2  501    0  0.25720652097E+03 -0.22393152155E+03  0.97115273675E+03  0.10437275310E+04  0.17300000000E+03 0.  1.
         -6    1    1    2    0  502 -0.25720652097E+03  0.22393152155E+03  0.98995453270E+03  0.10612443157E+04  0.17300000000E+03 0.  1.
</event>
<event>
 4    1  0.5943823E+000  0.1000000E+03  0.7546771E-02  0.1280296E+00
         21   -1    0    0  503  502  0.00000000000E+00  0.00000000000E+00  0.46202238276E+02  0.46202238276E+02  0.00000000000E+00 0.  1.
         21   -1    0    0  501  503 -0.00000000000E+00 -0.00000000000E+00 -0.13677239205E+04  0.13677239205E+04  0.00000000000E+00 0.  1.
          6    1    1    2  501    0 -0.74444193845E+02 -0.30987287228E+01 -0.19260011867E+03  0.26939811771E+03  0.17300000000E+03 0.  1.
         -6    1    1    2    0  502  0.74444193845E+02  0.30987287228E+01 -0.11289215636E+04  0.11445280411E+04  0.17300000000E+03 0.  1.
</event>
<event>
 4    1  0.5943823E+000  0.1000000E+03  0.7546771E-02  0.1280296E+00
         21   -1    0    0  503  502  0.00000000000E+00  0.00000000000E+00  0.35201209317E+03  0.35201209317E+03  0.00000000000E+00 0.  1.
         21   -1    0    0  501  503 -0.00000000000E+00 -0.00000000000E+00 -0.11625870261E+03  0.11625870261E+03  0.00000000000E+00 0.  1.
          6    1    1    2  501    0  0.72770207547E+02 -0.50289589941E+02  0.52703589460E+02  0.20132365560E+03  0.17300000000E+03 0.  1.
         -6    1    1    2    0  502 -0.72770207547E+02  0.50289589941E+02  0.18304980110E+03  0.26694714017E+03  0.17300000000E+03 0.  1.
</event>
<event>
 4    1  0.5943823E+000  0.1000000E+03  0.7546771E-02  0.1280296E+00
         21   -1    0    0  503  502  0.00000000000E+00  0.00000000000E+00  0.25603226760E+03  0.25603226760E+03  0.00000000000E+00 0.  1.
         21   -1    0    0  501  503 -0.00000000000E+00 -0.00000000000E+00 -0.31592784953E+03  0.31592784953E+03  0.00000000000E+00 0. -1.
          6    1    1    2  501    0  0.16054105110E+02 -0.12803898437E+02 -0.25599512308E+03  0.30965170296E+03  0.17300000000E+03 0.  1.
         -6    1    1    2    0  502 -0.16054105110E+02  0.12803898437E+02  0.19609954115E+03  0.26230841417E+03  0.17300000000E+03 0.  1.
</event>
<event>
 4    1  0.5943823E+000  0.1000000E+03  0.7546771E-02  0.1280296E+00
         21   -1    0    0  503  502  0.00000000000E+00  0.00000000000E+00  0.25999537596E+03  0.25999537596E+03  0.00000000000E+00 0.  1.
         21   -1    0    0  501  503 -0.00000000000E+00 -0.00000000000E+00 -0.43822297782E+03  0.43822297782E+03  0.00000000000E+00 0. -1.
          6    1    1    2  501    0 -0.19256493832E+03  0.16483861905E+03  0.56250427797E+02  0.31200342374E+03  0.17300000000E+03 0.  1.
         -6    1    1    2    0  502  0.19256493832E+03 -0.16483861905E+03 -0.23447802965E+03  0.38621493005E+03  0.17300000000E+03 0.  1.
</event>
<event>
 4    1  0.5943823E+000  0.1000000E+03  0.7546771E-02  0.1280296E+00
         21   -1    0    0  503  502  0.00000000000E+00  0.00000000000E+00  0.93089226406E+03  0.93089226406E+03  0.00000000000E+00 0. -1.
         21   -1    0    0  501  503 -0.00000000000E+00 -0.00000000000E+00 -0.41474374911E+02  0.41474374911E+02  0.00000000000E+00 0. -1.
          6    1    1    2  501    0 -0.53928979683E+01 -0.65414051458E+01  0.21515015532E+03  0.27620728206E+03  0.17300000000E+03 0. -1.
         -6    1    1    2    0  502  0.53928979683E+01  0.65414051458E+01  0.67426773382E+03  0.69615935690E+03  0.17300000000E+03 0. -1.
</event>
<event>
 4    1  0.5943823E+000  0.1000000E+03  0.7546771E-02  0.1280296E+00
         21   -1    0    0  503  502  0.00000000000E+00  0.00000000000E+00  0.39206987247E+03  0.39206987247E+03  0.00000000000E+00 0.  1.
         21   -1    0    0  501  503 -0.00000000000E+00 -0.00000000000E+00 -0.80253466021E+02  0.80253466021E+02  0.00000000000E+00 0.  1.
          6    1    1    2  501    0 -0.27773909722E+02 -0.27635280848E+02  0.15714814220E+03  0.23698024687E+03  0.17300000000E+03 0.  1.
         -6    1    1    2    0  502  0.27773909722E+02  0.27635280848E+02  0.15466826425E+03  0.23534309162E+03  0.17300000000E+03 0.  1.
</event>
<event>
 4    1  0.5943823E+000  0.1000000E+03  0.7546771E-02  0.1280296E+00
         21   -1    0    0  503  502  0.00000000000E+00  0.00000000000E+00  0.54719639442E+02  0.54719639442E+02  0.00000000000E+00 0.  1.
         21   -1    0    0  501  503 -0.00000000000E+00 -0.00000000000E+00 -0.11255886053E+04  0.11255886053E+04  0.00000000000E+00 0.  1.
          6    1    1    2  501    0 -0.16134349154E+03  0.71664507398E+02 -0.58835557993E+03  0.63816832601E+03  0.17300000000E+03 0.  1.
         -6    1    1    2    0  502  0.16134349154E+03 -0.71664507398E+02 -0.48251338592E+03  0.54213991873E+03  0.17300000000E+03 0.  1.
</event>
<event>
 4    1  0.5943823E+000  0.1000000E+03  0.7546771E-02  0.1280296E+00
         21   -1    0    0  503  502  0.00000000000E+00  0.00000000000E+00  0.14054550100E+03  0.14054550100E+03  0.00000000000E+00 0.  1.
         21   -1    0    0  501  503 -0.00000000000E+00 -0.00000000000E+00 -0.67987073586E+03  0.67987073586E+03  0.00000000000E+00 0.  1.
          6    1    1    2  501    0 -0.89533987574E+02 -0.16138137629E+02 -0.58745095155E+03  0.61911581703E+03  0.17300000000E+03 0.  1.
         -6    1    1    2    0  502  0.89533987574E+02  0.16138137629E+02  0.48125716691E+02  0.20130041983E+03  0.17300000000E+03 0.  1.
</event>
<event>
 4    1  0.5943823E+000  0.1000000E+03  0.7546771E-02  0.1280296E+00
         21   -1    0    0  501  502  0.00000000000E+00  0.00000000000E+00  0.26434721948E+04  0.26434721948E+04  0.00000000000E+00 0. -1.
         21   -1    0    0  502  503 -0.00000000000E+00 -0.00000000000E+00 -0.21333173965E+02  0.21333173965E+02  0.00000000000E+00 0. -1.
          6    1    1    2  501    0 -0.31222671901E+02 -0.14406047191E+03  0.16972083953E+04  0.17123590780E+04  0.17300000000E+03 0. -1.
         -6    1    1    2    0  503  0.31222671901E+02  0.14406047191E+03  0.92493062550E+03  0.95244629077E+03  0.17300000000E+03 0. -1.
</event>
<event>
 4    1  0.5943823E+000  0.1000000E+03  0.7546771E-02  0.1280296E+00
         21   -1    0    0  501  502  0.00000000000E+00  0.00000000000E+00  0.24562493841E+04  0.24562493841E+04  0.00000000000E+00 0. -1.
         21   -1    0    0  502  503 -0.00000000000E+00 -0.00000000000E+00 -0.82125288697E+02  0.82125288697E+02  0.00000000000E+00 0. -1.
          6    1    1    2  501    0 -0.15635537475E+03  0.56019849274E+02  0.22601681284E+04  0.22728559557E+04  0.17300000000E+03 0. -1.
         -6    1    1    2    0  503  0.15635537475E+03 -0.56019849274E+02  0.11395596705E+03  0.26551871714E+03  0.17300000000E+03 0. -1.
</event>
<event>
 4    1  0.5943823E+000  0.1000000E+03  0.7546771E-02  0.1280296E+00
         21   -1    0    0  501  502  0.00000000000E+00  0.00000000000E+00  0.21482239296E+03  0.21482239296E+03  0.00000000000E+00 0.  1.
         21   -1    0    0  502  503 -0.00000000000E+00 -0.00000000000E+00 -0.28275248423E+03  0.28275248423E+03  0.00000000000E+00 0.  1.
          6    1    1    2  501    0  0.70738477822E+02 -0.15665968236E+03  0.19574879024E+01  0.24388320992E+03  0.17300000000E+03 0.  1.
         -6    1    1    2    0  503 -0.70738477822E+02  0.15665968236E+03 -0.69887579177E+02  0.25369166727E+03  0.17300000000E+03 0.  1.
</event>
<event>
 4    1  0.5943823E+000  0.1000000E+03  0.7546771E-02  0.1280296E+00
         21   -1    0    0  501  502  0.00000000000E+00  0.00000000000E+00  0.42533903850E+02  0.42533903850E+02  0.00000000000E+00 0.  1.
         21   -1    0    0  502  503 -0.00000000000E+00 -0.00000000000E+00 -0.12212837187E+04  0.12212837187E+04  0.00000000000E+00 0.  1.
          6    1    1    2  501    0 -0.57348315535E+02 -0.46168510804E+01 -0.21016603970E+03  0.27822456551E+03  0.17300000000E+03 0.  1.
         -6    1    1    2    0  503  0.57348315535E+02  0.46168510804E+01 -0.96858377519E+03  0.98559305709E+03  0.17300000000E+03 0.  1.
</event>
<event>
 4    1  0.5943823E+000  0.1000000E+03  0.7546771E-02  0.1280296E+00
         21   -1    0    0  503  502  0.00000000000E+00  0.00000000000E+00  0.48565861936E+03  0.48565861936E+03  0.00000000000E+00 0.  1.
         21   -1    0    0  501  503 -0.00000000000E+00 -0.00000000000E+00 -0.35507397953E+03  0.35507397953E+03  0.00000000000E+00 0.  1.
          6    1    1    2  501    0  0.71341972393E+02 -0.23703949373E+03 -0.22323267217E+03  0.37555189327E+03  0.17300000000E+03 0.  1.
         -6    1    1    2    0  502 -0.71341972393E+02  0.23703949373E+03  0.35381731200E+03  0.46518070562E+03  0.17300000000E+03 0.  1.
</event>
<event>
 4    1  0.5943823E+000  0.1000000E+03  0.7546771E-02  0.1280296E+00
         21   -1    0    0  501  502  0.00000000000E+00  0.00000000000E+00  0.38493790190E+03  0.38493790190E+03  0.00000000000E+00 0.  1.
         21   -1    0    0  502  503 -0.00000000000E+00 -0.00000000000E+00 -0.15207261551E+03  0.15207261551E+03  0.00000000000E+00 0.  1.
          6    1    1    2  501    0 -0.84895196737E+02 -0.58531491524E+02  0.26522585362E+03  0.33302685081E+03  0.17300000000E+03 0.  1.
         -6    1    1    2    0  503  0.84895196737E+02  0.58531491524E+02 -0.32360567238E+02  0.20398366660E+03  0.17300000000E+03 0.  1.
</event>
<event>
 4    1  0.5943823E+000  0.1000000E+03  0.7546771E-02  0.1280296E+00
         21   -1    0    0  501  502  0.00000000000E+00  0.00000000000E+00  0.34244945314E+03  0.34244945314E+03  0.00000000000E+00 0.  1.
         21   -1    0    0  502  503 -0.00000000000E+00 -0.00000000000E+00 -0.36040553873E+03  0.36040553873E+03  0.00000000000E+00 0. -1.
          6    1    1    2  501    0 -0.18574099974E+02  0.27058711430E+03  0.13223920731E+03  0.34781976880E+03  0.17300000000E+03 0. -1.
         -6    1    1    2    0  503  0.18574099974E+02 -0.27058711430E+03 -0.15019529289E+03  0.35503522308E+03  0.17300000000E+03 0.  1.
</event>
<event>
 4    1  0.5943823E+000  0.1000000E+03  0.7546771E-02  0.1280296E+00
         21   -1    0    0  503  502  0.00000000000E+00  0.00000000000E+00  0.28758103536E+03  0.28758103536E+03  0.00000000000E+00 0. -1.
         21   -1    0    0  501  503 -0.00000000000E+00 -0.00000000000E+00 -0.14238666596E+03  0.14238666596E+03  0.00000000000E+00 0.  1.
          6    1    1    2  501    0 -0.52772176089E+02  0.70322714834E+02  0.11672797568E+02  0.19441049610E+03  0.17300000000E+03 0. -1.
         -6    1    1    2    0  502  0.52772176089E+02 -0.70322714834E+02  0.13352157183E+03  0.23555720523E+03  0.17300000000E+03 0.  1.
</event>
<event>
 4    1  0.5943823E+000  0.1000000E+03  0.7546771E-02  0.1280296E+00
         21   -1    0    0  503  502  0.00000000000E+00  0.00000000000E+00  0.10360080825E+04  0.10360080825E+04  0.00000000000E+00 0. -1.
         21   -1    0    0  501  503 -0.00000000000E+00 -0.00000000000E+00 -0.10314926526E+03  0.10314926526E+03  0.00000000000E+00 0.  1.
          6    1    1    2  501    0  0.11314540587E+03  0.11446324995E+03  0.72829424922E+02  0.24725865727E+03  0.17300000000E+03 0. -1.
         -6    1    1    2    0  502 -0.11314540587E+03 -0.11446324995E+03  0.86002939232E+03  0.89189869050E+03  0.17300000000E+03 0.  1.
</event>
<event>
 4    1  0.5943823E+000  0.1000000E+03  0.7546771E-02  0.1280296E+00
         21   -1    0    0  503  502  0.00000000000E+00  0.00000000000E+00  0.51645063487E+02  0.51645063487E+02  0.00000000000E+00 0. -1.
         21   -1    0    0  501  503 -0.00000000000E+00 -0.00000000000E+00 -0.92392004450E+03  0.92392004450E+03  0.00000000000E+00 0.  1.
          6    1    1    2  501    0  0.48646509938E+02 -0.16836025079E+02 -0.71087262529E+03  0.73342949495E+03  0.17300000000E+03 0. -1.
         -6    1    1    2    0  502 -0.48646509938E+02  0.16836025079E+02 -0.16140235572E+03  0.24213561304E+03  0.17300000000E+03 0.  1.
</event>
<event>
 4    1  0.5943823E+000  0.1000000E+03  0.7546771E-02  0.1280296E+00
         21   -1    0    0  501  502  0.00000000000E+00  0.00000000000E+00  0.39253393118E+03  0.39253393118E+03  0.00000000000E+00 0. -1.
         21   -1    0    0  502  503 -0.00000000000E+00 -0.00000000000E+00 -0.84850690114E+02  0.84850690114E+02  0.00000000000E+00 0.  1.
          6    1    1    2  501    0  0.34975110452E+02 -0.44138238494E+02  0.17262855685E+03  0.25080083949E+03  0.17300000000E+03 0. -1.
         -6    1    1    2    0  503 -0.34975110452E+02  0.44138238494E+02  0.13505468422E+03  0.22658378180E+03  0.17300000000E+03 0.  1.
</event>
<event>
 4    1  0.5943823E+000  0.1000000E+03  0.7546771E-02  0.1280296E+00
         21   -1    0    0  501  502  0.00000000000E+00  0.00000000000E+00  0.57569944330E+03  0.57569944330E+03  0.00000000000E+00 0. -1.
         21   -1    0    0  502  503 -0.00000000000E+00 -0.00000000000E+00 -0.11708440430E+03  0.11708440430E+03  0.00000000000E+00 0.  1.
          6    1    1    2  501    0 -0.13198156318E+03 -0.14802533160E+02  0.41722674898E+03  0.47079231947E+03  0.17300000000E+03 0. -1.
         -6    1    1    2    0  503  0.13198156318E+03  0.14802533160E+02  0.41388290018E+02  0.22199152812E+03  0.17300000000E+03 0.  1.
</event>
<event>
 4    1  0.5943823E+000  0.1000000E+03  0.7546771E-02  0.1280296E+00
         21   -1    0    0  501  502  0.00000000000E+00  0.00000000000E+00  0.68699188574E+02  0.68699188574E+02  0.00000000000E+00 0.  1.
         21   -1    0    0  502  503 -0.00000000000E+00 -0.00000000000E+00 -0.88590046498E+03  0.88590046498E+03  0.00000000000E+00 0.  1.
          6    1    1    2  501    0 -0.11846836891E+03  0.89001176402E+02 -0.22530308365E+03  0.32038483631E+03  0.17300000000E+03 0.  1.
         -6    1    1    2    0  503  0.11846836891E+03 -0.89001176402E+02 -0.59189819275E+03  0.63421481724E+03  0.17300000000E+03 0.  1.
</event>
<event>
 4    1  0.5943823E+000  0.1000000E+03  0.7546771E-02  0.1280296E+00
         21   -1    0    0  501  502  0.00000000000E+00  0.00000000000E+00  0.82560132253E+02  0.82560132253E+02  0.00000000000E+00 0.  1.
         21   -1    0    0  502  503 -0.00000000000E+00 -0.00000000000E+00 -0.90810356244E+03  0.90810356244E+03  0.00000000000E+00 0.  1.
          6    1    1    2  501    0 -0.27522280774E+02  0.20457469960E+03 -0.32348843877E+03  0.42092998667E+03  0.17300000000E+03 0.  1.
         -6    1    1    2    0  503  0.27522280774E+02 -0.20457469960E+03 -0.50205499142E+03  0.56973370803E+03  0.17300000000E+03 0.  1.
</event>
<event>
 4    1  0.5943823E+000  0.1000000E+03  0.7546771E-02  0.1280296E+00
         21   -1    0    0  503  502  0.00000000000E+00  0.00000000000E+00  0.89845981865E+02  0.89845981865E+02  0.00000000000E+00 0.  1.
         21   -1    0    0  501  503 -0.00000000000E+00 -0.00000000000E+00 -0.11639997304E+04  0.11639997304E+04  0.00000000000E+00 0.  1.
          6    1    1    2  501    0  0.52354747699E+02 -0.19960856083E+02 -0.10554930391E+04  0.10710434216E+04  0.17300000000E+03 0.  1.
         -6    1    1    2    0  502 -0.52354747699E+02  0.19960856083E+02 -0.18660709403E+02  0.18280229062E+03  0.17300000000E+03 0.  1.
</event>
<event>
 4    1  0.5943823E+000  0.1000000E+03  0.7546771E-02  0.1280296E+00
         21   -1    0    0  503  502  0.00000000000E+00  0.00000000000E+00  0.31196473148E+03  0.31196473148E+03  0.00000000000E+00 0. -1.
         21   -1    0    0  501  503 -0.00000000000E+00 -0.00000000000E+00 -0.15195100859E+03  0.15195100859E+03  0.00000000000E+00 0.  1.
          6    1    1    2  501    0  0.35870944352E+02  0.94595819542E+02 -0.10639778976E+02  0.20069204922E+03  0.17300000000E+03 0.  1.
         -6    1    1    2    0  502 -0.35870944352E+02 -0.94595819542E+02  0.17065350186E+03  0.26322369084E+03  0.17300000000E+03 0. -1.
</event>
<event>
 4    1  0.5943823E+000  0.1000000E+03  0.7546771E-02  0.1280296E+00
         21   -1    0    0  503  502  0.00000000000E+00  0.00000000000E+00  0.31281242345E+03  0.31281242345E+03  0.00000000000E+00 0. -1.
         21   -1    0    0  501  503 -0.00000000000E+00 -0.00000000000E+00 -0.10872709429E+03  0.10872709429E+03  0.00000000000E+00 0.  1.
          6    1    1    2  501    0 -0.47258296199E+02  0.34232834638E+02  0.72307081724E+02  0.19637349005E+03  0.17300000000E+03 0.  1.
         -6    1    1    2    0  502  0.47258296199E+02 -0.34232834638E+02  0.13177824744E+03  0.22516602769E+03  0.17300000000E+03 0. -1.
</event>
<event>
 4    1  0.5943823E+000  0.1000000E+03  0.7546771E-02  0.1280296E+00
         21   -1    0    0  503  502  0.00000000000E+00  0.00000000000E+00  0.19595556237E+04  0.19595556237E+04  0.00000000000E+00 0. -1.
         21   -1    0    0  501  503 -0.00000000000E+00 -0.00000000000E+00 -0.31024964092E+03  0.31024964092E+03  0.00000000000E+00 0.  1.
          6    1    1    2  501    0 -0.23250054842E+03 -0.27345769671E+03 -0.15087033828E+03  0.42605923987E+03  0.17300000000E+03 0.  1.
         -6    1    1    2    0  502  0.23250054842E+03  0.27345769671E+03  0.18001763211E+04  0.18437460248E+04  0.17300000000E+03 0. -1.
</event>
<event>
 4    1  0.5943823E+000  0.1000000E+03  0.7546771E-02  0.1280296E+00
         21   -1    0    0  503  502  0.00000000000E+00  0.00000000000E+00  0.24074958245E+03  0.24074958245E+03  0.00000000000E+00 0. -1.
         21   -1    0    0  501  503 -0.00000000000E+00 -0.00000000000E+00 -0.17296384297E+03  0.17296384297E+03  0.00000000000E+00 0.  1.
          6    1    1    2  501    0 -0.95023444187E+02  0.30080093463E+02 -0.88475865408E+01  0.19985381346E+03  0.17300000000E+03 0.  1.
         -6    1    1    2    0  502  0.95023444187E+02 -0.30080093463E+02  0.76633326022E+02  0.21385961195E+03  0.17300000000E+03 0. -1.
</event>
<event>
 4    1  0.5943823E+000  0.1000000E+03  0.7546771E-02  0.1280296E+00
         21   -1    0    0  503  502  0.00000000000E+00  0.00000000000E+00  0.45644420377E+03  0.45644420377E+03  0.00000000000E+00 0. -1.
         21   -1    0    0  501  503 -0.00000000000E+00 -0.00000000000E+00 -0.42099743638E+03  0.42099743638E+03  0.00000000000E+00 0. -1.
          6    1    1    2  501    0  0.25970192927E+02 -0.39430798394E+03  0.95758892093E+02  0.44187328787E+03  0.17300000000E+03 0. -1.
         -6    1    1    2    0  502 -0.25970192927E+02  0.39430798394E+03 -0.60312124708E+02  0.43556835228E+03  0.17300000000E+03 0. -1.
</event>
<event>
 4    1  0.5943823E+000  0.1000000E+03  0.7546771E-02  0.1280296E+00
         21   -1    0    0  503  502  0.00000000000E+00  0.00000000000E+00  0.14847680761E+03  0.14847680761E+03  0.00000000000E+00 0. -1.
         21   -1    0    0  501  503 -0.00000000000E+00 -0.00000000000E+00 -0.51081186920E+03  0.51081186920E+03  0.00000000000E+00 0. -1.
          6    1    1    2  501    0  0.98018849627E+02  0.18755419249E+03 -0.22141241294E+03  0.35176231550E+03  0.17300000000E+03 0. -1.
         -6    1    1    2    0  502 -0.98018849627E+02 -0.18755419249E+03 -0.14092264864E+03  0.30752636131E+03  0.17300000000E+03 0. -1.
</event>
<event>
 4    1  0.5943823E+000  0.1000000E+03  0.7546771E-02  0.1280296E+00
         21   -1    0    0  503  502  0.00000000000E+00  0.00000000000E+00  0.71085080514E+03  0.71085080514E+03  0.00000000000E+00 0. -1.
         21   -1    0    0  501  503 -0.00000000000E+00 -0.00000000000E+00 -0.94170634095E+03  0.94170634095E+03  0.00000000000E+00 0.  1.
          6    1    1    2  501    0 -0.46520508897E+03 -0.88508558947E+02 -0.76619556878E+03  0.91718819739E+03  0.17300000000E+03 0.  1.
         -6    1    1    2    0  502  0.46520508897E+03  0.88508558947E+02  0.53534003296E+03  0.73536894870E+03  0.17300000000E+03 0. -1.
</event>
<event>
 4    1  0.5943823E+000  0.1000000E+03  0.7546771E-02  0.1280296E+00
         21   -1    0    0  503  502  0.00000000000E+00  0.00000000000E+00  0.24242012301E+03  0.24242012301E+03  0.00000000000E+00 0. -1.
         21   -1    0    0  501  503 -0.00000000000E+00 -0.00000000000E+00 -0.23654392558E+03  0.23654392558E+03  0.00000000000E+00 0.  1.
          6    1    1    2  501    0 -0.12204434612E+02 -0.34343136012E+02 -0.15858445466E+03  0.23750037574E+03  0.17300000000E+03 0.  1.
         -6    1    1    2    0  502  0.12204434612E+02  0.34343136012E+02  0.16446065210E+03  0.24146367285E+03  0.17300000000E+03 0. -1.
</event>
<event>
 4    1  0.5943823E+000  0.1000000E+03  0.7546771E-02  0.1280296E+00
         21   -1    0    0  501  502  0.00000000000E+00  0.00000000000E+00  0.63571131728E+02  0.63571131728E+02  0.00000000000E+00 0. -1.
         21   -1    0    0  502  503 -0.00000000000E+00 -0.00000000000E+00 -0.10929119619E+04  0.10929119619E+04  0.00000000000E+00 0.  1.
          6    1    1    2  501    0  0.30187491652E+02 -0.14715374226E+03 -0.22878253184E+03  0.32378380964E+03  0.17300000000E+03 0. -1.
         -6    1    1    2    0  503 -0.30187491652E+02  0.14715374226E+03 -0.80055829834E+03  0.83269928399E+03  0.17300000000E+03 0.  1.
</event>
<event>
 4    1  0.5943823E+000  0.1000000E+03  0.7546771E-02  0.1280296E+00
         21   -1    0    0  501  502  0.00000000000E+00  0.00000000000E+00  0.59726669246E+02  0.59726669246E+02  0.00000000000E+00 0. -1.
         21   -1    0    0  502  503 -0.00000000000E+00 -0.00000000000E+00 -0.56469670070E+03  0.56469670070E+03  0.00000000000E+00 0.  1.
          6    1    1    2  501    0 -0.26987841072E+02  0.55304594605E+02 -0.25825294447E+03  0.31687619834E+03  0.17300000000E+03 0. -1.
         -6    1    1    2    0  503  0.26987841072E+02 -0.55304594605E+02 -0.24671708699E+03  0.30754717161E+03  0.17300000000E+03 0.  1.
</event>
<event>
 4    1  0.5943823E+000  0.1000000E+03  0.7546771E-02  0.1280296E+00
         21   -1    0    0  501  502  0.00000000000E+00  0.00000000000E+00  0.13734509772E+04  0.13734509772E+04  0.00000000000E+00 0. -1.
         21   -1    0    0  502  503 -0.00000000000E+00 -0.00000000000E+00 -0.30606660609E+02  0.30606660609E+02  0.00000000000E+00 0.  1.
          6    1    1    2  501    0  0.62962257094E+02  0.89127333511E+02  0.71982383777E+03  0.74832030897E+03  0.17300000000E+03 0. -1.
         -6    1    1    2    0  503 -0.62962257094E+02 -0.89127333511E+02  0.62302047877E+03  0.65573732879E+03  0.17300000000E+03 0.  1.
</event>
<event>
 4    1  0.5943823E+000  0.1000000E+03  0.7546771E-02  0.1280296E+00
         21   -1    0    0  501  502  0.00000000000E+00  0.00000000000E+00  0.22096465056E+04  0.22096465056E+04  0.00000000000E+00 0. -1.
         21   -1    0    0  502  503 -0.00000000000E+00 -0.00000000000E+00 -0.13978152290E+02  0.13978152290E+02  0.00000000000E+00 0.  1.
          6    1    1    2  501    0 -0.12705773646E+02  0.28210227521E+02  0.10932646381E+04  0.11073002404E+04  0.17300000000E+03 0. -1.
         -6    1    1    2    0  503  0.12705773646E+02 -0.28210227521E+02  0.11024037152E+04  0.11163244174E+04  0.17300000000E+03 0.  1.
</event>
<event>
 4    1  0.5943823E+000  0.1000000E+03  0.7546771E-02  0.1280296E+00
         21   -1    0    0  501  502  0.00000000000E+00  0.00000000000E+00  0.84607884943E+02  0.84607884943E+02  0.00000000000E+00 0. -1.
         21   -1    0    0  502  503 -0.00000000000E+00 -0.00000000000E+00 -0.84781988319E+03  0.84781988319E+03  0.00000000000E+00 0. -1.
          6    1    1    2  501    0  0.17942587672E+03 -0.54054887810E+02 -0.23925338899E+03  0.34969523914E+03  0.17300000000E+03 0. -1.
         -6    1    1    2    0  503 -0.17942587672E+03  0.54054887810E+02 -0.52395860925E+03  0.58273252899E+03  0.17300000000E+03 0. -1.
</event>
<event>
 4    1  0.5943823E+000  0.1000000E+03  0.7546771E-02  0.1280296E+00
         21   -1    0    0  501  502  0.00000000000E+00  0.00000000000E+00  0.24043832084E+03  0.24043832084E+03  0.00000000000E+00 0. -1.
         21   -1    0    0  502  503 -0.00000000000E+00 -0.00000000000E+00 -0.60487702444E+03  0.60487702444E+03  0.00000000000E+00 0. -1.
          6    1    1    2  501    0 -0.17468034401E+03  0.32543223155E+02  0.13886799335E+03  0.28422808365E+03  0.17300000000E+03 0. -1.
         -6    1    1    2    0  503  0.17468034401E+03 -0.32543223155E+02 -0.50330669695E+03  0.56108726162E+03  0.17300000000E+03 0. -1.
</event>
<event>
 4    1  0.5943823E+000  0.1000000E+03  0.7546771E-02  0.1280296E+00
         21   -1    0    0  501  502  0.00000000000E+00  0.00000000000E+00  0.32329813776E+03  0.32329813776E+03  0.00000000000E+00 0. -1.
         21   -1    0    0  502  503 -0.00000000000E+00 -0.00000000000E+00 -0.16469728620E+03  0.16469728620E+03  0.00000000000E+00 0. -1.
          6    1    1    2  501    0 -0.45585626255E+02 -0.62066296302E+02  0.21872967878E+03  0.28931288743E+03  0.17300000000E+03 0. -1.
         -6    1    1    2    0  503  0.45585626255E+02  0.62066296302E+02 -0.60128827222E+02  0.19868253653E+03  0.17300000000E+03 0. -1.
</event>
<event>
 4    1  0.5943823E+000  0.1000000E+03  0.7546771E-02  0.1280296E+00
         21   -1    0    0  501  502  0.00000000000E+00  0.00000000000E+00  0.92318312238E+03  0.92318312238E+03  0.00000000000E+00 0.  1.
         21   -1    0    0  502  503 -0.00000000000E+00 -0.00000000000E+00 -0.49567810164E+02  0.49567810164E+02  0.00000000000E+00 0. -1.
          6    1    1    2  501    0  0.24554884308E+02  0.32757755068E+02  0.16629652019E+03  0.24343283568E+03  0.17300000000E+03 0.  1.
         -6    1    1    2    0  503 -0.24554884308E+02 -0.32757755068E+02  0.70731879202E+03  0.72931809686E+03  0.17300000000E+03 0. -1.
</event>
<event>
 4    1  0.5943823E+000  0.1000000E+03  0.7546771E-02  0.1280296E+00
         21   -1    0    0  501  502  0.00000000000E+00  0.00000000000E+00  0.67826033276E+02  0.67826033276E+02  0.00000000000E+00 0.  1.
         21   -1    0    0  502  503 -0.00000000000E+00 -0.00000000000E+00 -0.75005713218E+03  0.75005713218E+03  0.00000000000E+00 0. -1.
          6    1    1    2  501    0 -0.57717939624E+02 -0.12412830224E+03 -0.42625685020E+03  0.47996155920E+03  0.17300000000E+03 0.  1.
         -6    1    1    2    0  503  0.57717939624E+02  0.12412830224E+03 -0.25597424870E+03  0.33792160625E+03  0.17300000000E+03 0. -1.
</event>
<event>
 4    1  0.5943823E+000  0.1000000E+03  0.7546771E-02  0.1280296E+00
         21   -1    0    0  501  502  0.00000000000E+00  0.00000000000E+00  0.86321586118E+03  0.86321586118E+03  0.00000000000E+00 0.  1.
         21   -1    0    0  502  503 -0.00000000000E+00 -0.00000000000E+00 -0.11903346436E+03  0.11903346436E+03  0.00000000000E+00 0. -1.
          6    1    1    2  501    0  0.24314947619E+03  0.11626458028E+03  0.39284325512E+03  0.50684706124E+03  0.17300000000E+03 0.  1.
         -6    1    1    2    0  503 -0.24314947619E+03 -0.11626458028E+03  0.35133914170E+03  0.47540226429E+03  0.17300000000E+03 0. -1.
</event>
<event>
 4    1  0.5943823E+000  0.1000000E+03  0.7546771E-02  0.1280296E+00
         21   -1    0    0  501  502  0.00000000000E+00  0.00000000000E+00  0.72171589565E+02  0.72171589565E+02  0.00000000000E+00 0.  1.
         21   -1    0    0  502  503 -0.00000000000E+00 -0.00000000000E+00 -0.10577627149E+04  0.10577627149E+04  0.00000000000E+00 0. -1.
          6    1    1    2  501    0 -0.49201066640E+02  0.11183174090E+03 -0.12997391920E+03  0.24849407016E+03  0.17300000000E+03 0.  1.
         -6    1    1    2    0  503  0.49201066640E+02 -0.11183174090E+03 -0.85561720616E+03  0.88144023434E+03  0.17300000000E+03 0.  1.
</event>
<event>
 4    1  0.5943823E+000  0.1000000E+03  0.7546771E-02  0.1280296E+00
         21   -1    0    0  501  502  0.00000000000E+00  0.00000000000E+00  0.99239151442E+03  0.99239151442E+03  0.00000000000E+00 0.  1.
         21   -1    0    0  502  503 -0.00000000000E+00 -0.00000000000E+00 -0.19259476053E+03  0.19259476053E+03  0.00000000000E+00 0. -1.
          6    1    1    2  501    0 -0.18362113175E+03 -0.51938576045E+02  0.87864158280E+03  0.91561693231E+03  0.17300000000E+03 0.  1.
         -6    1    1    2    0  503  0.18362113175E+03  0.51938576045E+02 -0.78844828911E+02  0.26936934264E+03  0.17300000000E+03 0.  1.
</event>
<event>
 4    1  0.5943823E+000  0.1000000E+03  0.7546771E-02  0.1280296E+00
         21   -1    0    0  501  502  0.00000000000E+00  0.00000000000E+00  0.26362033482E+03  0.26362033482E+03  0.00000000000E+00 0. -1.
         21   -1    0    0  502  503 -0.00000000000E+00 -0.00000000000E+00 -0.58070921031E+03  0.58070921031E+03  0.00000000000E+00 0.  1.
          6    1    1    2  501    0 -0.27841585007E+03 -0.15324545453E+00  0.71969487601E+02  0.33559501814E+03  0.17300000000E+03 0. -1.
         -6    1    1    2    0  503  0.27841585007E+03  0.15324545453E+00 -0.38905836309E+03  0.50873452698E+03  0.17300000000E+03 0.  1.
</event>
<event>
 4    1  0.5943823E+000  0.1000000E+03  0.7546771E-02  0.1280296E+00
         21   -1    0    0  503  502  0.00000000000E+00  0.00000000000E+00  0.17318070893E+03  0.17318070893E+03  0.00000000000E+00 0. -1.
         21   -1    0    0  501  503 -0.00000000000E+00 -0.00000000000E+00 -0.34057183803E+03  0.34057183803E+03  0.00000000000E+00 0. -1.
          6    1    1    2  501    0 -0.10482597036E+03  0.49621198734E+02 -0.21580756198E+03  0.29992107501E+03  0.17300000000E+03 0. -1.
         -6    1    1    2    0  502  0.10482597036E+03 -0.49621198734E+02  0.48416432877E+02  0.21383147195E+03  0.17300000000E+03 0. -1.
</event>
<event>
 4    1  0.5943823E+000  0.1000000E+03  0.7546771E-02  0.1280296E+00
         21   -1    0    0  503  502  0.00000000000E+00  0.00000000000E+00  0.60856678212E+03  0.60856678212E+03  0.00000000000E+00 0. -1.
         21   -1    0    0  501  503 -0.00000000000E+00 -0.00000000000E+00 -0.21273879210E+03  0.21273879210E+03  0.00000000000E+00 0. -1.
          6    1    1    2  501    0 -0.11977942017E+02 -0.31488143065E+03  0.18012388189E+03  0.40207884711E+03  0.17300000000E+03 0. -1.
         -6    1    1    2    0  502  0.11977942017E+02  0.31488143065E+03  0.21570410812E+03  0.41922672711E+03  0.17300000000E+03 0. -1.
</event>
<event>
 4    1  0.5943823E+000  0.1000000E+03  0.7546771E-02  0.1280296E+00
         21   -1    0    0  503  502  0.00000000000E+00  0.00000000000E+00  0.21952629122E+03  0.21952629122E+03  0.00000000000E+00 0.  1.
         21   -1    0    0  501  503 -0.00000000000E+00 -0.00000000000E+00 -0.42146782200E+03  0.42146782200E+03  0.00000000000E+00 0.  1.
          6    1    1    2  501    0 -0.16172800768E+03  0.10754744120E+00 -0.30210114060E+03  0.38386203145E+03  0.17300000000E+03 0.  1.
         -6    1    1    2    0  502  0.16172800768E+03 -0.10754744120E+00  0.10015960981E+03  0.25713208177E+03  0.17300000000E+03 0.  1.
</event>
<event>
 4    1  0.5943823E+000  0.1000000E+03  0.7546771E-02  0.1280296E+00
         21   -1    0    0  503  502  0.00000000000E+00  0.00000000000E+00  0.33743110018E+03  0.33743110018E+03  0.00000000000E+00 0.  1.
         21   -1    0    0  501  503 -0.00000000000E+00 -0.00000000000E+00 -0.97029365633E+02  0.97029365633E+02  0.00000000000E+00 0.  1.
          6    1    1    2  501    0 -0.38297559039E+01 -0.49878194912E+02  0.99089669172E+02  0.20554868984E+03  0.17300000000E+03 0.  1.
         -6    1    1    2    0  502  0.38297559039E+01  0.49878194912E+02  0.14131206537E+03  0.22891177597E+03  0.17300000000E+03 0.  1.
</event>
<event>
 4    1  0.5943823E+000  0.1000000E+03  0.7546771E-02  0.1280296E+00
         21   -1    0    0  501  502  0.00000000000E+00  0.00000000000E+00  0.56043053687E+02  0.56043053687E+02  0.00000000000E+00 0.  1.
         21   -1    0    0  502  503 -0.00000000000E+00 -0.00000000000E+00 -0.63500551505E+03  0.63500551505E+03  0.00000000000E+00 0.  1.
          6    1    1    2  501    0 -0.57380139386E+02  0.45900203256E+02 -0.25998524283E+03  0.32081246164E+03  0.17300000000E+03 0.  1.
         -6    1    1    2    0  503  0.57380139386E+02 -0.45900203256E+02 -0.31897721853E+03  0.37023610709E+03  0.17300000000E+03 0.  1.
</event>
<event>
 4    1  0.5943823E+000  0.1000000E+03  0.7546771E-02  0.1280296E+00
         21   -1    0    0  501  502  0.00000000000E+00  0.00000000000E+00  0.24860903910E+02  0.24860903910E+02  0.00000000000E+00 0.  1.
         21   -1    0    0  502  503 -0.00000000000E+00 -0.00000000000E+00 -0.22976506708E+04  0.22976506708E+04  0.00000000000E+00 0.  1.
          6    1    1    2  501    0 -0.10428736546E+02 -0.15910417066E+03 -0.13407976135E+04  0.13612825335E+04  0.17300000000E+03 0.  1.
         -6    1    1    2    0  503  0.10428736546E+02  0.15910417066E+03 -0.93199215333E+03  0.96122904114E+03  0.17300000000E+03 0.  1.
</event>
<event>
 4    1  0.5943823E+000  0.1000000E+03  0.7546771E-02  0.1280296E+00
         21   -1    0    0  501  502  0.00000000000E+00  0.00000000000E+00  0.15110454562E+03  0.15110454562E+03  0.00000000000E+00 0.  1.
         21   -1    0    0  502  503 -0.00000000000E+00 -0.00000000000E+00 -0.48122500189E+03  0.48122500189E+03  0.00000000000E+00 0.  1.
          6    1    1    2  501    0  0.54420903163E+02  0.36920044770E+02  0.64879533415E+02  0.19612006084E+03  0.17300000000E+03 0.  1.
         -6    1    1    2    0  503 -0.54420903163E+02 -0.36920044770E+02 -0.39499998969E+03  0.43620948667E+03  0.17300000000E+03 0.  1.
</event>
<event>
 4    1  0.5943823E+000  0.1000000E+03  0.7546771E-02  0.1280296E+00
         21   -1    0    0  503  502  0.00000000000E+00  0.00000000000E+00  0.11064030939E+03  0.11064030939E+03  0.00000000000E+00 0.  1.
         21   -1    0    0  501  503 -0.00000000000E+00 -0.00000000000E+00 -0.69594211936E+03  0.69594211936E+03  0.00000000000E+00 0. -1.
          6    1    1    2  501    0 -0.63358656877E+02  0.35949230165E+02 -0.58966317747E+03  0.61882011070E+03  0.17300000000E+03 0. -1.
         -6    1    1    2    0  502  0.63358656877E+02 -0.35949230165E+02  0.43613674970E+01  0.18776231804E+03  0.17300000000E+03 0.  1.
</event>
<event>
 4    1  0.5943823E+000  0.1000000E+03  0.7546771E-02  0.1280296E+00
         21   -1    0    0  503  502  0.00000000000E+00  0.00000000000E+00  0.75233267088E+03  0.75233267088E+03  0.00000000000E+00 0.  1.
         21   -1    0    0  501  503 -0.00000000000E+00 -0.00000000000E+00 -0.89061118533E+02  0.89061118533E+02  0.00000000000E+00 0. -1.
          6    1    1    2  501    0  0.18404562368E+02 -0.68781982340E+02  0.40879892882E+02  0.19149374573E+03  0.17300000000E+03 0. -1.
         -6    1    1    2    0  502 -0.18404562368E+02  0.68781982340E+02  0.62239165947E+03  0.64990004369E+03  0.17300000000E+03 0.  1.
</event>
<event>
 4    1  0.5943823E+000  0.1000000E+03  0.7546771E-02  0.1280296E+00
         21   -1    0    0  503  502  0.00000000000E+00  0.00000000000E+00  0.62750324363E+02  0.62750324363E+02  0.00000000000E+00 0.  1.
         21   -1    0    0  501  503 -0.00000000000E+00 -0.00000000000E+00 -0.18819239124E+04  0.18819239124E+04  0.00000000000E+00 0. -1.
          6    1    1    2  501    0  0.57329964147E+02  0.13270322269E+03 -0.16434310922E+04  0.16588223609E+04  0.17300000000E+03 0. -1.
         -6    1    1    2    0  502 -0.57329964147E+02 -0.13270322269E+03 -0.17574249579E+03  0.28585187585E+03  0.17300000000E+03 0.  1.
</event>
<event>
 4    1  0.5943823E+000  0.1000000E+03  0.7546771E-02  0.1280296E+00
         21   -1    0    0  501  502  0.00000000000E+00  0.00000000000E+00  0.60957478140E+03  0.60957478140E+03  0.00000000000E+00 0.  1.
         21   -1    0    0  502  503 -0.00000000000E+00 -0.00000000000E+00 -0.10306818712E+03  0.10306818712E+03  0.00000000000E+00 0.  1.
          6    1    1    2  501    0 -0.79301977300E+02  0.16210959869E+03  0.27909456652E+03  0.37468800709E+03  0.17300000000E+03 0.  1.
         -6    1    1    2    0  503  0.79301977300E+02 -0.16210959869E+03  0.22741202776E+03  0.33795496144E+03  0.17300000000E+03 0.  1.
</event>
<event>
 4    1  0.5943823E+000  0.1000000E+03  0.7546771E-02  0.1280296E+00
         21   -1    0    0  501  502  0.00000000000E+00  0.00000000000E+00  0.20245932725E+04  0.20245932725E+04  0.00000000000E+00 0.  1.
         21   -1    0    0  502  503 -0.00000000000E+00 -0.00000000000E+00 -0.31448488918E+02  0.31448488918E+02  0.00000000000E+00 0. -1.
          6    1    1    2  501    0 -0.79333173555E+02  0.10626285840E+03  0.15144153530E+04  0.15300223557E+04  0.17300000000E+03 0.  1.
         -6    1    1    2    0  503  0.79333173555E+02 -0.10626285840E+03  0.47872943061E+03  0.52601940576E+03  0.17300000000E+03 0. -1.
</event>
<event>
 4    1  0.5943823E+000  0.1000000E+03  0.7546771E-02  0.1280296E+00
         21   -1    0    0  503  502  0.00000000000E+00  0.00000000000E+00  0.75123367585E+02  0.75123367585E+02  0.00000000000E+00 0. -1.
         21   -1    0    0  501  503 -0.00000000000E+00 -0.00000000000E+00 -0.65490230097E+03  0.65490230097E+03  0.00000000000E+00 0.  1.
          6    1    1    2  501    0  0.12607826396E+02 -0.59266866348E+01 -0.51717353294E+03  0.54551951942E+03  0.17300000000E+03 0.  1.
         -6    1    1    2    0  502 -0.12607826396E+02  0.59266866348E+01 -0.62605400443E+02  0.18450614913E+03  0.17300000000E+03 0. -1.
</event>
<event>
 4    1  0.5943823E+000  0.1000000E+03  0.7546771E-02  0.1280296E+00
         21   -1    0    0  501  502  0.00000000000E+00  0.00000000000E+00  0.12281448413E+04  0.12281448413E+04  0.00000000000E+00 0. -1.
         21   -1    0    0  502  503 -0.00000000000E+00 -0.00000000000E+00 -0.12404495737E+03  0.12404495737E+03  0.00000000000E+00 0. -1.
          6    1    1    2  501    0  0.17230204450E+03 -0.10390330142E+03  0.10478662862E+04  0.10809424796E+04  0.17300000000E+03 0. -1.
         -6    1    1    2    0  503 -0.17230204450E+03  0.10390330142E+03  0.56233597810E+02  0.27124731908E+03  0.17300000000E+03 0. -1.
</event>
<event>
 4    1  0.5943823E+000  0.1000000E+03  0.7546771E-02  0.1280296E+00
         21   -1    0    0  501  502  0.00000000000E+00  0.00000000000E+00  0.59680289333E+03  0.59680289333E+03  0.00000000000E+00 0. -1.
         21   -1    0    0  502  503 -0.00000000000E+00 -0.00000000000E+00 -0.48924865588E+03  0.48924865588E+03  0.00000000000E+00 0. -1.
          6    1    1    2  501    0  0.30196121582E+03  0.40875790862E+03  0.11566388436E+03  0.54915456646E+03  0.17300000000E+03 0. -1.
         -6    1    1    2    0  503 -0.30196121582E+03 -0.40875790862E+03 -0.81096469097E+01  0.53689698275E+03  0.17300000000E+03 0. -1.
</event>
<event>
 4    1  0.5943823E+000  0.1000000E+03  0.7546771E-02  0.1280296E+00
         21   -1    0    0  501  502  0.00000000000E+00  0.00000000000E+00  0.46545761991E+03  0.46545761991E+03  0.00000000000E+00 0. -1.
         21   -1    0    0  502  503 -0.00000000000E+00 -0.00000000000E+00 -0.36754620406E+03  0.36754620406E+03  0.00000000000E+00 0. -1.
          6    1    1    2  501    0 -0.13283193723E+03  0.23415931855E+03  0.31284078082E+03  0.44751900983E+03  0.17300000000E+03 0. -1.
         -6    1    1    2    0  503  0.13283193723E+03 -0.23415931855E+03 -0.21492936497E+03  0.38548481415E+03  0.17300000000E+03 0. -1.
</event>
<event>
 4    1  0.5943823E+000  0.1000000E+03  0.7546771E-02  0.1280296E+00
         21   -1    0    0  503  502  0.00000000000E+00  0.00000000000E+00  0.28146806993E+03  0.28146806993E+03  0.00000000000E+00 0. -1.
         21   -1    0    0  501  503 -0.00000000000E+00 -0.00000000000E+00 -0.14774229989E+03  0.14774229989E+03  0.00000000000E+00 0. -1.
          6    1    1    2  501    0 -0.60081382682E+02  0.35556178322E+01  0.16118659727E+03  0.24399289765E+03  0.17300000000E+03 0. -1.
         -6    1    1    2    0  502  0.60081382682E+02 -0.35556178322E+01 -0.27460827231E+02  0.18521747217E+03  0.17300000000E+03 0. -1.
</event>
<event>
 4    1  0.5943823E+000  0.1000000E+03  0.7546771E-02  0.1280296E+00
         21   -1    0    0  503  502  0.00000000000E+00  0.00000000000E+00  0.57280139349E+03  0.57280139349E+03  0.00000000000E+00 0. -1.
         21   -1    0    0  501  503 -0.00000000000E+00 -0.00000000000E+00 -0.26929499766E+03  0.26929499766E+03  0.00000000000E+00 0. -1.
          6    1    1    2  501    0 -0.10595585145E+03 -0.16462675661E+03 -0.16262475345E+03  0.30774083558E+03  0.17300000000E+03 0. -1.
         -6    1    1    2    0  502  0.10595585145E+03  0.16462675661E+03  0.46613114927E+03  0.53435555557E+03  0.17300000000E+03 0. -1.
</event>
<event>
 4    1  0.5943823E+000  0.1000000E+03  0.7546771E-02  0.1280296E+00
         21   -1    0    0  503  502  0.00000000000E+00  0.00000000000E+00  0.51920363294E+02  0.51920363294E+02  0.00000000000E+00 0. -1.
         21   -1    0    0  501  503 -0.00000000000E+00 -0.00000000000E+00 -0.75087906685E+03  0.75087906685E+03  0.00000000000E+00 0. -1.
          6    1    1    2  501    0  0.84377770511E+02  0.14121312430E+02 -0.26473029336E+03  0.32761280171E+03  0.17300000000E+03 0. -1.
         -6    1    1    2    0  502 -0.84377770511E+02 -0.14121312430E+02 -0.43422841020E+03  0.47518662843E+03  0.17300000000E+03 0. -1.
</event>
<event>
 4    1  0.5943823E+000  0.1000000E+03  0.7546771E-02  0.1280296E+00
         21   -1    0    0  501  502  0.00000000000E+00  0.00000000000E+00  0.25104225891E+03  0.25104225891E+03  0.00000000000E+00 0.  1.
         21   -1    0    0  502  503 -0.00000000000E+00 -0.00000000000E+00 -0.33520996337E+03  0.33520996337E+03  0.00000000000E+00 0. -1.
          6    1    1    2  501    0 -0.12645972803E+03 -0.18551367416E+03 -0.10450003975E+03  0.30208714707E+03  0.17300000000E+03 0.  1.
         -6    1    1    2    0  503  0.12645972803E+03  0.18551367416E+03  0.20332335291E+02  0.28416507522E+03  0.17300000000E+03 0. -1.
</event>
<event>
 4    1  0.5943823E+000  0.1000000E+03  0.7546771E-02  0.1280296E+00
         21   -1    0    0  501  502  0.00000000000E+00  0.00000000000E+00  0.11962114189E+03  0.11962114189E+03  0.00000000000E+00 0.  1.
         21   -1    0    0  502  503 -0.00000000000E+00 -0.00000000000E+00 -0.91027886451E+03  0.91027886451E+03  0.00000000000E+00 0. -1.
          6    1    1    2  501    0 -0.21489209403E+03  0.18088883175E+03 -0.38321929267E+03  0.50565344635E+03  0.17300000000E+03 0.  1.
         -6    1    1    2    0  503  0.21489209403E+03 -0.18088883175E+03 -0.40743842995E+03  0.52424656006E+03  0.17300000000E+03 0. -1.
</event>
<event>
 4    1  0.5943823E+000  0.1000000E+03  0.7546771E-02  0.1280296E+00
         21   -1    0    0  501  502  0.00000000000E+00  0.00000000000E+00  0.49172221015E+02  0.49172221015E+02  0.00000000000E+00 0. -1.
         21   -1    0    0  502  503 -0.00000000000E+00 -0.00000000000E+00 -0.12932453054E+04  0.12932453054E+04  0.00000000000E+00 0.  1.
          6    1    1    2  501    0 -0.67282758782E+02  0.54066701835E+02 -0.19110129296E+03  0.27184348814E+03  0.17300000000E+03 0. -1.
         -6    1    1    2    0  503  0.67282758782E+02 -0.54066701835E+02 -0.10529717914E+04  0.10705740383E+04  0.17300000000E+03 0.  1.
</event>
<event>
 4    1  0.5943823E+000  0.1000000E+03  0.7546771E-02  0.1280296E+00
         21   -1    0    0  501  502  0.00000000000E+00  0.00000000000E+00  0.16442815597E+03  0.16442815597E+03  0.00000000000E+00 0. -1.
         21   -1    0    0  502  503 -0.00000000000E+00 -0.00000000000E+00 -0.40968441067E+03  0.40968441067E+03  0.00000000000E+00 0.  1.
          6    1    1    2  501    0 -0.15619405441E+03  0.19186510494E+02  0.18639317909E+01  0.23387428046E+03  0.17300000000E+03 0. -1.
         -6    1    1    2    0  503  0.15619405441E+03 -0.19186510494E+02 -0.24712018648E+03  0.34023828618E+03  0.17300000000E+03 0.  1.
</event>
<event>
 4    1  0.5943823E+000  0.1000000E+03  0.7546771E-02  0.1280296E+00
         21   -1    0    0  501  502  0.00000000000E+00  0.00000000000E+00  0.12182819023E+03  0.12182819023E+03  0.00000000000E+00 0. -1.
         21   -1    0    0  502  503 -0.00000000000E+00 -0.00000000000E+00 -0.28193327008E+03  0.28193327008E+03  0.00000000000E+00 0.  1.
          6    1    1    2  501    0 -0.25174185738E+02 -0.25912697288E+02 -0.19273729975E+02  0.17777987562E+03  0.17300000000E+03 0. -1.
         -6    1    1    2    0  503  0.25174185738E+02  0.25912697288E+02 -0.14083134988E+03  0.22598158468E+03  0.17300000000E+03 0.  1.
</event>
<event>
 4    1  0.5943823E+000  0.1000000E+03  0.7546771E-02  0.1280296E+00
         21   -1    0    0  501  502  0.00000000000E+00  0.00000000000E+00  0.70658946435E+03  0.70658946435E+03  0.00000000000E+00 0. -1.
         21   -1    0    0  502  503 -0.00000000000E+00 -0.00000000000E+00 -0.75318232223E+02  0.75318232223E+02  0.00000000000E+00 0.  1.
          6    1    1    2  501    0 -0.14214936826E+01 -0.58442195261E+02  0.55453704472E+03  0.58383032193E+03  0.17300000000E+03 0. -1.
         -6    1    1    2    0  503  0.14214936826E+01  0.58442195261E+02  0.76734187409E+02  0.19807737465E+03  0.17300000000E+03 0.  1.
</event>
<event>
 4    1  0.5943823E+000  0.1000000E+03  0.7546771E-02  0.1280296E+00
         21   -1    0    0  501  502  0.00000000000E+00  0.00000000000E+00  0.14849004194E+03  0.14849004194E+03  0.00000000000E+00 0. -1.
         21   -1    0    0  502  503 -0.00000000000E+00 -0.00000000000E+00 -0.23093619209E+03  0.23093619209E+03  0.00000000000E+00 0.  1.
          6    1    1    2  501    0 -0.38350840923E+02 -0.44226225140E+02 -0.98804249801E+01  0.18290262105E+03  0.17300000000E+03 0. -1.
         -6    1    1    2    0  503  0.38350840923E+02  0.44226225140E+02 -0.72565725175E+02  0.19652361298E+03  0.17300000000E+03 0.  1.
</event>
<event>
 4    1  0.5943823E+000  0.1000000E+03  0.7546771E-02  0.1280296E+00
         21   -1    0    0  503  502  0.00000000000E+00  0.00000000000E+00  0.11967408271E+04  0.11967408271E+04  0.00000000000E+00 0.  1.
         21   -1    0    0  501  503 -0.00000000000E+00 -0.00000000000E+00 -0.15977256579E+03  0.15977256579E+03  0.00000000000E+00 0. -1.
          6    1    1    2  501    0  0.16815046961E+03  0.15705779503E+03  0.79455453770E+01  0.28798240068E+03  0.17300000000E+03 0. -1.
         -6    1    1    2    0  502 -0.16815046961E+03 -0.15705779503E+03  0.10290227159E+04  0.10685309922E+04  0.17300000000E+03 0.  1.
</event>
<event>
 4    1  0.5943823E+000  0.1000000E+03  0.7546771E-02  0.1280296E+00
         21   -1    0    0  503  502  0.00000000000E+00  0.00000000000E+00  0.17135198793E+03  0.17135198793E+03  0.00000000000E+00 0.  1.
         21   -1    0    0  501  503 -0.00000000000E+00 -0.00000000000E+00 -0.37629264242E+03  0.37629264242E+03  0.00000000000E+00 0. -1.
          6    1    1    2  501    0  0.15654630376E+03 -0.66113951523E+02 -0.18368186613E+03  0.30421345755E+03  0.17300000000E+03 0. -1.
         -6    1    1    2    0  502 -0.15654630376E+03  0.66113951523E+02 -0.21258788355E+02  0.24343117280E+03  0.17300000000E+03 0.  1.
</event>
<event>
 4    1  0.5943823E+000  0.1000000E+03  0.7546771E-02  0.1280296E+00
         21   -1    0    0  503  502  0.00000000000E+00  0.00000000000E+00  0.16435188405E+03  0.16435188405E+03  0.00000000000E+00 0. -1.
         21   -1    0    0  501  503 -0.00000000000E+00 -0.00000000000E+00 -0.24278814649E+03  0.24278814649E+03  0.00000000000E+00 0. -1.
          6    1    1    2  501    0  0.74899432278E+02  0.49272338407E+02 -0.84058122162E+02  0.21220852054E+03  0.17300000000E+03 0. -1.
         -6    1    1    2    0  502 -0.74899432278E+02 -0.49272338407E+02  0.56218597207E+01  0.19493151001E+03  0.17300000000E+03 0. -1.
</event>
<event>
 4    1  0.5943823E+000  0.1000000E+03  0.7546771E-02  0.1280296E+00
         21   -1    0    0  503  502  0.00000000000E+00  0.00000000000E+00  0.18027749594E+03  0.18027749594E+03  0.00000000000E+00 0. -1.
         21   -1    0    0  501  503 -0.00000000000E+00 -0.00000000000E+00 -0.32326194486E+03  0.32326194486E+03  0.00000000000E+00 0. -1.
          6    1    1    2  501    0  0.95941377103E+02 -0.59610364425E+02 -0.20171126001E+03  0.28874655981E+03  0.17300000000E+03 0. -1.
         -6    1    1    2    0  502 -0.95941377103E+02  0.59610364425E+02  0.58726811088E+02  0.21479288100E+03  0.17300000000E+03 0. -1.
</event>
<event>
 4    1  0.5943823E+000  0.1000000E+03  0.7546771E-02  0.1280296E+00
         21   -1    0    0  501  502  0.00000000000E+00  0.00000000000E+00  0.20238967834E+03  0.20238967834E+03  0.00000000000E+00 0.  1.
         21   -1    0    0  502  503 -0.00000000000E+00 -0.00000000000E+00 -0.15797224044E+03  0.15797224044E+03  0.00000000000E+00 0.  1.
          6    1    1    2  501    0 -0.23195991161E+02 -0.29949116086E+02  0.47054766840E+02  0.18324343001E+03  0.17300000000E+03 0.  1.
         -6    1    1    2    0  503  0.23195991161E+02  0.29949116086E+02 -0.26373289441E+01  0.17711848877E+03  0.17300000000E+03 0.  1.
</event>
<event>
 4    1  0.5943823E+000  0.1000000E+03  0.7546771E-02  0.1280296E+00
         21   -1    0    0  501  502  0.00000000000E+00  0.00000000000E+00  0.11292073309E+04  0.11292073309E+04  0.00000000000E+00 0. -1.
         21   -1    0    0  502  503 -0.00000000000E+00 -0.00000000000E+00 -0.10924516480E+03  0.10924516480E+03  0.00000000000E+00 0. -1.
          6    1    1    2  501    0  0.76972504079E+02  0.13772943783E+03  0.97153753035E+03  0.99935395997E+03  0.17300000000E+03 0. -1.
         -6    1    1    2    0  503 -0.76972504079E+02 -0.13772943783E+03  0.48424635724E+02  0.23909853570E+03  0.17300000000E+03 0. -1.
</event>
<event>
 4    1  0.5943823E+000  0.1000000E+03  0.7546771E-02  0.1280296E+00
         21   -1    0    0  501  502  0.00000000000E+00  0.00000000000E+00  0.42196310488E+02  0.42196310488E+02  0.00000000000E+00 0. -1.
         21   -1    0    0  502  503 -0.00000000000E+00 -0.00000000000E+00 -0.75165670978E+03  0.75165670978E+03  0.00000000000E+00 0. -1.
          6    1    1    2  501    0 -0.33826976510E+02 -0.22824699144E+02 -0.37943915397E+03  0.41900871447E+03  0.17300000000E+03 0. -1.
         -6    1    1    2    0  503  0.33826976510E+02  0.22824699144E+02 -0.33002124532E+03  0.37484430581E+03  0.17300000000E+03 0. -1.
</event>
<event>
 4    1  0.5943823E+000  0.1000000E+03  0.7546771E-02  0.1280296E+00
         21   -1    0    0  501  502  0.00000000000E+00  0.00000000000E+00  0.33238170600E+03  0.33238170600E+03  0.00000000000E+00 0. -1.
         21   -1    0    0  502  503 -0.00000000000E+00 -0.00000000000E+00 -0.17735418692E+03  0.17735418692E+03  0.00000000000E+00 0. -1.
          6    1    1    2  501    0  0.69507939867E+02  0.76011203237E+02  0.21994896558E+03  0.29818719654E+03  0.17300000000E+03 0. -1.
         -6    1    1    2    0  503 -0.69507939867E+02 -0.76011203237E+02 -0.64921446500E+02  0.21154869637E+03  0.17300000000E+03 0. -1.
</event>
<event>
 4    1  0.5943823E+000  0.1000000E+03  0.7546771E-02  0.1280296E+00
         21   -1    0    0  501  502  0.00000000000E+00  0.00000000000E+00  0.85622349380E+03  0.85622349380E+03  0.00000000000E+00 0.  1.
         21   -1    0    0  502  503 -0.00000000000E+00 -0.00000000000E+00 -0.49354750834E+02  0.49354750834E+02  0.00000000000E+00 0.  1.
          6    1    1    2  501    0 -0.28735655361E+02  0.10595727297E+03  0.36677457464E+03  0.42012530296E+03  0.17300000000E+03 0.  1.
         -6    1    1    2    0  503  0.28735655361E+02 -0.10595727297E+03  0.44009416833E+03  0.48545294168E+03  0.17300000000E+03 0.  1.
</event>
<event>
 4    1  0.5943823E+000  0.1000000E+03  0.7546771E-02  0.1280296E+00
         21   -1    0    0  501  502  0.00000000000E+00  0.00000000000E+00  0.16898990608E+03  0.16898990608E+03  0.00000000000E+00 0.  1.
         21   -1    0    0  502  503 -0.00000000000E+00 -0.00000000000E+00 -0.29241621232E+03  0.29241621232E+03  0.00000000000E+00 0.  1.
          6    1    1    2  501    0 -0.11805383451E+03 -0.66593658827E+02 -0.27059193246E+02  0.22143311220E+03  0.17300000000E+03 0.  1.
         -6    1    1    2    0  503  0.11805383451E+03  0.66593658827E+02 -0.96367112995E+02  0.23997300620E+03  0.17300000000E+03 0.  1.
</event>
<event>
 4    1  0.5943823E+000  0.1000000E+03  0.7546771E-02  0.1280296E+00
         21   -1    0    0  501  502  0.00000000000E+00  0.00000000000E+00  0.37141435061E+03  0.37141435061E+03  0.00000000000E+00 0.  1.
         21   -1    0    0  502  503 -0.00000000000E+00 -0.00000000000E+00 -0.13697769738E+03  0.13697769738E+03  0.00000000000E+00 0.  1.
          6    1    1    2  501    0 -0.81422016311E+02 -0.77516068288E+02  0.21994136907E+03  0.30156506994E+03  0.17300000000E+03 0.  1.
         -6    1    1    2    0  503  0.81422016311E+02  0.77516068288E+02  0.14495284169E+02  0.20682697804E+03  0.17300000000E+03 0.  1.
</event>
<event>
 4    1  0.5943823E+000  0.1000000E+03  0.7546771E-02  0.1280296E+00
         21   -1    0    0  501  502  0.00000000000E+00  0.00000000000E+00  0.79634095778E+02  0.79634095778E+02  0.00000000000E+00 0.  1.
         21   -1    0    0  502  503 -0.00000000000E+00 -0.00000000000E+00 -0.85315877788E+03  0.85315877788E+03  0.00000000000E+00 0.  1.
          6    1    1    2  501    0  0.30283709111E+02  0.27608181617E+02 -0.45697704304E+02  0.18356632291E+03  0.17300000000E+03 0.  1.
         -6    1    1    2    0  503 -0.30283709111E+02 -0.27608181617E+02 -0.72782697780E+03  0.74922655075E+03  0.17300000000E+03 0.  1.
</event>
<event>
 4    1  0.5943823E+000  0.1000000E+03  0.7546771E-02  0.1280296E+00
         21   -1    0    0  503  502  0.00000000000E+00  0.00000000000E+00  0.17431025738E+03  0.17431025738E+03  0.00000000000E+00 0. -1.
         21   -1    0    0  501  503 -0.00000000000E+00 -0.00000000000E+00 -0.23554931336E+03  0.23554931336E+03  0.00000000000E+00 0. -1.
          6    1    1    2  501    0  0.62723013569E+02 -0.24213382958E+02 -0.11283944676E+03  0.21721465211E+03  0.17300000000E+03 0. -1.
         -6    1    1    2    0  502 -0.62723013569E+02  0.24213382958E+02  0.51600390786E+02  0.19264491863E+03  0.17300000000E+03 0. -1.
</event>
<event>
 4    1  0.5943823E+000  0.1000000E+03  0.7546771E-02  0.1280296E+00
         21   -1    0    0  503  502  0.00000000000E+00  0.00000000000E+00  0.90521162873E+02  0.90521162873E+02  0.00000000000E+00 0. -1.
         21   -1    0    0  501  503 -0.00000000000E+00 -0.00000000000E+00 -0.44300375545E+03  0.44300375545E+03  0.00000000000E+00 0. -1.
          6    1    1    2  501    0  0.72767598729E+02 -0.13392058205E+01 -0.83227678077E+02  0.20531138131E+03  0.17300000000E+03 0. -1.
         -6    1    1    2    0  502 -0.72767598729E+02  0.13392058205E+01 -0.26925491450E+03  0.32821353701E+03  0.17300000000E+03 0. -1.
</event>
<event>
 4    1  0.5943823E+000  0.1000000E+03  0.7546771E-02  0.1280296E+00
         21   -1    0    0  501  502  0.00000000000E+00  0.00000000000E+00  0.26485591700E+03  0.26485591700E+03  0.00000000000E+00 0. -1.
         21   -1    0    0  502  503 -0.00000000000E+00 -0.00000000000E+00 -0.11577472614E+03  0.11577472614E+03  0.00000000000E+00 0.  1.
          6    1    1    2  501    0 -0.11421675723E+02 -0.24339768333E+02  0.78264837310E+02  0.19177399135E+03  0.17300000000E+03 0. -1.
         -6    1    1    2    0  503  0.11421675723E+02  0.24339768333E+02  0.70816353550E+02  0.18885665180E+03  0.17300000000E+03 0.  1.
</event>
<event>
 4    1  0.5943823E+000  0.1000000E+03  0.7546771E-02  0.1280296E+00
         21   -1    0    0  501  502  0.00000000000E+00  0.00000000000E+00  0.71301837070E+02  0.71301837070E+02  0.00000000000E+00 0.  1.
         21   -1    0    0  502  503 -0.00000000000E+00 -0.00000000000E+00 -0.73951246870E+03  0.73951246870E+03  0.00000000000E+00 0.  1.
          6    1    1    2  501    0  0.11597957181E+03  0.92338066943E+02 -0.28348685601E+03  0.36369132133E+03  0.17300000000E+03 0.  1.
         -6    1    1    2    0  503 -0.11597957181E+03 -0.92338066943E+02 -0.38472377562E+03  0.44712298444E+03  0.17300000000E+03 0.  1.
</event>
<event>
 4    1  0.5943823E+000  0.1000000E+03  0.7546771E-02  0.1280296E+00
         21   -1    0    0  501  502  0.00000000000E+00  0.00000000000E+00  0.70055319837E+03  0.70055319837E+03  0.00000000000E+00 0.  1.
         21   -1    0    0  502  503 -0.00000000000E+00 -0.00000000000E+00 -0.68053747079E+02  0.68053747079E+02  0.00000000000E+00 0.  1.
          6    1    1    2  501    0 -0.80137868730E+02  0.86062755715E+02  0.42641034484E+03  0.47495648023E+03  0.17300000000E+03 0.  1.
         -6    1    1    2    0  503  0.80137868730E+02 -0.86062755715E+02  0.20608910645E+03  0.29365046522E+03  0.17300000000E+03 0.  1.
</event>
<event>
 4    1  0.5943823E+000  0.1000000E+03  0.7546771E-02  0.1280296E+00
         21   -1    0    0  503  502  0.00000000000E+00  0.00000000000E+00  0.92707600927E+02  0.92707600927E+02  0.00000000000E+00 0. -1.
         21   -1    0    0  501  503 -0.00000000000E+00 -0.00000000000E+00 -0.43483976907E+03  0.43483976907E+03  0.00000000000E+00 0. -1.
          6    1    1    2  501    0 -0.26917039723E+02  0.84230017933E+02 -0.23759797915E+03  0.30692185104E+03  0.17300000000E+03 0. -1.
         -6    1    1    2    0  502  0.26917039723E+02 -0.84230017933E+02 -0.10453418900E+03  0.22062551896E+03  0.17300000000E+03 0. -1.
</event>
<event>
 4    1  0.5943823E+000  0.1000000E+03  0.7546771E-02  0.1280296E+00
         21   -1    0    0  503  502  0.00000000000E+00  0.00000000000E+00  0.96368071622E+02  0.96368071622E+02  0.00000000000E+00 0. -1.
         21   -1    0    0  501  503 -0.00000000000E+00 -0.00000000000E+00 -0.37944510221E+03  0.37944510221E+03  0.00000000000E+00 0. -1.
          6    1    1    2  501    0 -0.69467459985E+02 -0.19907460155E+02 -0.18834419225E+03  0.26575283577E+03  0.17300000000E+03 0. -1.
         -6    1    1    2    0  502  0.69467459985E+02  0.19907460155E+02 -0.94732838336E+02  0.21006033806E+03  0.17300000000E+03 0. -1.
</event>
<event>
 4    1  0.5943823E+000  0.1000000E+03  0.7546771E-02  0.1280296E+00
         21   -1    0    0  503  502  0.00000000000E+00  0.00000000000E+00  0.19115310189E+03  0.19115310189E+03  0.00000000000E+00 0. -1.
         21   -1    0    0  501  503 -0.00000000000E+00 -0.00000000000E+00 -0.38465680071E+03  0.38465680071E+03  0.00000000000E+00 0. -1.
          6    1    1    2  501    0 -0.10492784563E+01 -0.17232373443E+03 -0.22194265189E+03  0.32997592512E+03  0.17300000000E+03 0. -1.
         -6    1    1    2    0  502  0.10492784563E+01  0.17232373443E+03  0.28438953070E+02  0.24583397748E+03  0.17300000000E+03 0. -1.
</event>
<event>
 4    1  0.5943823E+000  0.1000000E+03  0.7546771E-02  0.1280296E+00
         21   -1    0    0  503  502  0.00000000000E+00  0.00000000000E+00  0.41506776325E+03  0.41506776325E+03  0.00000000000E+00 0. -1.
         21   -1    0    0  501  503 -0.00000000000E+00 -0.00000000000E+00 -0.34022076216E+03  0.34022076216E+03  0.00000000000E+00 0. -1.
          6    1    1    2  501    0  0.21399009901E+03 -0.50837771780E+02 -0.21463471349E+03  0.35266599177E+03  0.17300000000E+03 0. -1.
         -6    1    1    2    0  502 -0.21399009901E+03  0.50837771780E+02  0.28948171458E+03  0.40262253364E+03  0.17300000000E+03 0. -1.
</event>
<event>
 4    1  0.5943823E+000  0.1000000E+03  0.7546771E-02  0.1280296E+00
         21   -1    0    0  503  502  0.00000000000E+00  0.00000000000E+00  0.36028902415E+03  0.36028902415E+03  0.00000000000E+00 0. -1.
         21   -1    0    0  501  503 -0.00000000000E+00 -0.00000000000E+00 -0.17715747884E+03  0.17715747884E+03  0.00000000000E+00 0. -1.
          6    1    1    2  501    0 -0.33085486857E+02  0.45515256427E+02 -0.94900241045E+02  0.20518611980E+03  0.17300000000E+03 0. -1.
         -6    1    1    2    0  502  0.33085486857E+02 -0.45515256427E+02  0.27803178636E+03  0.33226038318E+03  0.17300000000E+03 0. -1.
</event>
<event>
 4    1  0.5943823E+000  0.1000000E+03  0.7546771E-02  0.1280296E+00
         21   -1    0    0  501  502  0.00000000000E+00  0.00000000000E+00  0.21031822578E+03  0.21031822578E+03  0.00000000000E+00 0.  1.
         21   -1    0    0  502  503 -0.00000000000E+00 -0.00000000000E+00 -0.61945551679E+03  0.61945551679E+03  0.00000000000E+00 0. -1.
          6    1    1    2  501    0 -0.15810526871E+03 -0.85191084525E+02  0.95386630380E+02  0.26698765165E+03  0.17300000000E+03 0. -1.
         -6    1    1    2    0  503  0.15810526871E+03  0.85191084525E+02 -0.50452392140E+03  0.56278609093E+03  0.17300000000E+03 0.  1.
</event>
<event>
 4    1  0.5943823E+000  0.1000000E+03  0.7546771E-02  0.1280296E+00
         21   -1    0    0  501  502  0.00000000000E+00  0.00000000000E+00  0.14728956576E+03  0.14728956576E+03  0.00000000000E+00 0.  1.
         21   -1    0    0  502  503 -0.00000000000E+00 -0.00000000000E+00 -0.38784953459E+03  0.38784953459E+03  0.00000000000E+00 0. -1.
          6    1    1    2  501    0 -0.43664677863E+02  0.12797309576E+03 -0.14587886748E+02  0.22005800093E+03  0.17300000000E+03 0. -1.
         -6    1    1    2    0  503  0.43664677863E+02 -0.12797309576E+03 -0.22597208209E+03  0.31508109943E+03  0.17300000000E+03 0.  1.
</event>
<event>
 4    1  0.5943823E+000  0.1000000E+03  0.7546771E-02  0.1280296E+00
         21   -1    0    0  503  502  0.00000000000E+00  0.00000000000E+00  0.19140735921E+03  0.19140735921E+03  0.00000000000E+00 0. -1.
         21   -1    0    0  501  503 -0.00000000000E+00 -0.00000000000E+00 -0.21645302618E+03  0.21645302618E+03  0.00000000000E+00 0. -1.
          6    1    1    2  501    0  0.83766321760E+02  0.61080355129E+02  0.14989891838E+02  0.20224070634E+03  0.17300000000E+03 0. -1.
         -6    1    1    2    0  502 -0.83766321760E+02 -0.61080355129E+02 -0.40035558803E+02  0.20561967905E+03  0.17300000000E+03 0. -1.
</event>
<event>
 4    1  0.5943823E+000  0.1000000E+03  0.7546771E-02  0.1280296E+00
         21   -1    0    0  503  502  0.00000000000E+00  0.00000000000E+00  0.15206711319E+03  0.15206711319E+03  0.00000000000E+00 0.  1.
         21   -1    0    0  501  503 -0.00000000000E+00 -0.00000000000E+00 -0.30776257461E+03  0.30776257461E+03  0.00000000000E+00 0.  1.
          6    1    1    2  501    0 -0.54064676098E+02 -0.11026230369E+03 -0.12282210984E+03  0.24514288789E+03  0.17300000000E+03 0.  1.
         -6    1    1    2    0  502  0.54064676098E+02  0.11026230369E+03 -0.32873351581E+02  0.21468679992E+03  0.17300000000E+03 0.  1.
</event>
<event>
 4    1  0.5943823E+000  0.1000000E+03  0.7546771E-02  0.1280296E+00
         21   -1    0    0  503  502  0.00000000000E+00  0.00000000000E+00  0.18516341028E+03  0.18516341028E+03  0.00000000000E+00 0.  1.
         21   -1    0    0  501  503 -0.00000000000E+00 -0.00000000000E+00 -0.32997332008E+03  0.32997332008E+03  0.00000000000E+00 0.  1.
          6    1    1    2  501    0 -0.88124145551E+02  0.15163540445E+03 -0.93525426131E+02  0.26350553361E+03  0.17300000000E+03 0.  1.
         -6    1    1    2    0  502  0.88124145551E+02 -0.15163540445E+03 -0.51284483662E+02  0.25163119675E+03  0.17300000000E+03 0.  1.
</event>
<event>
 4    1  0.5943823E+000  0.1000000E+03  0.7546771E-02  0.1280296E+00
         21   -1    0    0  501  502  0.00000000000E+00  0.00000000000E+00  0.45966240772E+03  0.45966240772E+03  0.00000000000E+00 0. -1.
         21   -1    0    0  502  503 -0.00000000000E+00 -0.00000000000E+00 -0.18380071484E+03  0.18380071484E+03  0.00000000000E+00 0. -1.
          6    1    1    2  501    0 -0.62216668845E+02 -0.15319356959E+02  0.38655218586E+03  0.42831902710E+03  0.17300000000E+03 0. -1.
         -6    1    1    2    0  503  0.62216668845E+02  0.15319356959E+02 -0.11069049298E+03  0.21514409547E+03  0.17300000000E+03 0. -1.
</event>
<event>
 4    1  0.5943823E+000  0.1000000E+03  0.7546771E-02  0.1280296E+00
         21   -1    0    0  501  502  0.00000000000E+00  0.00000000000E+00  0.11276264278E+03  0.11276264278E+03  0.00000000000E+00 0.  1.
         21   -1    0    0  502  503 -0.00000000000E+00 -0.00000000000E+00 -0.49352187651E+03  0.49352187651E+03  0.00000000000E+00 0.  1.
          6    1    1    2  501    0 -0.28619934095E+02  0.34681905815E+02  0.74466133355E+01  0.17890329027E+03  0.17300000000E+03 0.  1.
         -6    1    1    2    0  503  0.28619934095E+02 -0.34681905815E+02 -0.38820584707E+03  0.42738122902E+03  0.17300000000E+03 0.  1.
</event>
<event>
 4    1  0.5943823E+000  0.1000000E+03  0.7546771E-02  0.1280296E+00
         21   -1    0    0  501  502  0.00000000000E+00  0.00000000000E+00  0.18920593707E+04  0.18920593707E+04  0.00000000000E+00 0.  1.
         21   -1    0    0  502  503 -0.00000000000E+00 -0.00000000000E+00 -0.19652966307E+02  0.19652966307E+02  0.00000000000E+00 0.  1.
          6    1    1    2  501    0 -0.28514200623E+02  0.10123667788E+02  0.13308938132E+04  0.13424317079E+04  0.17300000000E+03 0.  1.
         -6    1    1    2    0  503  0.28514200623E+02 -0.10123667788E+02  0.54151259118E+03  0.56928062912E+03  0.17300000000E+03 0.  1.
</event>
<event>
 4    1  0.5943823E+000  0.1000000E+03  0.7546771E-02  0.1280296E+00
         21   -1    0    0  503  502  0.00000000000E+00  0.00000000000E+00  0.11141231429E+03  0.11141231429E+03  0.00000000000E+00 0.  1.
         21   -1    0    0  501  503 -0.00000000000E+00 -0.00000000000E+00 -0.35730831758E+03  0.35730831758E+03  0.00000000000E+00 0.  1.
          6    1    1    2  501    0 -0.17280558007E+01 -0.82159800055E+02 -0.18862497947E+03  0.26881518149E+03  0.17300000000E+03 0.  1.
         -6    1    1    2    0  502  0.17280558007E+01  0.82159800055E+02 -0.57271023821E+02  0.19990545038E+03  0.17300000000E+03 0.  1.
</event>
<event>
 4    1  0.5943823E+000  0.1000000E+03  0.7546771E-02  0.1280296E+00
         21   -1    0    0  501  502  0.00000000000E+00  0.00000000000E+00  0.15332205972E+04  0.15332205972E+04  0.00000000000E+00 0. -1.
         21   -1    0    0  502  503 -0.00000000000E+00 -0.00000000000E+00 -0.10180813974E+03  0.10180813974E+03  0.00000000000E+00 0. -1.
          6    1    1    2  501    0  0.80003695504E+02  0.31598603054E+02  0.14288028628E+04  0.14418063961E+04  0.17300000000E+03 0. -1.
         -6    1    1    2    0  503 -0.80003695504E+02 -0.31598603054E+02  0.26095946246E+01  0.19322234082E+03  0.17300000000E+03 0. -1.
</event>
<event>
 4    1  0.5943823E+000  0.1000000E+03  0.7546771E-02  0.1280296E+00
         21   -1    0    0  501  502  0.00000000000E+00  0.00000000000E+00  0.13331690987E+04  0.13331690987E+04  0.00000000000E+00 0. -1.
         21   -1    0    0  502  503 -0.00000000000E+00 -0.00000000000E+00 -0.80341317715E+02  0.80341317715E+02  0.00000000000E+00 0. -1.
          6    1    1    2  501    0 -0.27370765479E+03 -0.22880766888E+02  0.71649849130E+03  0.78659932483E+03  0.17300000000E+03 0. -1.
         -6    1    1    2    0  503  0.27370765479E+03  0.22880766888E+02  0.53632928968E+03  0.62691109158E+03  0.17300000000E+03 0. -1.
</event>
<event>
 4    1  0.5943823E+000  0.1000000E+03  0.7546771E-02  0.1280296E+00
         21   -1    0    0  501  502  0.00000000000E+00  0.00000000000E+00  0.34733368835E+02  0.34733368835E+02  0.00000000000E+00 0. -1.
         21   -1    0    0  502  503 -0.00000000000E+00 -0.00000000000E+00 -0.11321236188E+04  0.11321236188E+04  0.00000000000E+00 0. -1.
          6    1    1    2  501    0 -0.74765958008E+02  0.40762824071E+02 -0.41252935130E+03  0.45536910522E+03  0.17300000000E+03 0. -1.
         -6    1    1    2    0  503  0.74765958008E+02 -0.40762824071E+02 -0.68486089862E+03  0.71148788238E+03  0.17300000000E+03 0. -1.
</event>
<event>
 4    1  0.5943823E+000  0.1000000E+03  0.7546771E-02  0.1280296E+00
         21   -1    0    0  501  502  0.00000000000E+00  0.00000000000E+00  0.68473310803E+02  0.68473310803E+02  0.00000000000E+00 0. -1.
         21   -1    0    0  502  503 -0.00000000000E+00 -0.00000000000E+00 -0.12455982478E+04  0.12455982478E+04  0.00000000000E+00 0. -1.
          6    1    1    2  501    0  0.39482468392E+02  0.30295200494E+02 -0.71189353814E+02  0.19358096130E+03  0.17300000000E+03 0. -1.
         -6    1    1    2    0  503 -0.39482468392E+02 -0.30295200494E+02 -0.11059355832E+04  0.11204905973E+04  0.17300000000E+03 0. -1.
</event>
<event>
 4    1  0.5943823E+000  0.1000000E+03  0.7546771E-02  0.1280296E+00
         21   -1    0    0  503  502  0.00000000000E+00  0.00000000000E+00  0.13615077341E+03  0.13615077341E+03  0.00000000000E+00 0.  1.
         21   -1    0    0  501  503 -0.00000000000E+00 -0.00000000000E+00 -0.26988881746E+03  0.26988881746E+03  0.00000000000E+00 0. -1.
          6    1    1    2  501    0 -0.26789775635E+02  0.54915734605E+02 -0.12567650545E+03  0.22238932980E+03  0.17300000000E+03 0. -1.
         -6    1    1    2    0  502  0.26789775635E+02 -0.54915734605E+02 -0.80615386001E+01  0.18365026107E+03  0.17300000000E+03 0.  1.
</event>
<event>
 4    1  0.5943823E+000  0.1000000E+03  0.7546771E-02  0.1280296E+00
         21   -1    0    0  501  502  0.00000000000E+00  0.00000000000E+00  0.71502502429E+02  0.71502502429E+02  0.00000000000E+00 0. -1.
         21   -1    0    0  502  503 -0.00000000000E+00 -0.00000000000E+00 -0.71499383032E+03  0.71499383032E+03  0.00000000000E+00 0. -1.
          6    1    1    2  501    0  0.47647623168E+02  0.65823044591E+02 -0.11165316503E+03  0.22135581866E+03  0.17300000000E+03 0. -1.
         -6    1    1    2    0  503 -0.47647623168E+02 -0.65823044591E+02 -0.53183816286E+03  0.56514051409E+03  0.17300000000E+03 0. -1.
</event>
<event>
 4    1  0.5943823E+000  0.1000000E+03  0.7546771E-02  0.1280296E+00
         21   -1    0    0  501  502  0.00000000000E+00  0.00000000000E+00  0.43405235982E+02  0.43405235982E+02  0.00000000000E+00 0. -1.
         21   -1    0    0  502  503 -0.00000000000E+00 -0.00000000000E+00 -0.81971206488E+03  0.81971206488E+03  0.00000000000E+00 0. -1.
          6    1    1    2  501    0  0.23796531724E+01  0.75106076141E+02 -0.38345891804E+03  0.42733631632E+03  0.17300000000E+03 0. -1.
         -6    1    1    2    0  503 -0.23796531724E+01 -0.75106076141E+02 -0.39284791086E+03  0.43578098455E+03  0.17300000000E+03 0. -1.
</event>
<event>
 4    1  0.5943823E+000  0.1000000E+03  0.7546771E-02  0.1280296E+00
         21   -1    0    0  501  502  0.00000000000E+00  0.00000000000E+00  0.34377315965E+03  0.34377315965E+03  0.00000000000E+00 0.  1.
         21   -1    0    0  502  503 -0.00000000000E+00 -0.00000000000E+00 -0.17555084665E+03  0.17555084665E+03  0.00000000000E+00 0.  1.
          6    1    1    2  501    0  0.13506154344E+03  0.61405566406E+02  0.18103436229E+03  0.29105790563E+03  0.17300000000E+03 0.  1.
         -6    1    1    2    0  503 -0.13506154344E+03 -0.61405566406E+02 -0.12812049292E+02  0.22826610066E+03  0.17300000000E+03 0.  1.
</event>
<event>
 4    1  0.5943823E+000  0.1000000E+03  0.7546771E-02  0.1280296E+00
         21   -1    0    0  501  502  0.00000000000E+00  0.00000000000E+00  0.10840732411E+03  0.10840732411E+03  0.00000000000E+00 0.  1.
         21   -1    0    0  502  503 -0.00000000000E+00 -0.00000000000E+00 -0.52877993538E+03  0.52877993538E+03  0.00000000000E+00 0.  1.
          6    1    1    2  501    0  0.37926420020E+01  0.90599722490E+02 -0.25938153431E+02  0.19703928962E+03  0.17300000000E+03 0.  1.
         -6    1    1    2    0  503 -0.37926420020E+01 -0.90599722490E+02 -0.39443445784E+03  0.44014796987E+03  0.17300000000E+03 0.  1.
</event>
<event>
 4    1  0.5943823E+000  0.1000000E+03  0.7546771E-02  0.1280296E+00
         21   -1    0    0  501  502  0.00000000000E+00  0.00000000000E+00  0.25194254220E+03  0.25194254220E+03  0.00000000000E+00 0.  1.
         21   -1    0    0  502  503 -0.00000000000E+00 -0.00000000000E+00 -0.46596011591E+03  0.46596011591E+03  0.00000000000E+00 0.  1.
          6    1    1    2  501    0 -0.42247134223E+02  0.13403057555E+03  0.16561252904E+03  0.27767881681E+03  0.17300000000E+03 0.  1.
         -6    1    1    2    0  503  0.42247134223E+02 -0.13403057555E+03 -0.37963010275E+03  0.44022384130E+03  0.17300000000E+03 0.  1.
</event>
<event>
 4    1  0.5943823E+000  0.1000000E+03  0.7546771E-02  0.1280296E+00
         21   -1    0    0  501  502  0.00000000000E+00  0.00000000000E+00  0.10618562785E+04  0.10618562785E+04  0.00000000000E+00 0.  1.
         21   -1    0    0  502  503 -0.00000000000E+00 -0.00000000000E+00 -0.33167881062E+02  0.33167881062E+02  0.00000000000E+00 0.  1.
          6    1    1    2  501    0 -0.10016596612E+01 -0.11591862310E+01  0.30218839789E+03  0.34820852209E+03  0.17300000000E+03 0.  1.
         -6    1    1    2    0  503  0.10016596612E+01  0.11591862310E+01  0.72649999957E+03  0.74681563750E+03  0.17300000000E+03 0.  1.
</event>
<event>
 4    1  0.5943823E+000  0.1000000E+03  0.7546771E-02  0.1280296E+00
         21   -1    0    0  501  502  0.00000000000E+00  0.00000000000E+00  0.23707519558E+03  0.23707519558E+03  0.00000000000E+00 0.  1.
         21   -1    0    0  502  503 -0.00000000000E+00 -0.00000000000E+00 -0.18914016190E+03  0.18914016190E+03  0.00000000000E+00 0.  1.
          6    1    1    2  501    0  0.81857226410E+01  0.87651448370E+02  0.10913444107E+03  0.22268612144E+03  0.17300000000E+03 0.  1.
         -6    1    1    2    0  503 -0.81857226410E+01 -0.87651448370E+02 -0.61199407390E+02  0.20352923604E+03  0.17300000000E+03 0.  1.
</event>
<event>
 4    1  0.5943823E+000  0.1000000E+03  0.7546771E-02  0.1280296E+00
         21   -1    0    0  501  502  0.00000000000E+00  0.00000000000E+00  0.10020091698E+03  0.10020091698E+03  0.00000000000E+00 0. -1.
         21   -1    0    0  502  503 -0.00000000000E+00 -0.00000000000E+00 -0.42054233383E+03  0.42054233383E+03  0.00000000000E+00 0.  1.
          6    1    1    2  501    0  0.64615813737E+02  0.41664088316E+02 -0.59506305925E+02  0.19844671850E+03  0.17300000000E+03 0. -1.
         -6    1    1    2    0  503 -0.64615813737E+02 -0.41664088316E+02 -0.26083511093E+03  0.32229653230E+03  0.17300000000E+03 0.  1.
</event>
<event>
 4    1  0.5943823E+000  0.1000000E+03  0.7546771E-02  0.1280296E+00
         21   -1    0    0  501  502  0.00000000000E+00  0.00000000000E+00  0.91007496662E+02  0.91007496662E+02  0.00000000000E+00 0. -1.
         21   -1    0    0  502  503 -0.00000000000E+00 -0.00000000000E+00 -0.43201225681E+03  0.43201225681E+03  0.00000000000E+00 0. -1.
          6    1    1    2  501    0  0.82244738031E+02 -0.31062559610E+02 -0.11679552950E+03  0.22649343314E+03  0.17300000000E+03 0. -1.
         -6    1    1    2    0  503 -0.82244738031E+02  0.31062559610E+02 -0.22420923065E+03  0.29652632034E+03  0.17300000000E+03 0. -1.
</event>
<event>
 4    1  0.5943823E+000  0.1000000E+03  0.7546771E-02  0.1280296E+00
         21   -1    0    0  501  502  0.00000000000E+00  0.00000000000E+00  0.32872884640E+03  0.32872884640E+03  0.00000000000E+00 0. -1.
         21   -1    0    0  502  503 -0.00000000000E+00 -0.00000000000E+00 -0.12279064676E+03  0.12279064676E+03  0.00000000000E+00 0. -1.
          6    1    1    2  501    0  0.56074340642E+02  0.47935033748E+02  0.18237584992E+03  0.26197719323E+03  0.17300000000E+03 0. -1.
         -6    1    1    2    0  503 -0.56074340642E+02 -0.47935033748E+02  0.23562349711E+02  0.18954229993E+03  0.17300000000E+03 0. -1.
</event>
<event>
 4    1  0.5943823E+000  0.1000000E+03  0.7546771E-02  0.1280296E+00
         21   -1    0    0  503  502  0.00000000000E+00  0.00000000000E+00  0.18971253102E+04  0.18971253102E+04  0.00000000000E+00 0.  1.
         21   -1    0    0  501  503 -0.00000000000E+00 -0.00000000000E+00 -0.31701886595E+02  0.31701886595E+02  0.00000000000E+00 0. -1.
          6    1    1    2  501    0 -0.82843353808E+02 -0.27212776178E+01  0.33188210071E+03  0.38333426065E+03  0.17300000000E+03 0. -1.
         -6    1    1    2    0  502  0.82843353808E+02  0.27212776178E+01  0.15335413229E+04  0.15454929361E+04  0.17300000000E+03 0.  1.
</event>
<event>
 4    1  0.5943823E+000  0.1000000E+03  0.7546771E-02  0.1280296E+00
         21   -1    0    0  503  502  0.00000000000E+00  0.00000000000E+00  0.58831348480E+03  0.58831348480E+03  0.00000000000E+00 0.  1.
         21   -1    0    0  501  503 -0.00000000000E+00 -0.00000000000E+00 -0.63202487651E+02  0.63202487651E+02  0.00000000000E+00 0. -1.
          6    1    1    2  501    0 -0.32208723970E+02  0.89470515695E+01  0.13021850375E+03  0.21909657768E+03  0.17300000000E+03 0. -1.
         -6    1    1    2    0  502  0.32208723970E+02 -0.89470515695E+01  0.39489249341E+03  0.43241939478E+03  0.17300000000E+03 0.  1.
</event>
<event>
 4    1  0.5943823E+000  0.1000000E+03  0.7546771E-02  0.1280296E+00
         21   -1    0    0  503  502  0.00000000000E+00  0.00000000000E+00  0.41086476085E+03  0.41086476085E+03  0.00000000000E+00 0.  1.
         21   -1    0    0  501  503 -0.00000000000E+00 -0.00000000000E+00 -0.19714779876E+04  0.19714779876E+04  0.00000000000E+00 0. -1.
          6    1    1    2  501    0 -0.22797080188E+03 -0.22059526860E+03 -0.18712625906E+04  0.19058293843E+04  0.17300000000E+03 0. -1.
         -6    1    1    2    0  502  0.22797080188E+03  0.22059526860E+03  0.31064936381E+03  0.47651336421E+03  0.17300000000E+03 0.  1.
</event>
<event>
 4    1  0.5943823E+000  0.1000000E+03  0.7546771E-02  0.1280296E+00
         21   -1    0    0  501  502  0.00000000000E+00  0.00000000000E+00  0.12012998543E+03  0.12012998543E+03  0.00000000000E+00 0. -1.
         21   -1    0    0  502  503 -0.00000000000E+00 -0.00000000000E+00 -0.95935428108E+03  0.95935428108E+03  0.00000000000E+00 0.  1.
          6    1    1    2  501    0  0.10458449849E+03 -0.13059003373E+03 -0.38941868167E+02  0.24379734069E+03  0.17300000000E+03 0. -1.
         -6    1    1    2    0  503 -0.10458449849E+03  0.13059003373E+03 -0.80028242749E+03  0.83568692582E+03  0.17300000000E+03 0.  1.
</event>
<event>
 4    1  0.5943823E+000  0.1000000E+03  0.7546771E-02  0.1280296E+00
         21   -1    0    0  501  502  0.00000000000E+00  0.00000000000E+00  0.51134976529E+03  0.51134976529E+03  0.00000000000E+00 0. -1.
         21   -1    0    0  502  503 -0.00000000000E+00 -0.00000000000E+00 -0.17218249481E+03  0.17218249481E+03  0.00000000000E+00 0.  1.
          6    1    1    2  501    0  0.17190641746E+02 -0.44846706204E+02  0.44168484017E+03  0.47678217590E+03  0.17300000000E+03 0. -1.
         -6    1    1    2    0  503 -0.17190641746E+02  0.44846706204E+02 -0.10251756969E+03  0.20675008420E+03  0.17300000000E+03 0.  1.
</event>
<event>
 4    1  0.5943823E+000  0.1000000E+03  0.7546771E-02  0.1280296E+00
         21   -1    0    0  501  502  0.00000000000E+00  0.00000000000E+00  0.28539221225E+03  0.28539221225E+03  0.00000000000E+00 0. -1.
         21   -1    0    0  502  503 -0.00000000000E+00 -0.00000000000E+00 -0.40041930589E+03  0.40041930589E+03  0.00000000000E+00 0.  1.
          6    1    1    2  501    0  0.16058986348E+02 -0.10052156933E+03  0.21839698219E+03  0.29662892437E+03  0.17300000000E+03 0. -1.
         -6    1    1    2    0  503 -0.16058986348E+02  0.10052156933E+03 -0.33342407583E+03  0.38918259376E+03  0.17300000000E+03 0.  1.
</event>
<event>
 4    1  0.5943823E+000  0.1000000E+03  0.7546771E-02  0.1280296E+00
         21   -1    0    0  503  502  0.00000000000E+00  0.00000000000E+00  0.30109960180E+03  0.30109960180E+03  0.00000000000E+00 0. -1.
         21   -1    0    0  501  503 -0.00000000000E+00 -0.00000000000E+00 -0.11529471811E+03  0.11529471811E+03  0.00000000000E+00 0. -1.
          6    1    1    2  501    0  0.56412523261E+02 -0.39048374618E+02  0.82967776823E+02  0.20376408008E+03  0.17300000000E+03 0. -1.
         -6    1    1    2    0  502 -0.56412523261E+02  0.39048374618E+02  0.10283710686E+03  0.21263023983E+03  0.17300000000E+03 0. -1.
</event>
<event>
 4    1  0.5943823E+000  0.1000000E+03  0.7546771E-02  0.1280296E+00
         21   -1    0    0  501  502  0.00000000000E+00  0.00000000000E+00  0.47379283975E+03  0.47379283975E+03  0.00000000000E+00 0.  1.
         21   -1    0    0  502  503 -0.00000000000E+00 -0.00000000000E+00 -0.83938910081E+03  0.83938910081E+03  0.00000000000E+00 0.  1.
          6    1    1    2  501    0 -0.31655947348E+03  0.15947934307E+03  0.32951784965E+03  0.51395970110E+03  0.17300000000E+03 0.  1.
         -6    1    1    2    0  503  0.31655947348E+03 -0.15947934307E+03 -0.69511411072E+03  0.79922223945E+03  0.17300000000E+03 0.  1.
</event>
<event>
 4    1  0.5943823E+000  0.1000000E+03  0.7546771E-02  0.1280296E+00
         21   -1    0    0  501  502  0.00000000000E+00  0.00000000000E+00  0.26246222976E+02  0.26246222976E+02  0.00000000000E+00 0.  1.
         21   -1    0    0  502  503 -0.00000000000E+00 -0.00000000000E+00 -0.22091145228E+04  0.22091145228E+04  0.00000000000E+00 0.  1.
          6    1    1    2  501    0  0.39389910383E+02  0.52528210137E+02 -0.37623689999E+03  0.41927793028E+03  0.17300000000E+03 0. -1.
         -6    1    1    2    0  503 -0.39389910383E+02 -0.52528210137E+02 -0.18066313998E+04  0.18160828155E+04  0.17300000000E+03 0. -1.
</event>
<event>
 4    1  0.5943823E+000  0.1000000E+03  0.7546771E-02  0.1280296E+00
         21   -1    0    0  501  502  0.00000000000E+00  0.00000000000E+00  0.30757913678E+02  0.30757913678E+02  0.00000000000E+00 0. -1.
         21   -1    0    0  502  503 -0.00000000000E+00 -0.00000000000E+00 -0.18097903689E+04  0.18097903689E+04  0.00000000000E+00 0. -1.
          6    1    1    2  501    0 -0.13987805780E+03 -0.20659111536E+02 -0.59390512146E+03  0.63454311378E+03  0.17300000000E+03 0. -1.
         -6    1    1    2    0  503  0.13987805780E+03  0.20659111536E+02 -0.11851273337E+04  0.12060051688E+04  0.17300000000E+03 0. -1.
</event>
<event>
 4    1  0.5943823E+000  0.1000000E+03  0.7546771E-02  0.1280296E+00
         21   -1    0    0  501  502  0.00000000000E+00  0.00000000000E+00  0.16022300222E+03  0.16022300222E+03  0.00000000000E+00 0. -1.
         21   -1    0    0  502  503 -0.00000000000E+00 -0.00000000000E+00 -0.32937169085E+03  0.32937169085E+03  0.00000000000E+00 0. -1.
          6    1    1    2  501    0 -0.13222080234E+03 -0.53761825253E+02 -0.31600780370E+02  0.22649565944E+03  0.17300000000E+03 0. -1.
         -6    1    1    2    0  503  0.13222080234E+03  0.53761825253E+02 -0.13754790827E+03  0.26309903363E+03  0.17300000000E+03 0. -1.
</event>
<event>
 4    1  0.5943823E+000  0.1000000E+03  0.7546771E-02  0.1280296E+00
         21   -1    0    0  503  502  0.00000000000E+00  0.00000000000E+00  0.21006909662E+03  0.21006909662E+03  0.00000000000E+00 0.  1.
         21   -1    0    0  501  503 -0.00000000000E+00 -0.00000000000E+00 -0.17390690892E+03  0.17390690892E+03  0.00000000000E+00 0.  1.
          6    1    1    2  501    0  0.10810311088E+01 -0.65714122473E+02  0.66085173171E+02  0.19650894288E+03  0.17300000000E+03 0.  1.
         -6    1    1    2    0  502 -0.10810311088E+01  0.65714122473E+02 -0.29922985474E+02  0.18746706265E+03  0.17300000000E+03 0.  1.
</event>
<event>
 4    1  0.5943823E+000  0.1000000E+03  0.7546771E-02  0.1280296E+00
         21   -1    0    0  503  502  0.00000000000E+00  0.00000000000E+00  0.18023863062E+03  0.18023863062E+03  0.00000000000E+00 0.  1.
         21   -1    0    0  501  503 -0.00000000000E+00 -0.00000000000E+00 -0.32626270901E+03  0.32626270901E+03  0.00000000000E+00 0.  1.
          6    1    1    2  501    0  0.87871653066E+02  0.10430631141E+03 -0.17887205511E+03  0.28377005852E+03  0.17300000000E+03 0.  1.
         -6    1    1    2    0  502 -0.87871653066E+02 -0.10430631141E+03  0.32847976720E+02  0.22273128111E+03  0.17300000000E+03 0.  1.
</event>
<event>
 4    1  0.5943823E+000  0.1000000E+03  0.7546771E-02  0.1280296E+00
         21   -1    0    0  501  502  0.00000000000E+00  0.00000000000E+00  0.90184521036E+03  0.90184521036E+03  0.00000000000E+00 0.  1.
         21   -1    0    0  502  503 -0.00000000000E+00 -0.00000000000E+00 -0.48853881543E+02  0.48853881543E+02  0.00000000000E+00 0. -1.
          6    1    1    2  501    0 -0.45419310552E+02  0.27892462372E+02  0.66710928037E+03  0.69123418259E+03  0.17300000000E+03 0.  1.
         -6    1    1    2    0  503  0.45419310552E+02 -0.27892462372E+02  0.18588204845E+03  0.25946490931E+03  0.17300000000E+03 0. -1.
</event>
<event>
 4    1  0.5943823E+000  0.1000000E+03  0.7546771E-02  0.1280296E+00
         21   -1    0    0  501  502  0.00000000000E+00  0.00000000000E+00  0.23131862701E+03  0.23131862701E+03  0.00000000000E+00 0.  1.
         21   -1    0    0  502  503 -0.00000000000E+00 -0.00000000000E+00 -0.32414785157E+03  0.32414785157E+03  0.00000000000E+00 0. -1.
          6    1    1    2  501    0  0.31587517896E+01 -0.14027648520E+03  0.11512094144E+03  0.25073751449E+03  0.17300000000E+03 0.  1.
         -6    1    1    2    0  503 -0.31587517896E+01  0.14027648520E+03 -0.20795016600E+03  0.30472896409E+03  0.17300000000E+03 0. -1.
</event>
<event>
 4    1  0.5943823E+000  0.1000000E+03  0.7546771E-02  0.1280296E+00
         21   -1    0    0  503  502  0.00000000000E+00  0.00000000000E+00  0.24197755347E+04  0.24197755347E+04  0.00000000000E+00 0. -1.
         21   -1    0    0  501  503 -0.00000000000E+00 -0.00000000000E+00 -0.31364934565E+02  0.31364934565E+02  0.00000000000E+00 0. -1.
          6    1    1    2  501    0  0.10618122415E+03 -0.46349895581E+02  0.39166623908E+03  0.44356984570E+03  0.17300000000E+03 0. -1.
         -6    1    1    2    0  502 -0.10618122415E+03  0.46349895581E+02  0.19967443610E+04  0.20075706235E+04  0.17300000000E+03 0. -1.
</event>
<event>
 4    1  0.5943823E+000  0.1000000E+03  0.7546771E-02  0.1280296E+00
         21   -1    0    0  503  502  0.00000000000E+00  0.00000000000E+00  0.12349787053E+03  0.12349787053E+03  0.00000000000E+00 0.  1.
         21   -1    0    0  501  503 -0.00000000000E+00 -0.00000000000E+00 -0.34605160541E+03  0.34605160541E+03  0.00000000000E+00 0. -1.
          6    1    1    2  501    0 -0.13659455989E+02 -0.73683222139E+02 -0.20758681710E+03  0.28042304577E+03  0.17300000000E+03 0. -1.
         -6    1    1    2    0  502  0.13659455989E+02  0.73683222139E+02 -0.14966917770E+02  0.18912643017E+03  0.17300000000E+03 0.  1.
</event>
<event>
 4    1  0.5943823E+000  0.1000000E+03  0.7546771E-02  0.1280296E+00
         21   -1    0    0  501  502  0.00000000000E+00  0.00000000000E+00  0.82042844602E+03  0.82042844602E+03  0.00000000000E+00 0. -1.
         21   -1    0    0  502  503 -0.00000000000E+00 -0.00000000000E+00 -0.41995094956E+02  0.41995094956E+02  0.00000000000E+00 0. -1.
          6    1    1    2  501    0  0.23636621251E+02 -0.48235864896E+02  0.48328372782E+03  0.51611776766E+03  0.17300000000E+03 0.  1.
         -6    1    1    2    0  503 -0.23636621251E+02  0.48235864896E+02  0.29514962325E+03  0.34630577331E+03  0.17300000000E+03 0.  1.
</event>
<event>
 4    1  0.5943823E+000  0.1000000E+03  0.7546771E-02  0.1280296E+00
         21   -1    0    0  501  502  0.00000000000E+00  0.00000000000E+00  0.22892403123E+03  0.22892403123E+03  0.00000000000E+00 0. -1.
         21   -1    0    0  502  503 -0.00000000000E+00 -0.00000000000E+00 -0.20835680929E+03  0.20835680929E+03  0.00000000000E+00 0. -1.
          6    1    1    2  501    0 -0.11128851599E+03  0.64014667393E+02  0.46182360706E+02  0.22032889477E+03  0.17300000000E+03 0.  1.
         -6    1    1    2    0  503  0.11128851599E+03 -0.64014667393E+02 -0.25615138765E+02  0.21695194575E+03  0.17300000000E+03 0.  1.
</event>
<event>
 4    1  0.5943823E+000  0.1000000E+03  0.7546771E-02  0.1280296E+00
         21   -1    0    0  501  502  0.00000000000E+00  0.00000000000E+00  0.73548488039E+02  0.73548488039E+02  0.00000000000E+00 0. -1.
         21   -1    0    0  502  503 -0.00000000000E+00 -0.00000000000E+00 -0.52584342421E+03  0.52584342421E+03  0.00000000000E+00 0. -1.
          6    1    1    2  501    0  0.92575301952E+02  0.12436042394E+02 -0.21913951255E+03  0.29440782537E+03  0.17300000000E+03 0.  1.
         -6    1    1    2    0  503 -0.92575301952E+02 -0.12436042394E+02 -0.23315542363E+03  0.30498408688E+03  0.17300000000E+03 0.  1.
</event>
<event>
 4    1  0.5943823E+000  0.1000000E+03  0.7546771E-02  0.1280296E+00
         21   -1    0    0  503  502  0.00000000000E+00  0.00000000000E+00  0.24981714884E+04  0.24981714884E+04  0.00000000000E+00 0. -1.
         21   -1    0    0  501  503 -0.00000000000E+00 -0.00000000000E+00 -0.13853669105E+02  0.13853669105E+02  0.00000000000E+00 0.  1.
          6    1    1    2  501    0 -0.57759584174E+02 -0.55569261147E+01  0.99753525529E+03  0.10140870942E+04  0.17300000000E+03 0.  1.
         -6    1    1    2    0  502  0.57759584174E+02  0.55569261147E+01  0.14867825640E+04  0.14979380634E+04  0.17300000000E+03 0. -1.
</event>
<event>
 4    1  0.5943823E+000  0.1000000E+03  0.7546771E-02  0.1280296E+00
         21   -1    0    0  503  502  0.00000000000E+00  0.00000000000E+00  0.28853480823E+03  0.28853480823E+03  0.00000000000E+00 0. -1.
         21   -1    0    0  501  503 -0.00000000000E+00 -0.00000000000E+00 -0.16845143990E+03  0.16845143990E+03  0.00000000000E+00 0.  1.
          6    1    1    2  501    0  0.28981741452E+02  0.12566116413E+03  0.13179421395E+02  0.21617901530E+03  0.17300000000E+03 0.  1.
         -6    1    1    2    0  502 -0.28981741452E+02 -0.12566116413E+03  0.10690394694E+03  0.24080723282E+03  0.17300000000E+03 0. -1.
</event>
<event>
 4    1  0.5943823E+000  0.1000000E+03  0.7546771E-02  0.1280296E+00
         21   -1    0    0  501  502  0.00000000000E+00  0.00000000000E+00  0.15468991068E+04  0.15468991068E+04  0.00000000000E+00 0. -1.
         21   -1    0    0  502  503 -0.00000000000E+00 -0.00000000000E+00 -0.28817120605E+02  0.28817120605E+02  0.00000000000E+00 0. -1.
          6    1    1    2  501    0 -0.10926589973E+03  0.37494249533E+02  0.62432545900E+03  0.65807000718E+03  0.17300000000E+03 0. -1.
         -6    1    1    2    0  503  0.10926589973E+03 -0.37494249533E+02  0.89375652717E+03  0.91764622020E+03  0.17300000000E+03 0. -1.
</event>
<event>
 4    1  0.5943823E+000  0.1000000E+03  0.7546771E-02  0.1280296E+00
         21   -1    0    0  501  502  0.00000000000E+00  0.00000000000E+00  0.13870096465E+04  0.13870096465E+04  0.00000000000E+00 0. -1.
         21   -1    0    0  502  503 -0.00000000000E+00 -0.00000000000E+00 -0.44188001667E+02  0.44188001667E+02  0.00000000000E+00 0. -1.
          6    1    1    2  501    0  0.12837430775E+03 -0.11407307043E+03  0.54649583571E+03  0.59839729840E+03  0.17300000000E+03 0. -1.
         -6    1    1    2    0  503 -0.12837430775E+03  0.11407307043E+03  0.79632580909E+03  0.83280034973E+03  0.17300000000E+03 0. -1.
</event>
<event>
 4    1  0.5943823E+000  0.1000000E+03  0.7546771E-02  0.1280296E+00
         21   -1    0    0  501  502  0.00000000000E+00  0.00000000000E+00  0.53164019885E+03  0.53164019885E+03  0.00000000000E+00 0. -1.
         21   -1    0    0  502  503 -0.00000000000E+00 -0.00000000000E+00 -0.10646922671E+03  0.10646922671E+03  0.00000000000E+00 0.  1.
          6    1    1    2  501    0 -0.14759794383E+02  0.15748823770E+03  0.15804713233E+03  0.28271592205E+03  0.17300000000E+03 0.  1.
         -6    1    1    2    0  503  0.14759794383E+02 -0.15748823770E+03  0.26712383981E+03  0.35539350351E+03  0.17300000000E+03 0. -1.
</event>
<event>
 4    1  0.5943823E+000  0.1000000E+03  0.7546771E-02  0.1280296E+00
         21   -1    0    0  501  502  0.00000000000E+00  0.00000000000E+00  0.17324264800E+04  0.17324264800E+04  0.00000000000E+00 0. -1.
         21   -1    0    0  502  503 -0.00000000000E+00 -0.00000000000E+00 -0.93477774426E+02  0.93477774426E+02  0.00000000000E+00 0.  1.
          6    1    1    2  501    0 -0.32526823721E+03  0.15895020115E+03  0.74955816738E+03  0.85019470645E+03  0.17300000000E+03 0.  1.
         -6    1    1    2    0  503  0.32526823721E+03 -0.15895020115E+03  0.88939053815E+03  0.97570954794E+03  0.17300000000E+03 0. -1.
</event>
<event>
 4    1  0.5943823E+000  0.1000000E+03  0.7546771E-02  0.1280296E+00
         21   -1    0    0  501  502  0.00000000000E+00  0.00000000000E+00  0.76681421413E+03  0.76681421413E+03  0.00000000000E+00 0. -1.
         21   -1    0    0  502  503 -0.00000000000E+00 -0.00000000000E+00 -0.46215343279E+02  0.46215343279E+02  0.00000000000E+00 0.  1.
          6    1    1    2  501    0  0.17500454857E+02  0.70750254288E+02  0.32993529551E+03  0.37960263912E+03  0.17300000000E+03 0.  1.
         -6    1    1    2    0  503 -0.17500454857E+02 -0.70750254288E+02  0.39066357535E+03  0.43342691830E+03  0.17300000000E+03 0. -1.
</event>
<event>
 4    1  0.5943823E+000  0.1000000E+03  0.7546771E-02  0.1280296E+00
         21   -1    0    0  501  502  0.00000000000E+00  0.00000000000E+00  0.29748262318E+02  0.29748262318E+02  0.00000000000E+00 0. -1.
         21   -1    0    0  502  503 -0.00000000000E+00 -0.00000000000E+00 -0.21179729947E+04  0.21179729947E+04  0.00000000000E+00 0.  1.
          6    1    1    2  501    0 -0.29628114804E+02 -0.14534695810E+03 -0.59391967585E+03  0.63613924952E+03  0.17300000000E+03 0.  1.
         -6    1    1    2    0  503  0.29628114804E+02  0.14534695810E+03 -0.14943050566E+04  0.15115820075E+04  0.17300000000E+03 0. -1.
</event>
<event>
 4    1  0.5943823E+000  0.1000000E+03  0.7546771E-02  0.1280296E+00
         21   -1    0    0  503  502  0.00000000000E+00  0.00000000000E+00  0.11125383391E+03  0.11125383391E+03  0.00000000000E+00 0. -1.
         21   -1    0    0  501  503 -0.00000000000E+00 -0.00000000000E+00 -0.36882215606E+03  0.36882215606E+03  0.00000000000E+00 0. -1.
          6    1    1    2  501    0 -0.66630546623E+01 -0.20182484490E+02 -0.25108589979E+03  0.30565480210E+03  0.17300000000E+03 0. -1.
         -6    1    1    2    0  502  0.66630546623E+01  0.20182484490E+02 -0.64824223678E+01  0.17442118787E+03  0.17300000000E+03 0. -1.
</event>
<event>
 4    1  0.5943823E+000  0.1000000E+03  0.7546771E-02  0.1280296E+00
         21   -1    0    0  503  502  0.00000000000E+00  0.00000000000E+00  0.39083316914E+03  0.39083316914E+03  0.00000000000E+00 0. -1.
         21   -1    0    0  501  503 -0.00000000000E+00 -0.00000000000E+00 -0.12559558857E+03  0.12559558857E+03  0.00000000000E+00 0. -1.
          6    1    1    2  501    0 -0.12363602352E+03 -0.62173928451E+02  0.13558057830E+03  0.25973555186E+03  0.17300000000E+03 0. -1.
         -6    1    1    2    0  502  0.12363602352E+03  0.62173928451E+02  0.12965700227E+03  0.25669320585E+03  0.17300000000E+03 0. -1.
</event>
<event>
 4    1  0.5943823E+000  0.1000000E+03  0.7546771E-02  0.1280296E+00
         21   -1    0    0  503  502  0.00000000000E+00  0.00000000000E+00  0.57732711673E+03  0.57732711673E+03  0.00000000000E+00 0.  1.
         21   -1    0    0  501  503 -0.00000000000E+00 -0.00000000000E+00 -0.10954931753E+03  0.10954931753E+03  0.00000000000E+00 0. -1.
          6    1    1    2  501    0 -0.10563202646E+03 -0.69118103792E+00  0.30606426998E+02  0.20499842955E+03  0.17300000000E+03 0. -1.
         -6    1    1    2    0  502  0.10563202646E+03  0.69118103792E+00  0.43717137221E+03  0.48187800471E+03  0.17300000000E+03 0.  1.
</event>
<event>
 4    1  0.5943823E+000  0.1000000E+03  0.7546771E-02  0.1280296E+00
         21   -1    0    0  503  502  0.00000000000E+00  0.00000000000E+00  0.23843903029E+02  0.23843903029E+02  0.00000000000E+00 0.  1.
         21   -1    0    0  501  503 -0.00000000000E+00 -0.00000000000E+00 -0.17709801461E+04  0.17709801461E+04  0.00000000000E+00 0. -1.
          6    1    1    2  501    0  0.25274925171E+02 -0.86464107111E+02 -0.11560245534E+04  0.11723636943E+04  0.17300000000E+03 0. -1.
         -6    1    1    2    0  502 -0.25274925171E+02  0.86464107111E+02 -0.59111168967E+03  0.62246035482E+03  0.17300000000E+03 0.  1.
</event>
<event>
 4    1  0.5943823E+000  0.1000000E+03  0.7546771E-02  0.1280296E+00
         21   -1    0    0  503  502  0.00000000000E+00  0.00000000000E+00  0.40661476273E+03  0.40661476273E+03  0.00000000000E+00 0.  1.
         21   -1    0    0  501  503 -0.00000000000E+00 -0.00000000000E+00 -0.16167164860E+03  0.16167164860E+03  0.00000000000E+00 0. -1.
          6    1    1    2  501    0  0.29689304661E+02  0.70672866387E+02 -0.69264449498E+02  0.20150104918E+03  0.17300000000E+03 0. -1.
         -6    1    1    2    0  502 -0.29689304661E+02 -0.70672866387E+02  0.31420756362E+03  0.36678536216E+03  0.17300000000E+03 0.  1.
</event>
<event>
 4    1  0.5943823E+000  0.1000000E+03  0.7546771E-02  0.1280296E+00
         21   -1    0    0  503  502  0.00000000000E+00  0.00000000000E+00  0.14025820203E+03  0.14025820203E+03  0.00000000000E+00 0.  1.
         21   -1    0    0  501  503 -0.00000000000E+00 -0.00000000000E+00 -0.25295125529E+03  0.25295125529E+03  0.00000000000E+00 0. -1.
          6    1    1    2  501    0 -0.26896684141E+02 -0.25183361707E+02  0.11232904058E+02  0.17723659740E+03  0.17300000000E+03 0. -1.
         -6    1    1    2    0  502  0.26896684141E+02  0.25183361707E+02 -0.12392595732E+03  0.21597285992E+03  0.17300000000E+03 0.  1.
</event>
<event>
 4    1  0.5943823E+000  0.1000000E+03  0.7546771E-02  0.1280296E+00
         21   -1    0    0  501  502  0.00000000000E+00  0.00000000000E+00  0.15704228801E+04  0.15704228801E+04  0.00000000000E+00 0. -1.
         21   -1    0    0  502  503 -0.00000000000E+00 -0.00000000000E+00 -0.52281286930E+02  0.52281286930E+02  0.00000000000E+00 0. -1.
          6    1    1    2  501    0 -0.10753017572E+03  0.30376242767E+02  0.13231816992E+04  0.13391132379E+04  0.17300000000E+03 0. -1.
         -6    1    1    2    0  503  0.10753017572E+03 -0.30376242767E+02  0.19495989388E+03  0.28359092905E+03  0.17300000000E+03 0. -1.
</event>
<event>
 4    1  0.5943823E+000  0.1000000E+03  0.7546771E-02  0.1280296E+00
         21   -1    0    0  501  502  0.00000000000E+00  0.00000000000E+00  0.14095818445E+04  0.14095818445E+04  0.00000000000E+00 0.  1.
         21   -1    0    0  502  503 -0.00000000000E+00 -0.00000000000E+00 -0.40587098132E+03  0.40587098132E+03  0.00000000000E+00 0. -1.
          6    1    1    2  501    0 -0.23122995019E+03  0.90827608742E+02  0.13337064189E+04  0.13676325369E+04  0.17300000000E+03 0. -1.
         -6    1    1    2    0  503  0.23122995019E+03 -0.90827608742E+02 -0.32999555568E+03  0.44782028889E+03  0.17300000000E+03 0.  1.
</event>
<event>
 4    1  0.5943823E+000  0.1000000E+03  0.7546771E-02  0.1280296E+00
         21   -1    0    0  501  502  0.00000000000E+00  0.00000000000E+00  0.87068326231E+03  0.87068326231E+03  0.00000000000E+00 0.  1.
         21   -1    0    0  502  503 -0.00000000000E+00 -0.00000000000E+00 -0.91215129238E+02  0.91215129238E+02  0.00000000000E+00 0. -1.
          6    1    1    2  501    0  0.14672935149E+03 -0.36054914343E+02  0.66839372614E+03  0.70675924654E+03  0.17300000000E+03 0. -1.
         -6    1    1    2    0  503 -0.14672935149E+03  0.36054914343E+02  0.11107440694E+03  0.25513914501E+03  0.17300000000E+03 0.  1.
</event>
<event>
 4    1  0.5943823E+000  0.1000000E+03  0.7546771E-02  0.1280296E+00
         21   -1    0    0  501  502  0.00000000000E+00  0.00000000000E+00  0.60496246016E+02  0.60496246016E+02  0.00000000000E+00 0.  1.
         21   -1    0    0  502  503 -0.00000000000E+00 -0.00000000000E+00 -0.52248670644E+03  0.52248670644E+03  0.00000000000E+00 0. -1.
          6    1    1    2  501    0 -0.13774378455E+01 -0.40699692052E+02 -0.22346007496E+03  0.28552016981E+03  0.17300000000E+03 0. -1.
         -6    1    1    2    0  503  0.13774378455E+01  0.40699692052E+02 -0.23853038546E+03  0.29746278264E+03  0.17300000000E+03 0.  1.
</event>
<event>
 4    1  0.5943823E+000  0.1000000E+03  0.7546771E-02  0.1280296E+00
         21   -1    0    0  503  502  0.00000000000E+00  0.00000000000E+00  0.17988859108E+04  0.17988859108E+04  0.00000000000E+00 0. -1.
         21   -1    0    0  501  503 -0.00000000000E+00 -0.00000000000E+00 -0.17093802045E+03  0.17093802045E+03  0.00000000000E+00 0. -1.
          6    1    1    2  501    0  0.40799562193E+03  0.33141164409E+03  0.75055590183E+03  0.93250054537E+03  0.17300000000E+03 0. -1.
         -6    1    1    2    0  502 -0.40799562193E+03 -0.33141164409E+03  0.87739198850E+03  0.10373233859E+04  0.17300000000E+03 0. -1.
</event>
<event>
 4    1  0.5943823E+000  0.1000000E+03  0.7546771E-02  0.1280296E+00
         21   -1    0    0  503  502  0.00000000000E+00  0.00000000000E+00  0.23288346879E+03  0.23288346879E+03  0.00000000000E+00 0. -1.
         21   -1    0    0  501  503 -0.00000000000E+00 -0.00000000000E+00 -0.21175954546E+03  0.21175954546E+03  0.00000000000E+00 0. -1.
          6    1    1    2  501    0  0.38862539781E+02 -0.80760234893E+01 -0.12304592623E+03  0.21597411677E+03  0.17300000000E+03 0. -1.
         -6    1    1    2    0  502 -0.38862539781E+02  0.80760234893E+01  0.14416984956E+03  0.22866889748E+03  0.17300000000E+03 0. -1.
</event>
<event>
 4    1  0.5943823E+000  0.1000000E+03  0.7546771E-02  0.1280296E+00
         21   -1    0    0  503  502  0.00000000000E+00  0.00000000000E+00  0.57395798737E+02  0.57395798737E+02  0.00000000000E+00 0. -1.
         21   -1    0    0  501  503 -0.00000000000E+00 -0.00000000000E+00 -0.16501546594E+04  0.16501546594E+04  0.00000000000E+00 0. -1.
          6    1    1    2  501    0 -0.12466148239E+03 -0.11204022452E+03 -0.13277674512E+04  0.13494402178E+04  0.17300000000E+03 0. -1.
         -6    1    1    2    0  502  0.12466148239E+03  0.11204022452E+03 -0.26499140946E+03  0.35811024027E+03  0.17300000000E+03 0. -1.
</event>
<event>
 4    1  0.5943823E+000  0.1000000E+03  0.7546771E-02  0.1280296E+00
         21   -1    0    0  503  502  0.00000000000E+00  0.00000000000E+00  0.17335588130E+03  0.17335588130E+03  0.00000000000E+00 0. -1.
         21   -1    0    0  501  503 -0.00000000000E+00 -0.00000000000E+00 -0.81516570370E+03  0.81516570370E+03  0.00000000000E+00 0. -1.
          6    1    1    2  501    0  0.15703595670E+02  0.31754685762E+03 -0.45435782210E+03  0.58090673968E+03  0.17300000000E+03 0. -1.
         -6    1    1    2    0  502 -0.15703595670E+02 -0.31754685762E+03 -0.18745200030E+03  0.40761484531E+03  0.17300000000E+03 0. -1.
</event>
<event>
 4    1  0.5943823E+000  0.1000000E+03  0.7546771E-02  0.1280296E+00
         21   -1    0    0  501  502  0.00000000000E+00  0.00000000000E+00  0.48079047252E+02  0.48079047252E+02  0.00000000000E+00 0. -1.
         21   -1    0    0  502  503 -0.00000000000E+00 -0.00000000000E+00 -0.12466668431E+04  0.12466668431E+04  0.00000000000E+00 0. -1.
          6    1    1    2  501    0  0.95583290427E+02 -0.61511493614E+02 -0.25361811974E+03  0.32736979078E+03  0.17300000000E+03 0. -1.
         -6    1    1    2    0  503 -0.95583290427E+02  0.61511493614E+02 -0.94496967606E+03  0.96737609953E+03  0.17300000000E+03 0. -1.
</event>
<event>
 4    1  0.5943823E+000  0.1000000E+03  0.7546771E-02  0.1280296E+00
         21   -1    0    0  501  502  0.00000000000E+00  0.00000000000E+00  0.89340679597E+03  0.89340679597E+03  0.00000000000E+00 0. -1.
         21   -1    0    0  502  503 -0.00000000000E+00 -0.00000000000E+00 -0.68006649826E+02  0.68006649826E+02  0.00000000000E+00 0.  1.
          6    1    1    2  501    0  0.61927053285E+02  0.84355910002E+02  0.68765607476E+03  0.71676408716E+03  0.17300000000E+03 0. -1.
         -6    1    1    2    0  503 -0.61927053285E+02 -0.84355910002E+02  0.13774407138E+03  0.24464935864E+03  0.17300000000E+03 0.  1.
</event>
<event>
 4    1  0.5943823E+000  0.1000000E+03  0.7546771E-02  0.1280296E+00
         21   -1    0    0  501  502  0.00000000000E+00  0.00000000000E+00  0.95436748842E+02  0.95436748842E+02  0.00000000000E+00 0. -1.
         21   -1    0    0  502  503 -0.00000000000E+00 -0.00000000000E+00 -0.11935676966E+04  0.11935676966E+04  0.00000000000E+00 0.  1.
          6    1    1    2  501    0  0.16104990781E+03  0.20361977978E+03 -0.30315537487E+03  0.43500605609E+03  0.17300000000E+03 0. -1.
         -6    1    1    2    0  503 -0.16104990781E+03 -0.20361977978E+03 -0.79497557285E+03  0.85399838932E+03  0.17300000000E+03 0.  1.
</event>
<event>
 4    1  0.5943823E+000  0.1000000E+03  0.7546771E-02  0.1280296E+00
         21   -1    0    0  501  502  0.00000000000E+00  0.00000000000E+00  0.15270756783E+03  0.15270756783E+03  0.00000000000E+00 0. -1.
         21   -1    0    0  502  503 -0.00000000000E+00 -0.00000000000E+00 -0.38547515770E+03  0.38547515770E+03  0.00000000000E+00 0.  1.
          6    1    1    2  501    0  0.17857717496E+02 -0.11878899614E+03  0.17198487952E+02  0.21131614152E+03  0.17300000000E+03 0. -1.
         -6    1    1    2    0  503 -0.17857717496E+02  0.11878899614E+03 -0.24996607782E+03  0.32686658401E+03  0.17300000000E+03 0.  1.
</event>
<event>
 4    1  0.5943823E+000  0.1000000E+03  0.7546771E-02  0.1280296E+00
         21   -1    0    0  501  502  0.00000000000E+00  0.00000000000E+00  0.95007940272E+02  0.95007940272E+02  0.00000000000E+00 0. -1.
         21   -1    0    0  502  503 -0.00000000000E+00 -0.00000000000E+00 -0.36984117726E+03  0.36984117726E+03  0.00000000000E+00 0.  1.
          6    1    1    2  501    0 -0.24715627259E+02 -0.64223096574E+02 -0.11043925911E+03  0.21647470595E+03  0.17300000000E+03 0. -1.
         -6    1    1    2    0  503  0.24715627259E+02  0.64223096574E+02 -0.16439397787E+03  0.24837441158E+03  0.17300000000E+03 0.  1.
</event>
<event>
 4    1  0.5943823E+000  0.1000000E+03  0.7546771E-02  0.1280296E+00
         21   -1    0    0  503  502  0.00000000000E+00  0.00000000000E+00  0.14004076033E+03  0.14004076033E+03  0.00000000000E+00 0.  1.
         21   -1    0    0  501  503 -0.00000000000E+00 -0.00000000000E+00 -0.28859855642E+03  0.28859855642E+03  0.00000000000E+00 0.  1.
          6    1    1    2  501    0  0.69831327615E+02 -0.71758542401E+02 -0.97164983998E+02  0.22225151707E+03  0.17300000000E+03 0.  1.
         -6    1    1    2    0  502 -0.69831327615E+02  0.71758542401E+02 -0.51392812092E+02  0.20638779968E+03  0.17300000000E+03 0.  1.
</event>
<event>
 4    1  0.5943823E+000  0.1000000E+03  0.7546771E-02  0.1280296E+00
         21   -1    0    0  503  502  0.00000000000E+00  0.00000000000E+00  0.13565423055E+04  0.13565423055E+04  0.00000000000E+00 0.  1.
         21   -1    0    0  501  503 -0.00000000000E+00 -0.00000000000E+00 -0.28689701650E+02  0.28689701650E+02  0.00000000000E+00 0.  1.
          6    1    1    2  501    0  0.25077545202E+02 -0.50381535013E+02  0.39602689728E+03  0.43581359056E+03  0.17300000000E+03 0.  1.
         -6    1    1    2    0  502 -0.25077545202E+02  0.50381535013E+02  0.93182570654E+03  0.94941841657E+03  0.17300000000E+03 0.  1.
</event>
<event>
 4    1  0.5943823E+000  0.1000000E+03  0.7546771E-02  0.1280296E+00
         21   -1    0    0  501  502  0.00000000000E+00  0.00000000000E+00  0.92201092782E+02  0.92201092782E+02  0.00000000000E+00 0.  1.
         21   -1    0    0  502  503 -0.00000000000E+00 -0.00000000000E+00 -0.43282956395E+03  0.43282956395E+03  0.00000000000E+00 0. -1.
          6    1    1    2  501    0 -0.31289519103E+02  0.90331462358E+01 -0.46218955944E+02  0.18200500989E+03  0.17300000000E+03 0. -1.
         -6    1    1    2    0  503  0.31289519103E+02 -0.90331462358E+01 -0.29440951522E+03  0.34302564684E+03  0.17300000000E+03 0. -1.
</event>
<event>
 4    1  0.5943823E+000  0.1000000E+03  0.7546771E-02  0.1280296E+00
         21   -1    0    0  501  502  0.00000000000E+00  0.00000000000E+00  0.23775270615E+03  0.23775270615E+03  0.00000000000E+00 0.  1.
         21   -1    0    0  502  503 -0.00000000000E+00 -0.00000000000E+00 -0.15699124649E+03  0.15699124649E+03  0.00000000000E+00 0.  1.
          6    1    1    2  501    0  0.22737077163E+02  0.18972996808E+02  0.12286674757E+03  0.21424795669E+03  0.17300000000E+03 0.  1.
         -6    1    1    2    0  503 -0.22737077163E+02 -0.18972996808E+02 -0.42105287901E+02  0.18049599595E+03  0.17300000000E+03 0.  1.
</event>
<event>
 4    1  0.5943823E+000  0.1000000E+03  0.7546771E-02  0.1280296E+00
         21   -1    0    0  501  502  0.00000000000E+00  0.00000000000E+00  0.62426025953E+03  0.62426025953E+03  0.00000000000E+00 0. -1.
         21   -1    0    0  502  503 -0.00000000000E+00 -0.00000000000E+00 -0.99913078986E+02  0.99913078986E+02  0.00000000000E+00 0. -1.
          6    1    1    2  501    0 -0.48709279589E+02  0.10839527943E+03  0.45841414860E+03  0.50417721305E+03  0.17300000000E+03 0. -1.
         -6    1    1    2    0  503  0.48709279589E+02 -0.10839527943E+03  0.65933031950E+02  0.21999612547E+03  0.17300000000E+03 0. -1.
</event>
<event>
 4    1  0.5943823E+000  0.1000000E+03  0.7546771E-02  0.1280296E+00
         21   -1    0    0  501  502  0.00000000000E+00  0.00000000000E+00  0.46176361379E+03  0.46176361379E+03  0.00000000000E+00 0. -1.
         21   -1    0    0  502  503 -0.00000000000E+00 -0.00000000000E+00 -0.28363011332E+03  0.28363011332E+03  0.00000000000E+00 0. -1.
          6    1    1    2  501    0  0.17094057616E+02  0.27546274072E+03  0.25147200562E+03  0.41150832062E+03  0.17300000000E+03 0. -1.
         -6    1    1    2    0  503 -0.17094057616E+02 -0.27546274072E+03 -0.73338505154E+02  0.33388540649E+03  0.17300000000E+03 0. -1.
</event>
<event>
 4    1  0.5943823E+000  0.1000000E+03  0.7546771E-02  0.1280296E+00
         21   -1    0    0  501  502  0.00000000000E+00  0.00000000000E+00  0.72559986661E+02  0.72559986661E+02  0.00000000000E+00 0. -1.
         21   -1    0    0  502  503 -0.00000000000E+00 -0.00000000000E+00 -0.50154664594E+03  0.50154664594E+03  0.00000000000E+00 0. -1.
          6    1    1    2  501    0 -0.43282954127E+01  0.67846408864E+02 -0.14992399450E+03  0.23880551389E+03  0.17300000000E+03 0. -1.
         -6    1    1    2    0  503  0.43282954127E+01 -0.67846408864E+02 -0.27906266478E+03  0.33530111872E+03  0.17300000000E+03 0. -1.
</event>
<event>
 4    1  0.5943823E+000  0.1000000E+03  0.7546771E-02  0.1280296E+00
         21   -1    0    0  501  502  0.00000000000E+00  0.00000000000E+00  0.77281621052E+02  0.77281621052E+02  0.00000000000E+00 0. -1.
         21   -1    0    0  502  503 -0.00000000000E+00 -0.00000000000E+00 -0.67574230050E+03  0.67574230050E+03  0.00000000000E+00 0. -1.
          6    1    1    2  501    0  0.26828075836E+01  0.12332617964E+03 -0.16062749506E+03  0.26635828542E+03  0.17300000000E+03 0. -1.
         -6    1    1    2    0  503 -0.26828075836E+01 -0.12332617964E+03 -0.43783318439E+03  0.48666563613E+03  0.17300000000E+03 0. -1.
</event>
<event>
 4    1  0.5943823E+000  0.1000000E+03  0.7546771E-02  0.1280296E+00
         21   -1    0    0  501  502  0.00000000000E+00  0.00000000000E+00  0.23791012984E+03  0.23791012984E+03  0.00000000000E+00 0. -1.
         21   -1    0    0  502  503 -0.00000000000E+00 -0.00000000000E+00 -0.13350474828E+03  0.13350474828E+03  0.00000000000E+00 0. -1.
          6    1    1    2  501    0 -0.36216774519E+02  0.25990779456E+01  0.75843419421E+02  0.19235288985E+03  0.17300000000E+03 0. -1.
         -6    1    1    2    0  503  0.36216774519E+02 -0.25990779456E+01  0.28561962134E+02  0.17906198827E+03  0.17300000000E+03 0. -1.
</event>
<event>
 4    1  0.5943823E+000  0.1000000E+03  0.7546771E-02  0.1280296E+00
         21   -1    0    0  501  502  0.00000000000E+00  0.00000000000E+00  0.44014910550E+03  0.44014910550E+03  0.00000000000E+00 0. -1.
         21   -1    0    0  502  503 -0.00000000000E+00 -0.00000000000E+00 -0.12957069688E+03  0.12957069688E+03  0.00000000000E+00 0. -1.
          6    1    1    2  501    0  0.71660025885E+02  0.95679837465E+01  0.33170979368E+03  0.38103424104E+03  0.17300000000E+03 0. -1.
         -6    1    1    2    0  503 -0.71660025885E+02 -0.95679837465E+01 -0.21131385067E+02  0.18868556134E+03  0.17300000000E+03 0. -1.
</event>
<event>
 4    1  0.5943823E+000  0.1000000E+03  0.7546771E-02  0.1280296E+00
         21   -1    0    0  501  502  0.00000000000E+00  0.00000000000E+00  0.78293062565E+02  0.78293062565E+02  0.00000000000E+00 0.  1.
         21   -1    0    0  502  503 -0.00000000000E+00 -0.00000000000E+00 -0.60609441822E+03  0.60609441822E+03  0.00000000000E+00 0. -1.
          6    1    1    2  501    0  0.11882047963E+03 -0.40915207427E+02 -0.19853232660E+03  0.29178150264E+03  0.17300000000E+03 0.  1.
         -6    1    1    2    0  503 -0.11882047963E+03  0.40915207427E+02 -0.32926902906E+03  0.39260597815E+03  0.17300000000E+03 0. -1.
</event>
<event>
 4    1  0.5943823E+000  0.1000000E+03  0.7546771E-02  0.1280296E+00
         21   -1    0    0  503  502  0.00000000000E+00  0.00000000000E+00  0.19675443446E+03  0.19675443446E+03  0.00000000000E+00 0.  1.
         21   -1    0    0  501  503 -0.00000000000E+00 -0.00000000000E+00 -0.76313904998E+03  0.76313904998E+03  0.00000000000E+00 0.  1.
          6    1    1    2  501    0  0.29599506459E+03  0.12781520622E+03 -0.44119042367E+03  0.57317344246E+03  0.17300000000E+03 0.  1.
         -6    1    1    2    0  502 -0.29599506459E+03 -0.12781520622E+03 -0.12519419185E+03  0.38672004199E+03  0.17300000000E+03 0.  1.
</event>
<event>
 4    1  0.5943823E+000  0.1000000E+03  0.7546771E-02  0.1280296E+00
         21   -1    0    0  503  502  0.00000000000E+00  0.00000000000E+00  0.40740398790E+03  0.40740398790E+03  0.00000000000E+00 0.  1.
         21   -1    0    0  501  503 -0.00000000000E+00 -0.00000000000E+00 -0.10630345760E+03  0.10630345760E+03  0.00000000000E+00 0.  1.
          6    1    1    2  501    0  0.14804262625E+02 -0.10469773425E+03  0.92676780006E+02  0.22293220338E+03  0.17300000000E+03 0.  1.
         -6    1    1    2    0  502 -0.14804262625E+02  0.10469773425E+03  0.20842375029E+03  0.29077524212E+03  0.17300000000E+03 0.  1.
</event>
<event>
 4    1  0.5943823E+000  0.1000000E+03  0.7546771E-02  0.1280296E+00
         21   -1    0    0  503  502  0.00000000000E+00  0.00000000000E+00  0.51343565460E+02  0.51343565460E+02  0.00000000000E+00 0.  1.
         21   -1    0    0  501  503 -0.00000000000E+00 -0.00000000000E+00 -0.72099343188E+03  0.72099343188E+03  0.00000000000E+00 0.  1.
          6    1    1    2  501    0 -0.57466932695E+02 -0.52744316543E+02 -0.39845216627E+03  0.44133608518E+03  0.17300000000E+03 0.  1.
         -6    1    1    2    0  502  0.57466932695E+02  0.52744316543E+02 -0.27119770015E+03  0.33100091215E+03  0.17300000000E+03 0.  1.
</event>
<event>
 4    1  0.5943823E+000  0.1000000E+03  0.7546771E-02  0.1280296E+00
         21   -1    0    0  503  502  0.00000000000E+00  0.00000000000E+00  0.41185109796E+03  0.41185109796E+03  0.00000000000E+00 0.  1.
         21   -1    0    0  501  503 -0.00000000000E+00 -0.00000000000E+00 -0.24961655684E+03  0.24961655684E+03  0.00000000000E+00 0.  1.
          6    1    1    2  501    0 -0.12512050537E+03  0.12168205378E+02 -0.16530832561E+03  0.27029437397E+03  0.17300000000E+03 0.  1.
         -6    1    1    2    0  502  0.12512050537E+03 -0.12168205378E+02  0.32754286673E+03  0.39117328082E+03  0.17300000000E+03 0.  1.
</event>
<event>
 4    1  0.5943823E+000  0.1000000E+03  0.7546771E-02  0.1280296E+00
         21   -1    0    0  503  502  0.00000000000E+00  0.00000000000E+00  0.25139982416E+03  0.25139982416E+03  0.00000000000E+00 0.  1.
         21   -1    0    0  501  503 -0.00000000000E+00 -0.00000000000E+00 -0.24621325714E+03  0.24621325714E+03  0.00000000000E+00 0.  1.
          6    1    1    2  501    0  0.15007552318E+03 -0.22624042839E+02 -0.91934121475E+02  0.24782129179E+03  0.17300000000E+03 0.  1.
         -6    1    1    2    0  502 -0.15007552318E+03  0.22624042839E+02  0.97120688502E+02  0.24979178951E+03  0.17300000000E+03 0.  1.
</event>
<event>
 4    1  0.5943823E+000  0.1000000E+03  0.7546771E-02  0.1280296E+00
         21   -1    0    0  503  502  0.00000000000E+00  0.00000000000E+00  0.18605416038E+03  0.18605416038E+03  0.00000000000E+00 0.  1.
         21   -1    0    0  501  503 -0.00000000000E+00 -0.00000000000E+00 -0.25834458587E+03  0.25834458587E+03  0.00000000000E+00 0.  1.
          6    1    1    2  501    0 -0.33671545009E+02  0.10155911973E+03 -0.11903593263E+03  0.23568322172E+03  0.17300000000E+03 0.  1.
         -6    1    1    2    0  502  0.33671545009E+02 -0.10155911973E+03  0.46745507133E+02  0.20871552453E+03  0.17300000000E+03 0.  1.
</event>
<event>
 4    1  0.5943823E+000  0.1000000E+03  0.7546771E-02  0.1280296E+00
         21   -1    0    0  501  502  0.00000000000E+00  0.00000000000E+00  0.35242234145E+02  0.35242234145E+02  0.00000000000E+00 0. -1.
         21   -1    0    0  502  503 -0.00000000000E+00 -0.00000000000E+00 -0.13095853058E+04  0.13095853058E+04  0.00000000000E+00 0. -1.
          6    1    1    2  501    0  0.78069943158E+02  0.13554774288E+02 -0.32503703270E+03  0.37663871357E+03  0.17300000000E+03 0. -1.
         -6    1    1    2    0  503 -0.78069943158E+02 -0.13554774288E+02 -0.94930603899E+03  0.96818882641E+03  0.17300000000E+03 0. -1.
</event>
<event>
 4    1  0.5943823E+000  0.1000000E+03  0.7546771E-02  0.1280296E+00
         21   -1    0    0  501  502  0.00000000000E+00  0.00000000000E+00  0.34353451620E+03  0.34353451620E+03  0.00000000000E+00 0. -1.
         21   -1    0    0  502  503 -0.00000000000E+00 -0.00000000000E+00 -0.38454401397E+03  0.38454401397E+03  0.00000000000E+00 0. -1.
          6    1    1    2  501    0 -0.66961181901E+02  0.51481331597E+02  0.28827267775E+03  0.34664717527E+03  0.17300000000E+03 0. -1.
         -6    1    1    2    0  503  0.66961181901E+02 -0.51481331597E+02 -0.32928217552E+03  0.38143135490E+03  0.17300000000E+03 0. -1.
</event>
<event>
 4    1  0.5943823E+000  0.1000000E+03  0.7546771E-02  0.1280296E+00
         21   -1    0    0  501  502  0.00000000000E+00  0.00000000000E+00  0.41430688097E+03  0.41430688097E+03  0.00000000000E+00 0. -1.
         21   -1    0    0  502  503 -0.00000000000E+00 -0.00000000000E+00 -0.94752358698E+02  0.94752358698E+02  0.00000000000E+00 0. -1.
          6    1    1    2  501    0  0.37669495348E+02 -0.32514283252E+01  0.27394425681E+03  0.32619628831E+03  0.17300000000E+03 0. -1.
         -6    1    1    2    0  503 -0.37669495348E+02  0.32514283252E+01  0.45610265465E+02  0.18286295136E+03  0.17300000000E+03 0. -1.
</event>
<event>
 4    1  0.5943823E+000  0.1000000E+03  0.7546771E-02  0.1280296E+00
         21   -1    0    0  501  502  0.00000000000E+00  0.00000000000E+00  0.16127659718E+03  0.16127659718E+03  0.00000000000E+00 0.  1.
         21   -1    0    0  502  503 -0.00000000000E+00 -0.00000000000E+00 -0.25740058553E+03  0.25740058553E+03  0.00000000000E+00 0.  1.
          6    1    1    2  501    0  0.26827987203E+02 -0.32189391271E+02  0.53794060697E+02  0.18595348551E+03  0.17300000000E+03 0.  1.
         -6    1    1    2    0  503 -0.26827987203E+02  0.32189391271E+02 -0.14991804904E+03  0.23272369720E+03  0.17300000000E+03 0.  1.
</event>
<event>
 4    1  0.5943823E+000  0.1000000E+03  0.7546771E-02  0.1280296E+00
         21   -1    0    0  501  502  0.00000000000E+00  0.00000000000E+00  0.93087789773E+03  0.93087789773E+03  0.00000000000E+00 0.  1.
         21   -1    0    0  502  503 -0.00000000000E+00 -0.00000000000E+00 -0.10728865667E+03  0.10728865667E+03  0.00000000000E+00 0.  1.
          6    1    1    2  501    0 -0.76785168630E+02  0.14737294852E+03  0.74972887837E+03  0.78717033680E+03  0.17300000000E+03 0.  1.
         -6    1    1    2    0  503  0.76785168630E+02 -0.14737294852E+03  0.73860362688E+02  0.25099621761E+03  0.17300000000E+03 0.  1.
</event>
<event>
 4    1  0.5943823E+000  0.1000000E+03  0.7546771E-02  0.1280296E+00
         21   -1    0    0  501  502  0.00000000000E+00  0.00000000000E+00  0.10703279134E+03  0.10703279134E+03  0.00000000000E+00 0.  1.
         21   -1    0    0  502  503 -0.00000000000E+00 -0.00000000000E+00 -0.63081933069E+03  0.63081933069E+03  0.00000000000E+00 0.  1.
          6    1    1    2  501    0 -0.17367552584E+02  0.19285096103E+03 -0.24796552429E+03  0.35903903171E+03  0.17300000000E+03 0.  1.
         -6    1    1    2    0  503  0.17367552584E+02 -0.19285096103E+03 -0.27582101506E+03  0.37881309033E+03  0.17300000000E+03 0.  1.
</event>
<event>
 4    1  0.5943823E+000  0.1000000E+03  0.7546771E-02  0.1280296E+00
         21   -1    0    0  501  502  0.00000000000E+00  0.00000000000E+00  0.67476648135E+02  0.67476648135E+02  0.00000000000E+00 0.  1.
         21   -1    0    0  502  503 -0.00000000000E+00 -0.00000000000E+00 -0.47419699374E+03  0.47419699374E+03  0.00000000000E+00 0.  1.
          6    1    1    2  501    0  0.14487254077E+02  0.55084665136E+01 -0.13862509869E+03  0.22222992985E+03  0.17300000000E+03 0.  1.
         -6    1    1    2    0  503 -0.14487254077E+02 -0.55084665136E+01 -0.26809524692E+03  0.31944371203E+03  0.17300000000E+03 0.  1.
</event>
<event>
 4    1  0.5943823E+000  0.1000000E+03  0.7546771E-02  0.1280296E+00
         21   -1    0    0  501  502  0.00000000000E+00  0.00000000000E+00  0.23353791760E+03  0.23353791760E+03  0.00000000000E+00 0.  1.
         21   -1    0    0  502  503 -0.00000000000E+00 -0.00000000000E+00 -0.23414962233E+03  0.23414962233E+03  0.00000000000E+00 0.  1.
          6    1    1    2  501    0 -0.87247843646E+01 -0.84360339534E+02  0.13221228412E+03  0.23367044490E+03  0.17300000000E+03 0.  1.
         -6    1    1    2    0  503  0.87247843646E+01  0.84360339534E+02 -0.13282398885E+03  0.23401709502E+03  0.17300000000E+03 0.  1.
</event>
<event>
 4    1  0.5943823E+000  0.1000000E+03  0.7546771E-02  0.1280296E+00
         21   -1    0    0  503  502  0.00000000000E+00  0.00000000000E+00  0.96375477756E+02  0.96375477756E+02  0.00000000000E+00 0.  1.
         21   -1    0    0  501  503 -0.00000000000E+00 -0.00000000000E+00 -0.38688909796E+03  0.38688909796E+03  0.00000000000E+00 0.  1.
          6    1    1    2  501    0 -0.69967940570E+01 -0.28491640188E+02 -0.24611967601E+03  0.30226581614E+03  0.17300000000E+03 0.  1.
         -6    1    1    2    0  502  0.69967940570E+01  0.28491640188E+02 -0.44393944197E+02  0.18099875958E+03  0.17300000000E+03 0.  1.
</event>
<event>
 4    1  0.5943823E+000  0.1000000E+03  0.7546771E-02  0.1280296E+00
         21   -1    0    0  503  502  0.00000000000E+00  0.00000000000E+00  0.72522239872E+03  0.72522239872E+03  0.00000000000E+00 0.  1.
         21   -1    0    0  501  503 -0.00000000000E+00 -0.00000000000E+00 -0.54916321251E+02  0.54916321251E+02  0.00000000000E+00 0.  1.
          6    1    1    2  501    0 -0.58686533206E+00 -0.71328963320E+02  0.19960285900E+03  0.27360275353E+03  0.17300000000E+03 0.  1.
         -6    1    1    2    0  502  0.58686533206E+00  0.71328963320E+02  0.47070321847E+03  0.50653596644E+03  0.17300000000E+03 0.  1.
</event>
<event>
 4    1  0.5943823E+000  0.1000000E+03  0.7546771E-02  0.1280296E+00
         21   -1    0    0  503  502  0.00000000000E+00  0.00000000000E+00  0.89690776229E+02  0.89690776229E+02  0.00000000000E+00 0. -1.
         21   -1    0    0  501  503 -0.00000000000E+00 -0.00000000000E+00 -0.34925737290E+03  0.34925737290E+03  0.00000000000E+00 0. -1.
          6    1    1    2  501    0  0.30429767508E+02 -0.19737707401E+02 -0.14091726597E+03  0.22605800957E+03  0.17300000000E+03 0. -1.
         -6    1    1    2    0  502 -0.30429767508E+02  0.19737707401E+02 -0.11864933070E+03  0.21289013956E+03  0.17300000000E+03 0. -1.
</event>
<event>
 4    1  0.5943823E+000  0.1000000E+03  0.7546771E-02  0.1280296E+00
         21   -1    0    0  503  502  0.00000000000E+00  0.00000000000E+00  0.12438220779E+04  0.12438220779E+04  0.00000000000E+00 0. -1.
         21   -1    0    0  501  503 -0.00000000000E+00 -0.00000000000E+00 -0.92534168031E+02  0.92534168031E+02  0.00000000000E+00 0. -1.
          6    1    1    2  501    0 -0.75891660770E+02 -0.10410724045E+03  0.59909038092E+02  0.22386592982E+03  0.17300000000E+03 0. -1.
         -6    1    1    2    0  502  0.75891660770E+02  0.10410724045E+03  0.10913788718E+04  0.11124903161E+04  0.17300000000E+03 0. -1.
</event>
<event>
 4    1  0.5943823E+000  0.1000000E+03  0.7546771E-02  0.1280296E+00
         21   -1    0    0  503  502  0.00000000000E+00  0.00000000000E+00  0.32637396852E+04  0.32637396852E+04  0.00000000000E+00 0. -1.
         21   -1    0    0  501  503 -0.00000000000E+00 -0.00000000000E+00 -0.12770836218E+02  0.12770836218E+02  0.00000000000E+00 0. -1.
          6    1    1    2  501    0 -0.10290841151E+03  0.85421224763E+01  0.13607298228E+04  0.13755645240E+04  0.17300000000E+03 0. -1.
         -6    1    1    2    0  502  0.10290841151E+03 -0.85421224763E+01  0.18902390261E+04  0.19009459974E+04  0.17300000000E+03 0. -1.
</event>
<event>
 4    1  0.5943823E+000  0.1000000E+03  0.7546771E-02  0.1280296E+00
         21   -1    0    0  503  502  0.00000000000E+00  0.00000000000E+00  0.25769732240E+03  0.25769732240E+03  0.00000000000E+00 0. -1.
         21   -1    0    0  501  503 -0.00000000000E+00 -0.00000000000E+00 -0.36796025318E+03  0.36796025318E+03  0.00000000000E+00 0.  1.
          6    1    1    2  501    0  0.31548892541E+02 -0.50899043988E+02 -0.30667171864E+03  0.35715905184E+03  0.17300000000E+03 0. -1.
         -6    1    1    2    0  502 -0.31548892541E+02  0.50899043988E+02  0.19640878787E+03  0.26849852374E+03  0.17300000000E+03 0.  1.
</event>
<event>
 4    1  0.5943823E+000  0.1000000E+03  0.7546771E-02  0.1280296E+00
         21   -1    0    0  501  502  0.00000000000E+00  0.00000000000E+00  0.65854616399E+03  0.65854616399E+03  0.00000000000E+00 0.  1.
         21   -1    0    0  502  503 -0.00000000000E+00 -0.00000000000E+00 -0.15799693663E+03  0.15799693663E+03  0.00000000000E+00 0.  1.
          6    1    1    2  501    0 -0.14821126165E+03  0.19832191223E+03  0.39359059248E+03  0.49612570326E+03  0.17300000000E+03 0.  1.
         -6    1    1    2    0  503  0.14821126165E+03 -0.19832191223E+03  0.10695863489E+03  0.32041739735E+03  0.17300000000E+03 0.  1.
</event>
<event>
 4    1  0.5943823E+000  0.1000000E+03  0.7546771E-02  0.1280296E+00
         21   -1    0    0  503  502  0.00000000000E+00  0.00000000000E+00  0.11819047250E+03  0.11819047250E+03  0.00000000000E+00 0.  1.
         21   -1    0    0  501  503 -0.00000000000E+00 -0.00000000000E+00 -0.45769909268E+03  0.45769909268E+03  0.00000000000E+00 0.  1.
          6    1    1    2  501    0 -0.98236089602E+01 -0.12050566490E+03 -0.29072962061E+03  0.35926429111E+03  0.17300000000E+03 0. -1.
         -6    1    1    2    0  502  0.98236089602E+01  0.12050566490E+03 -0.48778999570E+02  0.21662527407E+03  0.17300000000E+03 0. -1.
</event>
<event>
 4    1  0.5943823E+000  0.1000000E+03  0.7546771E-02  0.1280296E+00
         21   -1    0    0  503  502  0.00000000000E+00  0.00000000000E+00  0.77437867245E+03  0.77437867245E+03  0.00000000000E+00 0.  1.
         21   -1    0    0  501  503 -0.00000000000E+00 -0.00000000000E+00 -0.12033735120E+04  0.12033735120E+04  0.00000000000E+00 0.  1.
          6    1    1    2  501    0 -0.33545159664E+03  0.22983573399E+03 -0.10936749042E+04  0.11795787530E+04  0.17300000000E+03 0. -1.
         -6    1    1    2    0  502  0.33545159664E+03 -0.22983573399E+03  0.66468006470E+03  0.79817343147E+03  0.17300000000E+03 0. -1.
</event>
<event>
 4    1  0.5943823E+000  0.1000000E+03  0.7546771E-02  0.1280296E+00
         21   -1    0    0  503  502  0.00000000000E+00  0.00000000000E+00  0.24973589888E+03  0.24973589888E+03  0.00000000000E+00 0. -1.
         21   -1    0    0  501  503 -0.00000000000E+00 -0.00000000000E+00 -0.30833850604E+03  0.30833850604E+03  0.00000000000E+00 0.  1.
          6    1    1    2  501    0 -0.61037394185E+02  0.13837885631E+03 -0.18572938834E+03  0.29546349530E+03  0.17300000000E+03 0. -1.
         -6    1    1    2    0  502  0.61037394185E+02 -0.13837885631E+03  0.12712678118E+03  0.26261090963E+03  0.17300000000E+03 0.  1.
</event>
<event>
 4    1  0.5943823E+000  0.1000000E+03  0.7546771E-02  0.1280296E+00
         21   -1    0    0  501  502  0.00000000000E+00  0.00000000000E+00  0.42744985484E+03  0.42744985484E+03  0.00000000000E+00 0.  1.
         21   -1    0    0  502  503 -0.00000000000E+00 -0.00000000000E+00 -0.92135702893E+02  0.92135702893E+02  0.00000000000E+00 0. -1.
          6    1    1    2  501    0  0.83500234547E+02  0.70553520584E+01  0.23221972969E+03  0.30145823927E+03  0.17300000000E+03 0.  1.
         -6    1    1    2    0  503 -0.83500234547E+02 -0.70553520584E+01  0.10309442225E+03  0.21812731847E+03  0.17300000000E+03 0. -1.
</event>
<event>
 4    1  0.5943823E+000  0.1000000E+03  0.7546771E-02  0.1280296E+00
         21   -1    0    0  501  502  0.00000000000E+00  0.00000000000E+00  0.61192436752E+03  0.61192436752E+03  0.00000000000E+00 0.  1.
         21   -1    0    0  502  503 -0.00000000000E+00 -0.00000000000E+00 -0.61262093684E+02  0.61262093684E+02  0.00000000000E+00 0. -1.
          6    1    1    2  501    0 -0.55662824906E+02 -0.66184268081E+02  0.29088612804E+03  0.34931711511E+03  0.17300000000E+03 0.  1.
         -6    1    1    2    0  503  0.55662824906E+02  0.66184268081E+02  0.25977614579E+03  0.32386934609E+03  0.17300000000E+03 0. -1.
</event>
<event>
 4    1  0.5943823E+000  0.1000000E+03  0.7546771E-02  0.1280296E+00
         21   -1    0    0  501  502  0.00000000000E+00  0.00000000000E+00  0.92056528865E+03  0.92056528865E+03  0.00000000000E+00 0.  1.
         21   -1    0    0  502  503 -0.00000000000E+00 -0.00000000000E+00 -0.44956225731E+02  0.44956225731E+02  0.00000000000E+00 0. -1.
          6    1    1    2  501    0  0.88110595538E+02  0.36733450985E+02  0.55267947314E+03  0.58693817689E+03  0.17300000000E+03 0.  1.
         -6    1    1    2    0  503 -0.88110595538E+02 -0.36733450985E+02  0.32292958979E+03  0.37858333749E+03  0.17300000000E+03 0. -1.
</event>
<event>
 4    1  0.5943823E+000  0.1000000E+03  0.7546771E-02  0.1280296E+00
         21   -1    0    0  501  502  0.00000000000E+00  0.00000000000E+00  0.48672804025E+03  0.48672804025E+03  0.00000000000E+00 0.  1.
         21   -1    0    0  502  503 -0.00000000000E+00 -0.00000000000E+00 -0.10948762849E+03  0.10948762849E+03  0.00000000000E+00 0. -1.
          6    1    1    2  501    0 -0.81391818199E+02 -0.11672258219E+03  0.26066969984E+03  0.34369533264E+03  0.17300000000E+03 0.  1.
         -6    1    1    2    0  503  0.81391818199E+02  0.11672258219E+03  0.11657071192E+03  0.25252033609E+03  0.17300000000E+03 0. -1.
</event>
<event>
 4    1  0.5943823E+000  0.1000000E+03  0.7546771E-02  0.1280296E+00
         21   -1    0    0  501  502  0.00000000000E+00  0.00000000000E+00  0.42040053022E+03  0.42040053022E+03  0.00000000000E+00 0.  1.
         21   -1    0    0  502  503 -0.00000000000E+00 -0.00000000000E+00 -0.13421285923E+03  0.13421285923E+03  0.00000000000E+00 0. -1.
          6    1    1    2  501    0 -0.10276339514E+03 -0.11768148698E+03  0.19639973287E+03  0.30481322614E+03  0.17300000000E+03 0.  1.
         -6    1    1    2    0  503  0.10276339514E+03  0.11768148698E+03  0.89787938123E+02  0.24980016331E+03  0.17300000000E+03 0. -1.
</event>
<event>
 4    1  0.5943823E+000  0.1000000E+03  0.7546771E-02  0.1280296E+00
         21   -1    0    0  501  502  0.00000000000E+00  0.00000000000E+00  0.40583239457E+02  0.40583239457E+02  0.00000000000E+00 0.  1.
         21   -1    0    0  502  503 -0.00000000000E+00 -0.00000000000E+00 -0.30113032330E+04  0.30113032330E+04  0.00000000000E+00 0. -1.
          6    1    1    2  501    0  0.16367715618E+03  0.69923835903E+02 -0.41081728889E+03  0.47997854028E+03  0.17300000000E+03 0. -1.
         -6    1    1    2    0  503 -0.16367715618E+03 -0.69923835903E+02 -0.25599027046E+04  0.25719079321E+04  0.17300000000E+03 0. -1.
</event>
<event>
 4    1  0.5943823E+000  0.1000000E+03  0.7546771E-02  0.1280296E+00
         21   -1    0    0  501  502  0.00000000000E+00  0.00000000000E+00  0.44857126652E+04  0.44857126652E+04  0.00000000000E+00 0.  1.
         21   -1    0    0  502  503 -0.00000000000E+00 -0.00000000000E+00 -0.24504044394E+02  0.24504044394E+02  0.00000000000E+00 0. -1.
          6    1    1    2  501    0 -0.23814597636E+03  0.11258390271E+03  0.29309221362E+04  0.29478165157E+04  0.17300000000E+03 0. -1.
         -6    1    1    2    0  503  0.23814597636E+03 -0.11258390271E+03  0.15302864846E+04  0.15624001939E+04  0.17300000000E+03 0. -1.
</event>
<event>
 4    1  0.5943823E+000  0.1000000E+03  0.7546771E-02  0.1280296E+00
         21   -1    0    0  501  502  0.00000000000E+00  0.00000000000E+00  0.27622952245E+03  0.27622952245E+03  0.00000000000E+00 0.  1.
         21   -1    0    0  502  503 -0.00000000000E+00 -0.00000000000E+00 -0.16203476494E+03  0.16203476494E+03  0.00000000000E+00 0. -1.
          6    1    1    2  501    0 -0.53185802060E+02 -0.28790206745E+02  0.16657766019E+03  0.24765847940E+03  0.17300000000E+03 0. -1.
         -6    1    1    2    0  503  0.53185802060E+02  0.28790206745E+02 -0.52382902684E+02  0.19060580799E+03  0.17300000000E+03 0. -1.
</event>
<event>
 4    1  0.5943823E+000  0.1000000E+03  0.7546771E-02  0.1280296E+00
         21   -1    0    0  503  502  0.00000000000E+00  0.00000000000E+00  0.12934555570E+03  0.12934555570E+03  0.00000000000E+00 0.  1.
         21   -1    0    0  501  503 -0.00000000000E+00 -0.00000000000E+00 -0.16712871044E+04  0.16712871044E+04  0.00000000000E+00 0. -1.
          6    1    1    2  501    0  0.21502289077E+03  0.41720021812E+02 -0.14910105635E+04  0.15169103151E+04  0.17300000000E+03 0. -1.
         -6    1    1    2    0  502 -0.21502289077E+03 -0.41720021812E+02 -0.50930985232E+02  0.28372234496E+03  0.17300000000E+03 0.  1.
</event>
<event>
 4    1  0.5943823E+000  0.1000000E+03  0.7546771E-02  0.1280296E+00
         21   -1    0    0  503  502  0.00000000000E+00  0.00000000000E+00  0.31339485740E+03  0.31339485740E+03  0.00000000000E+00 0.  1.
         21   -1    0    0  501  503 -0.00000000000E+00 -0.00000000000E+00 -0.11877095788E+03  0.11877095788E+03  0.00000000000E+00 0. -1.
          6    1    1    2  501    0 -0.81054450038E+02  0.26660786804E+02  0.10128535580E+03  0.21787231289E+03  0.17300000000E+03 0. -1.
         -6    1    1    2    0  502  0.81054450038E+02 -0.26660786804E+02  0.93338543720E+02  0.21429350239E+03  0.17300000000E+03 0.  1.
</event>
<event>
 4    1  0.5943823E+000  0.1000000E+03  0.7546771E-02  0.1280296E+00
         21   -1    0    0  501  502  0.00000000000E+00  0.00000000000E+00  0.61860391093E+02  0.61860391093E+02  0.00000000000E+00 0. -1.
         21   -1    0    0  502  503 -0.00000000000E+00 -0.00000000000E+00 -0.82151607673E+03  0.82151607673E+03  0.00000000000E+00 0.  1.
          6    1    1    2  501    0 -0.37355683914E+02  0.13380123850E+03 -0.30164978117E+03  0.37445935564E+03  0.17300000000E+03 0. -1.
         -6    1    1    2    0  503  0.37355683914E+02 -0.13380123850E+03 -0.45800590446E+03  0.50891711218E+03  0.17300000000E+03 0.  1.
</event>
<event>
 4    1  0.5943823E+000  0.1000000E+03  0.7546771E-02  0.1280296E+00
         21   -1    0    0  501  502  0.00000000000E+00  0.00000000000E+00  0.59979706449E+03  0.59979706449E+03  0.00000000000E+00 0. -1.
         21   -1    0    0  502  503 -0.00000000000E+00 -0.00000000000E+00 -0.95905612829E+02  0.95905612829E+02  0.00000000000E+00 0.  1.
          6    1    1    2  501    0  0.80343303260E+02 -0.13802867385E+03  0.18567390437E+03  0.29985122969E+03  0.17300000000E+03 0. -1.
         -6    1    1    2    0  503 -0.80343303260E+02  0.13802867385E+03  0.31821754729E+03  0.39585144763E+03  0.17300000000E+03 0.  1.
</event>
<event>
 4    1  0.5943823E+000  0.1000000E+03  0.7546771E-02  0.1280296E+00
         21   -1    0    0  501  502  0.00000000000E+00  0.00000000000E+00  0.57046034143E+02  0.57046034143E+02  0.00000000000E+00 0. -1.
         21   -1    0    0  502  503 -0.00000000000E+00 -0.00000000000E+00 -0.25009306982E+04  0.25009306982E+04  0.00000000000E+00 0.  1.
          6    1    1    2  501    0  0.28495021150E+03  0.17749926954E+03 -0.12014669717E+04  0.12594262574E+04  0.17300000000E+03 0. -1.
         -6    1    1    2    0  503 -0.28495021150E+03 -0.17749926954E+03 -0.12424176923E+04  0.12985504749E+04  0.17300000000E+03 0.  1.
</event>
<event>
 4    1  0.5943823E+000  0.1000000E+03  0.7546771E-02  0.1280296E+00
         21   -1    0    0  501  502  0.00000000000E+00  0.00000000000E+00  0.56200031051E+03  0.56200031051E+03  0.00000000000E+00 0. -1.
         21   -1    0    0  502  503 -0.00000000000E+00 -0.00000000000E+00 -0.10655273488E+03  0.10655273488E+03  0.00000000000E+00 0.  1.
          6    1    1    2  501    0  0.79867815264E+02  0.11868851840E+03  0.36078115405E+03  0.42492102022E+03  0.17300000000E+03 0. -1.
         -6    1    1    2    0  503 -0.79867815264E+02 -0.11868851840E+03  0.94666421580E+02  0.24363202517E+03  0.17300000000E+03 0.  1.
</event>
<event>
 4    1  0.5943823E+000  0.1000000E+03  0.7546771E-02  0.1280296E+00
         21   -1    0    0  501  502  0.00000000000E+00  0.00000000000E+00  0.50705074733E+03  0.50705074733E+03  0.00000000000E+00 0. -1.
         21   -1    0    0  502  503 -0.00000000000E+00 -0.00000000000E+00 -0.45936295001E+03  0.45936295001E+03  0.00000000000E+00 0.  1.
          6    1    1    2  501    0 -0.98002863204E+02 -0.11001497280E+03  0.45013718220E+03  0.50424234078E+03  0.17300000000E+03 0. -1.
         -6    1    1    2    0  503  0.98002863204E+02  0.11001497280E+03 -0.40244938488E+03  0.46217135657E+03  0.17300000000E+03 0.  1.
</event>
<event>
 4    1  0.5943823E+000  0.1000000E+03  0.7546771E-02  0.1280296E+00
         21   -1    0    0  501  502  0.00000000000E+00  0.00000000000E+00  0.16681321039E+04  0.16681321039E+04  0.00000000000E+00 0. -1.
         21   -1    0    0  502  503 -0.00000000000E+00 -0.00000000000E+00 -0.46610432444E+02  0.46610432444E+02  0.00000000000E+00 0.  1.
          6    1    1    2  501    0  0.10657784535E+03 -0.18685233950E+03  0.93184281475E+03  0.97187070400E+03  0.17300000000E+03 0.  1.
         -6    1    1    2    0  503 -0.10657784535E+03  0.18685233950E+03  0.68967885668E+03  0.74287183231E+03  0.17300000000E+03 0. -1.
</event>
<event>
 4    1  0.5943823E+000  0.1000000E+03  0.7546771E-02  0.1280296E+00
         21   -1    0    0  501  502  0.00000000000E+00  0.00000000000E+00  0.14762624041E+03  0.14762624041E+03  0.00000000000E+00 0. -1.
         21   -1    0    0  502  503 -0.00000000000E+00 -0.00000000000E+00 -0.42555858191E+03  0.42555858191E+03  0.00000000000E+00 0.  1.
          6    1    1    2  501    0  0.11512516773E+03  0.11361269931E+03 -0.45143806926E+02  0.24109876191E+03  0.17300000000E+03 0.  1.
         -6    1    1    2    0  503 -0.11512516773E+03 -0.11361269931E+03 -0.23278853458E+03  0.33208606041E+03  0.17300000000E+03 0. -1.
</event>
<event>
 4    1  0.5943823E+000  0.1000000E+03  0.7546771E-02  0.1280296E+00
         21   -1    0    0  503  502  0.00000000000E+00  0.00000000000E+00  0.31238204744E+03  0.31238204744E+03  0.00000000000E+00 0. -1.
         21   -1    0    0  501  503 -0.00000000000E+00 -0.00000000000E+00 -0.24081631151E+03  0.24081631151E+03  0.00000000000E+00 0.  1.
          6    1    1    2  501    0 -0.39916066691E+02 -0.88696962443E+02 -0.15512869601E+03  0.25190148045E+03  0.17300000000E+03 0. -1.
         -6    1    1    2    0  502  0.39916066691E+02  0.88696962443E+02  0.22669443194E+03  0.30129687851E+03  0.17300000000E+03 0. -1.
</event>
<event>
 4    1  0.5943823E+000  0.1000000E+03  0.7546771E-02  0.1280296E+00
         21   -1    0    0  503  502  0.00000000000E+00  0.00000000000E+00  0.38811838663E+03  0.38811838663E+03  0.00000000000E+00 0. -1.
         21   -1    0    0  501  503 -0.00000000000E+00 -0.00000000000E+00 -0.98516344219E+02  0.98516344219E+02  0.00000000000E+00 0.  1.
          6    1    1    2  501    0 -0.17735986911E+02  0.47296965848E+02  0.50400154596E+02  0.18713830125E+03  0.17300000000E+03 0. -1.
         -6    1    1    2    0  502  0.17735986911E+02 -0.47296965848E+02  0.23920188781E+03  0.29949642960E+03  0.17300000000E+03 0. -1.
</event>
<event>
 4    1  0.5943823E+000  0.1000000E+03  0.7546771E-02  0.1280296E+00
         21   -1    0    0  503  502  0.00000000000E+00  0.00000000000E+00  0.32176173495E+03  0.32176173495E+03  0.00000000000E+00 0. -1.
         21   -1    0    0  501  503 -0.00000000000E+00 -0.00000000000E+00 -0.11576304093E+04  0.11576304093E+04  0.00000000000E+00 0. -1.
          6    1    1    2  501    0 -0.72507804324E+02  0.42175811602E+02 -0.11199677165E+04  0.11363506795E+04  0.17300000000E+03 0. -1.
         -6    1    1    2    0  502  0.72507804324E+02 -0.42175811602E+02  0.28409904217E+03  0.34304146475E+03  0.17300000000E+03 0. -1.
</event>
<event>
 4    1  0.5943823E+000  0.1000000E+03  0.7546771E-02  0.1280296E+00
         21   -1    0    0  503  502  0.00000000000E+00  0.00000000000E+00  0.23148922354E+03  0.23148922354E+03  0.00000000000E+00 0. -1.
         21   -1    0    0  501  503 -0.00000000000E+00 -0.00000000000E+00 -0.21571947536E+03  0.21571947536E+03  0.00000000000E+00 0. -1.
          6    1    1    2  501    0 -0.90996008795E+02  0.10456492143E+03 -0.20304228803E+02  0.22261032796E+03  0.17300000000E+03 0. -1.
         -6    1    1    2    0  502  0.90996008795E+02 -0.10456492143E+03  0.36073976981E+02  0.22459837093E+03  0.17300000000E+03 0. -1.
</event>
<event>
 4    1  0.5943823E+000  0.1000000E+03  0.7546771E-02  0.1280296E+00
         21   -1    0    0  503  502  0.00000000000E+00  0.00000000000E+00  0.18922710397E+04  0.18922710397E+04  0.00000000000E+00 0. -1.
         21   -1    0    0  501  503 -0.00000000000E+00 -0.00000000000E+00 -0.52551073015E+02  0.52551073015E+02  0.00000000000E+00 0.  1.
          6    1    1    2  501    0  0.10049453714E+03 -0.12602157450E+03  0.27647908456E+03  0.36379977107E+03  0.17300000000E+03 0.  1.
         -6    1    1    2    0  502 -0.10049453714E+03  0.12602157450E+03  0.15632408821E+04  0.15810223417E+04  0.17300000000E+03 0. -1.
</event>
<event>
 4    1  0.5943823E+000  0.1000000E+03  0.7546771E-02  0.1280296E+00
         21   -1    0    0  503  502  0.00000000000E+00  0.00000000000E+00  0.40515496102E+02  0.40515496102E+02  0.00000000000E+00 0.  1.
         21   -1    0    0  501  503 -0.00000000000E+00 -0.00000000000E+00 -0.10898354080E+04  0.10898354080E+04  0.00000000000E+00 0.  1.
          6    1    1    2  501    0 -0.10299732406E+03  0.32918111368E+02 -0.66005733136E+03  0.69086665248E+03  0.17300000000E+03 0.  1.
         -6    1    1    2    0  502  0.10299732406E+03 -0.32918111368E+02 -0.38926258053E+03  0.43948425162E+03  0.17300000000E+03 0.  1.
</event>
<event>
 4    1  0.5943823E+000  0.1000000E+03  0.7546771E-02  0.1280296E+00
         21   -1    0    0  503  502  0.00000000000E+00  0.00000000000E+00  0.74879360302E+03  0.74879360302E+03  0.00000000000E+00 0.  1.
         21   -1    0    0  501  503 -0.00000000000E+00 -0.00000000000E+00 -0.59607766525E+03  0.59607766525E+03  0.00000000000E+00 0.  1.
          6    1    1    2  501    0  0.35825109920E+02  0.44166372922E+03 -0.39580143410E+03  0.61881989581E+03  0.17300000000E+03 0.  1.
         -6    1    1    2    0  502 -0.35825109920E+02 -0.44166372922E+03  0.54851737188E+03  0.72605137246E+03  0.17300000000E+03 0.  1.
</event>
<event>
 4    1  0.5943823E+000  0.1000000E+03  0.7546771E-02  0.1280296E+00
         21   -1    0    0  503  502  0.00000000000E+00  0.00000000000E+00  0.37439600081E+03  0.37439600081E+03  0.00000000000E+00 0.  1.
         21   -1    0    0  501  503 -0.00000000000E+00 -0.00000000000E+00 -0.11078741435E+03  0.11078741435E+03  0.00000000000E+00 0.  1.
          6    1    1    2  501    0 -0.37894521281E+02 -0.87387061987E+02  0.72523108026E+02  0.21038320880E+03  0.17300000000E+03 0.  1.
         -6    1    1    2    0  502  0.37894521281E+02  0.87387061987E+02  0.19108547844E+03  0.27480020636E+03  0.17300000000E+03 0.  1.
</event>
<event>
 4    1  0.5943823E+000  0.1000000E+03  0.7546771E-02  0.1280296E+00
         21   -1    0    0  503  502  0.00000000000E+00  0.00000000000E+00  0.35956028341E+03  0.35956028341E+03  0.00000000000E+00 0.  1.
         21   -1    0    0  501  503 -0.00000000000E+00 -0.00000000000E+00 -0.17181852584E+03  0.17181852584E+03  0.00000000000E+00 0.  1.
          6    1    1    2  501    0  0.72214633003E+02  0.16254511449E+03  0.10951727008E+03  0.27121744028E+03  0.17300000000E+03 0.  1.
         -6    1    1    2    0  502 -0.72214633003E+02 -0.16254511449E+03  0.78224487481E+02  0.26016136897E+03  0.17300000000E+03 0.  1.
</event>
<event>
 4    1  0.5943823E+000  0.1000000E+03  0.7546771E-02  0.1280296E+00
         21   -1    0    0  503  502  0.00000000000E+00  0.00000000000E+00  0.48041377597E+03  0.48041377597E+03  0.00000000000E+00 0. -1.
         21   -1    0    0  501  503 -0.00000000000E+00 -0.00000000000E+00 -0.72504446252E+02  0.72504446252E+02  0.00000000000E+00 0. -1.
          6    1    1    2  501    0  0.28922978325E+02 -0.21359803076E+00  0.10949335880E+03  0.20677132277E+03  0.17300000000E+03 0. -1.
         -6    1    1    2    0  502 -0.28922978325E+02  0.21359803076E+00  0.29841597092E+03  0.34614689945E+03  0.17300000000E+03 0. -1.
</event>
<event>
 4    1  0.5943823E+000  0.1000000E+03  0.7546771E-02  0.1280296E+00
         21   -1    0    0  503  502  0.00000000000E+00  0.00000000000E+00  0.95378081339E+03  0.95378081339E+03  0.00000000000E+00 0. -1.
         21   -1    0    0  501  503 -0.00000000000E+00 -0.00000000000E+00 -0.60350889272E+02  0.60350889272E+02  0.00000000000E+00 0. -1.
          6    1    1    2  501    0  0.10825186190E+03 -0.70079468944E+02  0.22502181598E+03  0.31175858487E+03  0.17300000000E+03 0. -1.
         -6    1    1    2    0  502 -0.10825186190E+03  0.70079468944E+02  0.66840810814E+03  0.70237311779E+03  0.17300000000E+03 0. -1.
</event>
<event>
 4    1  0.5943823E+000  0.1000000E+03  0.7546771E-02  0.1280296E+00
         21   -1    0    0  503  502  0.00000000000E+00  0.00000000000E+00  0.12475915378E+03  0.12475915378E+03  0.00000000000E+00 0. -1.
         21   -1    0    0  501  503 -0.00000000000E+00 -0.00000000000E+00 -0.54205738018E+03  0.54205738018E+03  0.00000000000E+00 0. -1.
          6    1    1    2  501    0  0.12267051042E+02 -0.18404061476E+02 -0.45595713067E+03  0.48817527081E+03  0.17300000000E+03 0. -1.
         -6    1    1    2    0  502 -0.12267051042E+02  0.18404061476E+02  0.38658904265E+02  0.17864126315E+03  0.17300000000E+03 0. -1.
</event>
<event>
 4    1  0.5943823E+000  0.1000000E+03  0.7546771E-02  0.1280296E+00
         21   -1    0    0  503  502  0.00000000000E+00  0.00000000000E+00  0.92681723109E+02  0.92681723109E+02  0.00000000000E+00 0.  1.
         21   -1    0    0  501  503 -0.00000000000E+00 -0.00000000000E+00 -0.49307648900E+03  0.49307648900E+03  0.00000000000E+00 0.  1.
          6    1    1    2  501    0  0.69037715386E+02  0.85356848526E+02 -0.28373834077E+03  0.34998349069E+03  0.17300000000E+03 0.  1.
         -6    1    1    2    0  502 -0.69037715386E+02 -0.85356848526E+02 -0.11665642512E+03  0.23577472142E+03  0.17300000000E+03 0.  1.
</event>
<event>
 4    1  0.5943823E+000  0.1000000E+03  0.7546771E-02  0.1280296E+00
         21   -1    0    0  503  502  0.00000000000E+00  0.00000000000E+00  0.63178650341E+03  0.63178650341E+03  0.00000000000E+00 0.  1.
         21   -1    0    0  501  503 -0.00000000000E+00 -0.00000000000E+00 -0.99152462373E+02  0.99152462373E+02  0.00000000000E+00 0.  1.
          6    1    1    2  501    0  0.40121849730E+02 -0.27002432228E+01  0.88187165797E+01  0.17783088568E+03  0.17300000000E+03 0.  1.
         -6    1    1    2    0  502 -0.40121849730E+02  0.27002432228E+01  0.52381532446E+03  0.55310808010E+03  0.17300000000E+03 0.  1.
</event>
<event>
 4    1  0.5943823E+000  0.1000000E+03  0.7546771E-02  0.1280296E+00
         21   -1    0    0  501  502  0.00000000000E+00  0.00000000000E+00  0.13482388553E+04  0.13482388553E+04  0.00000000000E+00 0.  1.
         21   -1    0    0  502  503 -0.00000000000E+00 -0.00000000000E+00 -0.18590174190E+03  0.18590174190E+03  0.00000000000E+00 0.  1.
          6    1    1    2  501    0 -0.10339896973E+03  0.29967669662E+02  0.12818319140E+04  0.12979258314E+04  0.17300000000E+03 0.  1.
         -6    1    1    2    0  503  0.10339896973E+03 -0.29967669662E+02 -0.11949480064E+03  0.23621476573E+03  0.17300000000E+03 0.  1.
</event>
<event>
 4    1  0.5943823E+000  0.1000000E+03  0.7546771E-02  0.1280296E+00
         21   -1    0    0  503  502  0.00000000000E+00  0.00000000000E+00  0.50295727097E+03  0.50295727097E+03  0.00000000000E+00 0.  1.
         21   -1    0    0  501  503 -0.00000000000E+00 -0.00000000000E+00 -0.10409445039E+03  0.10409445039E+03  0.00000000000E+00 0.  1.
          6    1    1    2  501    0  0.52788373158E+02  0.87570598582E+02  0.54294239325E+02  0.20816360513E+03  0.17300000000E+03 0.  1.
         -6    1    1    2    0  502 -0.52788373158E+02 -0.87570598582E+02  0.34456858126E+03  0.39888811623E+03  0.17300000000E+03 0.  1.
</event>
<event>
 4    1  0.5943823E+000  0.1000000E+03  0.7546771E-02  0.1280296E+00
         21   -1    0    0  503  502  0.00000000000E+00  0.00000000000E+00  0.32787949079E+04  0.32787949079E+04  0.00000000000E+00 0.  1.
         21   -1    0    0  501  503 -0.00000000000E+00 -0.00000000000E+00 -0.19453339560E+02  0.19453339560E+02  0.00000000000E+00 0.  1.
          6    1    1    2  501    0 -0.15943552256E+03 -0.15805514423E+02  0.10389139469E+04  0.10653359513E+04  0.17300000000E+03 0.  1.
         -6    1    1    2    0  502  0.15943552256E+03  0.15805514423E+02  0.22204276215E+04  0.22329122961E+04  0.17300000000E+03 0.  1.
</event>
<event>
 4    1  0.5943823E+000  0.1000000E+03  0.7546771E-02  0.1280296E+00
         21   -1    0    0  503  502  0.00000000000E+00  0.00000000000E+00  0.44061755471E+03  0.44061755471E+03  0.00000000000E+00 0.  1.
         21   -1    0    0  501  503 -0.00000000000E+00 -0.00000000000E+00 -0.11992680092E+03  0.11992680092E+03  0.00000000000E+00 0.  1.
          6    1    1    2  501    0 -0.73671315480E+02  0.91911381406E+02  0.44435708817E+02  0.21395956855E+03  0.17300000000E+03 0. -1.
         -6    1    1    2    0  502  0.73671315480E+02 -0.91911381406E+02  0.27625504498E+03  0.34658478708E+03  0.17300000000E+03 0. -1.
</event>
<event>
 4    1  0.5943823E+000  0.1000000E+03  0.7546771E-02  0.1280296E+00
         21   -1    0    0  503  502  0.00000000000E+00  0.00000000000E+00  0.21887993177E+02  0.21887993177E+02  0.00000000000E+00 0.  1.
         21   -1    0    0  501  503 -0.00000000000E+00 -0.00000000000E+00 -0.14193274104E+04  0.14193274104E+04  0.00000000000E+00 0.  1.
          6    1    1    2  501    0 -0.22045253660E+02 -0.24684239778E+01 -0.80256394747E+03  0.82129773901E+03  0.17300000000E+03 0. -1.
         -6    1    1    2    0  502  0.22045253660E+02  0.24684239778E+01 -0.59487546974E+03  0.61991766455E+03  0.17300000000E+03 0. -1.
</event>
<event>
 4    1  0.5943823E+000  0.1000000E+03  0.7546771E-02  0.1280296E+00
         21   -1    0    0  503  502  0.00000000000E+00  0.00000000000E+00  0.34209281348E+03  0.34209281348E+03  0.00000000000E+00 0.  1.
         21   -1    0    0  501  503 -0.00000000000E+00 -0.00000000000E+00 -0.17039421922E+03  0.17039421922E+03  0.00000000000E+00 0.  1.
          6    1    1    2  501    0 -0.36851273947E+02 -0.68919151649E+02 -0.72477818024E+02  0.20319916329E+03  0.17300000000E+03 0. -1.
         -6    1    1    2    0  502  0.36851273947E+02  0.68919151649E+02  0.24417641228E+03  0.30928786942E+03  0.17300000000E+03 0. -1.
</event>
<event>
 4    1  0.5943823E+000  0.1000000E+03  0.7546771E-02  0.1280296E+00
         21   -1    0    0  503  502  0.00000000000E+00  0.00000000000E+00  0.14080078061E+03  0.14080078061E+03  0.00000000000E+00 0.  1.
         21   -1    0    0  501  503 -0.00000000000E+00 -0.00000000000E+00 -0.78039065000E+03  0.78039065000E+03  0.00000000000E+00 0.  1.
          6    1    1    2  501    0  0.10222647235E+03  0.39276646531E+02 -0.68202182630E+03  0.71209246462E+03  0.17300000000E+03 0.  1.
         -6    1    1    2    0  502 -0.10222647235E+03 -0.39276646531E+02  0.42431956919E+02  0.20909896600E+03  0.17300000000E+03 0.  1.
</event>
<event>
 4    1  0.5943823E+000  0.1000000E+03  0.7546771E-02  0.1280296E+00
         21   -1    0    0  503  502  0.00000000000E+00  0.00000000000E+00  0.11703478728E+03  0.11703478728E+03  0.00000000000E+00 0.  1.
         21   -1    0    0  501  503 -0.00000000000E+00 -0.00000000000E+00 -0.77828583449E+03  0.77828583449E+03  0.00000000000E+00 0.  1.
          6    1    1    2  501    0  0.17158579696E+03  0.13404543177E+03 -0.50454004024E+03  0.57610720851E+03  0.17300000000E+03 0.  1.
         -6    1    1    2    0  502 -0.17158579696E+03 -0.13404543177E+03 -0.15671100697E+03  0.31921341326E+03  0.17300000000E+03 0.  1.
</event>
<event>
 4    1  0.5943823E+000  0.1000000E+03  0.7546771E-02  0.1280296E+00
         21   -1    0    0  503  502  0.00000000000E+00  0.00000000000E+00  0.86983953724E+02  0.86983953724E+02  0.00000000000E+00 0. -1.
         21   -1    0    0  501  503 -0.00000000000E+00 -0.00000000000E+00 -0.44862807773E+03  0.44862807773E+03  0.00000000000E+00 0.  1.
          6    1    1    2  501    0 -0.50377465913E+02 -0.26555070812E+02 -0.77120141990E+02  0.19778669611E+03  0.17300000000E+03 0.  1.
         -6    1    1    2    0  502  0.50377465913E+02  0.26555070812E+02 -0.28452398201E+03  0.33782533534E+03  0.17300000000E+03 0. -1.
</event>
<event>
 4    1  0.5943823E+000  0.1000000E+03  0.7546771E-02  0.1280296E+00
         21   -1    0    0  503  502  0.00000000000E+00  0.00000000000E+00  0.36316421941E+03  0.36316421941E+03  0.00000000000E+00 0. -1.
         21   -1    0    0  501  503 -0.00000000000E+00 -0.00000000000E+00 -0.15116995246E+03  0.15116995246E+03  0.00000000000E+00 0.  1.
          6    1    1    2  501    0  0.11020432390E+03 -0.11300509780E+03  0.97829828563E+02  0.25380074959E+03  0.17300000000E+03 0.  1.
         -6    1    1    2    0  502 -0.11020432390E+03  0.11300509780E+03  0.11416443839E+03  0.26053342229E+03  0.17300000000E+03 0. -1.
</event>
<event>
 4    1  0.5943823E+000  0.1000000E+03  0.7546771E-02  0.1280296E+00
         21   -1    0    0  501  502  0.00000000000E+00  0.00000000000E+00  0.85374552203E+03  0.85374552203E+03  0.00000000000E+00 0. -1.
         21   -1    0    0  502  503 -0.00000000000E+00 -0.00000000000E+00 -0.95984937491E+02  0.95984937491E+02  0.00000000000E+00 0. -1.
          6    1    1    2  501    0 -0.19959231001E+03  0.23555964377E+01  0.56191791603E+03  0.62090529343E+03  0.17300000000E+03 0. -1.
         -6    1    1    2    0  503  0.19959231001E+03 -0.23555964377E+01  0.19584266851E+03  0.32882516609E+03  0.17300000000E+03 0. -1.
</event>
<event>
 4    1  0.5943823E+000  0.1000000E+03  0.7546771E-02  0.1280296E+00
         21   -1    0    0  501  502  0.00000000000E+00  0.00000000000E+00  0.83898829495E+03  0.83898829495E+03  0.00000000000E+00 0. -1.
         21   -1    0    0  502  503 -0.00000000000E+00 -0.00000000000E+00 -0.36809761655E+03  0.36809761655E+03  0.00000000000E+00 0. -1.
          6    1    1    2  501    0 -0.51875730842E+02 -0.26105592763E+03  0.73082971078E+03  0.79679505204E+03  0.17300000000E+03 0. -1.
         -6    1    1    2    0  503  0.51875730842E+02  0.26105592763E+03 -0.25993903237E+03  0.41029085945E+03  0.17300000000E+03 0. -1.
</event>
<event>
 4    1  0.5943823E+000  0.1000000E+03  0.7546771E-02  0.1280296E+00
         21   -1    0    0  501  502  0.00000000000E+00  0.00000000000E+00  0.16693029686E+03  0.16693029686E+03  0.00000000000E+00 0.  1.
         21   -1    0    0  502  503 -0.00000000000E+00 -0.00000000000E+00 -0.27012823710E+03  0.27012823710E+03  0.00000000000E+00 0.  1.
          6    1    1    2  501    0 -0.35769285751E+02  0.84366759595E+02 -0.13625067391E+03  0.23851716514E+03  0.17300000000E+03 0.  1.
         -6    1    1    2    0  503  0.35769285751E+02 -0.84366759595E+02  0.33052733662E+02  0.19854136881E+03  0.17300000000E+03 0.  1.
</event>
<event>
 4    1  0.5943823E+000  0.1000000E+03  0.7546771E-02  0.1280296E+00
         21   -1    0    0  501  502  0.00000000000E+00  0.00000000000E+00  0.33504434044E+02  0.33504434044E+02  0.00000000000E+00 0.  1.
         21   -1    0    0  502  503 -0.00000000000E+00 -0.00000000000E+00 -0.12307731251E+04  0.12307731251E+04  0.00000000000E+00 0.  1.
          6    1    1    2  501    0  0.40893934982E+02 -0.96650275997E+02 -0.65198920237E+03  0.68266573795E+03  0.17300000000E+03 0.  1.
         -6    1    1    2    0  503 -0.40893934982E+02  0.96650275997E+02 -0.54527948872E+03  0.58161182122E+03  0.17300000000E+03 0.  1.
</event>
<event>
 4    1  0.5943823E+000  0.1000000E+03  0.7546771E-02  0.1280296E+00
         21   -1    0    0  503  502  0.00000000000E+00  0.00000000000E+00  0.18463116407E+03  0.18463116407E+03  0.00000000000E+00 0.  1.
         21   -1    0    0  501  503 -0.00000000000E+00 -0.00000000000E+00 -0.38755496222E+03  0.38755496222E+03  0.00000000000E+00 0.  1.
          6    1    1    2  501    0 -0.10149658220E+02 -0.20263515749E+03 -0.12444288599E+03  0.29424318936E+03  0.17300000000E+03 0.  1.
         -6    1    1    2    0  502  0.10149658220E+02  0.20263515749E+03 -0.78480912169E+02  0.27794293693E+03  0.17300000000E+03 0.  1.
</event>
<event>
 4    1  0.5943823E+000  0.1000000E+03  0.7546771E-02  0.1280296E+00
         21   -1    0    0  503  502  0.00000000000E+00  0.00000000000E+00  0.16567051759E+03  0.16567051759E+03  0.00000000000E+00 0. -1.
         21   -1    0    0  501  503 -0.00000000000E+00 -0.00000000000E+00 -0.45408129261E+03  0.45408129261E+03  0.00000000000E+00 0. -1.
          6    1    1    2  501    0  0.13632118284E+03  0.14302735698E+03 -0.54826129462E+02  0.26828193045E+03  0.17300000000E+03 0. -1.
         -6    1    1    2    0  502 -0.13632118284E+03 -0.14302735698E+03 -0.23358464556E+03  0.35146987975E+03  0.17300000000E+03 0. -1.
</event>
<event>
 4    1  0.5943823E+000  0.1000000E+03  0.7546771E-02  0.1280296E+00
         21   -1    0    0  501  502  0.00000000000E+00  0.00000000000E+00  0.66569056235E+03  0.66569056235E+03  0.00000000000E+00 0.  1.
         21   -1    0    0  502  503 -0.00000000000E+00 -0.00000000000E+00 -0.69297546760E+02  0.69297546760E+02  0.00000000000E+00 0. -1.
          6    1    1    2  501    0  0.14589745199E+01  0.57071783750E+02  0.49285022114E+03  0.52544234468E+03  0.17300000000E+03 0. -1.
         -6    1    1    2    0  503 -0.14589745199E+01 -0.57071783750E+02  0.10354279445E+03  0.20954576443E+03  0.17300000000E+03 0.  1.
</event>
<event>
 4    1  0.5943823E+000  0.1000000E+03  0.7546771E-02  0.1280296E+00
         21   -1    0    0  503  502  0.00000000000E+00  0.00000000000E+00  0.98078945033E+03  0.98078945033E+03  0.00000000000E+00 0. -1.
         21   -1    0    0  501  503 -0.00000000000E+00 -0.00000000000E+00 -0.55836754394E+02  0.55836754394E+02  0.00000000000E+00 0. -1.
          6    1    1    2  501    0 -0.41750585960E+02 -0.53710547050E+01  0.12611705647E+03  0.21818907303E+03  0.17300000000E+03 0. -1.
         -6    1    1    2    0  502  0.41750585960E+02  0.53710547050E+01  0.79883563947E+03  0.81843713170E+03  0.17300000000E+03 0. -1.
</event>
<event>
 4    1  0.5943823E+000  0.1000000E+03  0.7546771E-02  0.1280296E+00
         21   -1    0    0  501  502  0.00000000000E+00  0.00000000000E+00  0.82695148652E+02  0.82695148652E+02  0.00000000000E+00 0. -1.
         21   -1    0    0  502  503 -0.00000000000E+00 -0.00000000000E+00 -0.96350321198E+03  0.96350321198E+03  0.00000000000E+00 0.  1.
          6    1    1    2  501    0 -0.26302413856E+02 -0.21744516805E+02 -0.31932876164E+02  0.17920197980E+03  0.17300000000E+03 0.  1.
         -6    1    1    2    0  503  0.26302413856E+02  0.21744516805E+02 -0.84887518716E+03  0.86699638083E+03  0.17300000000E+03 0. -1.
</event>
<event>
 4    1  0.5943823E+000  0.1000000E+03  0.7546771E-02  0.1280296E+00
         21   -1    0    0  503  502  0.00000000000E+00  0.00000000000E+00  0.55068273119E+03  0.55068273119E+03  0.00000000000E+00 0. -1.
         21   -1    0    0  501  503 -0.00000000000E+00 -0.00000000000E+00 -0.14923081141E+03  0.14923081141E+03  0.00000000000E+00 0. -1.
          6    1    1    2  501    0 -0.52875930950E+02 -0.14287995337E+03 -0.73047190655E+01  0.23063586900E+03  0.17300000000E+03 0. -1.
         -6    1    1    2    0  502  0.52875930950E+02  0.14287995337E+03  0.40875663885E+03  0.46927767361E+03  0.17300000000E+03 0. -1.
</event>
<event>
 4    1  0.5943823E+000  0.1000000E+03  0.7546771E-02  0.1280296E+00
         21   -1    0    0  501  502  0.00000000000E+00  0.00000000000E+00  0.17790635062E+04  0.17790635062E+04  0.00000000000E+00 0.  1.
         21   -1    0    0  502  503 -0.00000000000E+00 -0.00000000000E+00 -0.22063030850E+02  0.22063030850E+02  0.00000000000E+00 0. -1.
          6    1    1    2  501    0 -0.89602194224E+02 -0.34811184882E+02  0.83729813726E+03  0.86037058437E+03  0.17300000000E+03 0.  1.
         -6    1    1    2    0  503  0.89602194224E+02  0.34811184882E+02  0.91970233812E+03  0.94075595270E+03  0.17300000000E+03 0. -1.
</event>
<event>
 4    1  0.5943823E+000  0.1000000E+03  0.7546771E-02  0.1280296E+00
         21   -1    0    0  503  502  0.00000000000E+00  0.00000000000E+00  0.31163215166E+03  0.31163215166E+03  0.00000000000E+00 0. -1.
         21   -1    0    0  501  503 -0.00000000000E+00 -0.00000000000E+00 -0.11939042539E+03  0.11939042539E+03  0.00000000000E+00 0.  1.
          6    1    1    2  501    0  0.37756067249E+02  0.27160459529E+02  0.16223750051E+02  0.17987612749E+03  0.17300000000E+03 0. -1.
         -6    1    1    2    0  502 -0.37756067249E+02 -0.27160459529E+02  0.17601797622E+03  0.25114644956E+03  0.17300000000E+03 0.  1.
</event>
<event>
 4    1  0.5943823E+000  0.1000000E+03  0.7546771E-02  0.1280296E+00
         21   -1    0    0  501  502  0.00000000000E+00  0.00000000000E+00  0.98902159374E+03  0.98902159374E+03  0.00000000000E+00 0.  1.
         21   -1    0    0  502  503 -0.00000000000E+00 -0.00000000000E+00 -0.25882218744E+03  0.25882218744E+03  0.00000000000E+00 0. -1.
          6    1    1    2  501    0  0.25359145562E+03  0.10071645978E+03  0.84524776893E+03  0.90488961897E+03  0.17300000000E+03 0.  1.
         -6    1    1    2    0  503 -0.25359145562E+03 -0.10071645978E+03 -0.11504836263E+03  0.34295416221E+03  0.17300000000E+03 0. -1.
</event>
<event>
 4    1  0.5943823E+000  0.1000000E+03  0.7546771E-02  0.1280296E+00
         21   -1    0    0  501  502  0.00000000000E+00  0.00000000000E+00  0.13190048358E+04  0.13190048358E+04  0.00000000000E+00 0. -1.
         21   -1    0    0  502  503 -0.00000000000E+00 -0.00000000000E+00 -0.29918223951E+02  0.29918223951E+02  0.00000000000E+00 0. -1.
          6    1    1    2  501    0  0.79284610085E+01 -0.73879640890E+02  0.85960272438E+03  0.87998119616E+03  0.17300000000E+03 0. -1.
         -6    1    1    2    0  503 -0.79284610085E+01  0.73879640890E+02  0.42948388744E+03  0.46894186356E+03  0.17300000000E+03 0. -1.
</event>
<event>
 4    1  0.5943823E+000  0.1000000E+03  0.7546771E-02  0.1280296E+00
         21   -1    0    0  501  502  0.00000000000E+00  0.00000000000E+00  0.13567669916E+04  0.13567669916E+04  0.00000000000E+00 0. -1.
         21   -1    0    0  502  503 -0.00000000000E+00 -0.00000000000E+00 -0.35993358999E+02  0.35993358999E+02  0.00000000000E+00 0. -1.
          6    1    1    2  501    0 -0.25058547680E+02 -0.77998815008E+02  0.10083658651E+04  0.10263734525E+04  0.17300000000E+03 0. -1.
         -6    1    1    2    0  503  0.25058547680E+02  0.77998815008E+02  0.31240776750E+03  0.36638689817E+03  0.17300000000E+03 0. -1.
</event>
<event>
 4    1  0.5943823E+000  0.1000000E+03  0.7546771E-02  0.1280296E+00
         21   -1    0    0  501  502  0.00000000000E+00  0.00000000000E+00  0.93410001706E+03  0.93410001706E+03  0.00000000000E+00 0.  1.
         21   -1    0    0  502  503 -0.00000000000E+00 -0.00000000000E+00 -0.60779282965E+03  0.60779282965E+03  0.00000000000E+00 0. -1.
          6    1    1    2  501    0 -0.50820409448E+00 -0.64073730287E+01  0.91347544676E+03  0.92973528734E+03  0.17300000000E+03 0.  1.
         -6    1    1    2    0  503  0.50820409448E+00  0.64073730287E+01 -0.58716825935E+03  0.61215755937E+03  0.17300000000E+03 0.  1.
</event>
<event>
 4    1  0.5943823E+000  0.1000000E+03  0.7546771E-02  0.1280296E+00
         21   -1    0    0  501  502  0.00000000000E+00  0.00000000000E+00  0.80350181397E+03  0.80350181397E+03  0.00000000000E+00 0.  1.
         21   -1    0    0  502  503 -0.00000000000E+00 -0.00000000000E+00 -0.93219594549E+02  0.93219594549E+02  0.00000000000E+00 0.  1.
          6    1    1    2  501    0 -0.10392256238E+02  0.16782592791E+03  0.56684711653E+03  0.61605048055E+03  0.17300000000E+03 0. -1.
         -6    1    1    2    0  503  0.10392256238E+02 -0.16782592791E+03  0.14343510290E+03  0.28067092797E+03  0.17300000000E+03 0. -1.
</event>
<event>
 4    1  0.5943823E+000  0.1000000E+03  0.7546771E-02  0.1280296E+00
         21   -1    0    0  501  502  0.00000000000E+00  0.00000000000E+00  0.39091579586E+03  0.39091579586E+03  0.00000000000E+00 0.  1.
         21   -1    0    0  502  503 -0.00000000000E+00 -0.00000000000E+00 -0.15457935813E+03  0.15457935813E+03  0.00000000000E+00 0.  1.
          6    1    1    2  501    0  0.10285832896E+03 -0.23288356997E+01  0.27474041846E+03  0.34058267256E+03  0.17300000000E+03 0. -1.
         -6    1    1    2    0  503 -0.10285832896E+03  0.23288356997E+01 -0.38403980729E+02  0.20491248143E+03  0.17300000000E+03 0. -1.
</event>
<event>
 4    1  0.5943823E+000  0.1000000E+03  0.7546771E-02  0.1280296E+00
         21   -1    0    0  501  502  0.00000000000E+00  0.00000000000E+00  0.23478426440E+03  0.23478426440E+03  0.00000000000E+00 0.  1.
         21   -1    0    0  502  503 -0.00000000000E+00 -0.00000000000E+00 -0.35862484778E+03  0.35862484778E+03  0.00000000000E+00 0.  1.
          6    1    1    2  501    0  0.36345921048E+02 -0.11300633931E+03  0.14303973183E+03  0.25393074564E+03  0.17300000000E+03 0. -1.
         -6    1    1    2    0  503 -0.36345921048E+02  0.11300633931E+03 -0.26688031520E+03  0.33947836653E+03  0.17300000000E+03 0. -1.
</event>
<event>
 4    1  0.5943823E+000  0.1000000E+03  0.7546771E-02  0.1280296E+00
         21   -1    0    0  501  502  0.00000000000E+00  0.00000000000E+00  0.74711961063E+03  0.74711961063E+03  0.00000000000E+00 0.  1.
         21   -1    0    0  502  503 -0.00000000000E+00 -0.00000000000E+00 -0.71482627381E+02  0.71482627381E+02  0.00000000000E+00 0. -1.
          6    1    1    2  501    0 -0.52072733105E+02 -0.43413549662E+02  0.58118310294E+03  0.61016317897E+03  0.17300000000E+03 0.  1.
         -6    1    1    2    0  503  0.52072733105E+02  0.43413549662E+02  0.94453880303E+02  0.20843905904E+03  0.17300000000E+03 0. -1.
</event>
<event>
 4    1  0.5943823E+000  0.1000000E+03  0.7546771E-02  0.1280296E+00
         21   -1    0    0  503  502  0.00000000000E+00  0.00000000000E+00  0.87748850453E+03  0.87748850453E+03  0.00000000000E+00 0.  1.
         21   -1    0    0  501  503 -0.00000000000E+00 -0.00000000000E+00 -0.89436350058E+02  0.89436350058E+02  0.00000000000E+00 0.  1.
          6    1    1    2  501    0  0.89073498490E+02 -0.95465737515E+02  0.87718319487E+02  0.23381894437E+03  0.17300000000E+03 0.  1.
         -6    1    1    2    0  502 -0.89073498490E+02  0.95465737515E+02  0.70033383498E+03  0.73310591022E+03  0.17300000000E+03 0.  1.
</event>
<event>
 4    1  0.5943823E+000  0.1000000E+03  0.7546771E-02  0.1280296E+00
         21   -1    0    0  503  502  0.00000000000E+00  0.00000000000E+00  0.48469849390E+03  0.48469849390E+03  0.00000000000E+00 0.  1.
         21   -1    0    0  501  503 -0.00000000000E+00 -0.00000000000E+00 -0.87795722142E+02  0.87795722142E+02  0.00000000000E+00 0.  1.
          6    1    1    2  501    0  0.88818989643E+02  0.40634325230E+02  0.12137330790E+03  0.23280988205E+03  0.17300000000E+03 0.  1.
         -6    1    1    2    0  502 -0.88818989643E+02 -0.40634325230E+02  0.27552946386E+03  0.33968433400E+03  0.17300000000E+03 0.  1.
</event>
<event>
 4    1  0.5943823E+000  0.1000000E+03  0.7546771E-02  0.1280296E+00
         21   -1    0    0  503  502  0.00000000000E+00  0.00000000000E+00  0.42861107101E+02  0.42861107101E+02  0.00000000000E+00 0.  1.
         21   -1    0    0  501  503 -0.00000000000E+00 -0.00000000000E+00 -0.13675507100E+04  0.13675507100E+04  0.00000000000E+00 0.  1.
          6    1    1    2  501    0 -0.85171381367E+01  0.64357228578E+02 -0.11180053535E+04  0.11331722574E+04  0.17300000000E+03 0.  1.
         -6    1    1    2    0  502  0.85171381367E+01 -0.64357228578E+02 -0.20668424943E+03  0.27723955972E+03  0.17300000000E+03 0.  1.
</event>
<event>
 4    1  0.5943823E+000  0.1000000E+03  0.7546771E-02  0.1280296E+00
         21   -1    0    0  503  502  0.00000000000E+00  0.00000000000E+00  0.92825881688E+02  0.92825881688E+02  0.00000000000E+00 0.  1.
         21   -1    0    0  501  503 -0.00000000000E+00 -0.00000000000E+00 -0.19175727583E+04  0.19175727583E+04  0.00000000000E+00 0.  1.
          6    1    1    2  501    0  0.57492816542E+02  0.28114750016E+02 -0.18164101046E+04  0.18257520454E+04  0.17300000000E+03 0.  1.
         -6    1    1    2    0  502 -0.57492816542E+02 -0.28114750016E+02 -0.83367719851E+01  0.18464659458E+03  0.17300000000E+03 0.  1.
</event>
<event>
 4    1  0.5943823E+000  0.1000000E+03  0.7546771E-02  0.1280296E+00
         21   -1    0    0  503  502  0.00000000000E+00  0.00000000000E+00  0.38662819470E+03  0.38662819470E+03  0.00000000000E+00 0.  1.
         21   -1    0    0  501  503 -0.00000000000E+00 -0.00000000000E+00 -0.21343608597E+03  0.21343608597E+03  0.00000000000E+00 0. -1.
          6    1    1    2  501    0  0.12374613513E+03  0.57127959663E+02 -0.10603238696E+03  0.24443522009E+03  0.17300000000E+03 0.  1.
         -6    1    1    2    0  502 -0.12374613513E+03 -0.57127959663E+02  0.27922449569E+03  0.35562906058E+03  0.17300000000E+03 0. -1.
</event>
<event>
 4    1  0.5943823E+000  0.1000000E+03  0.7546771E-02  0.1280296E+00
         21   -1    0    0  503  502  0.00000000000E+00  0.00000000000E+00  0.55766430782E+02  0.55766430782E+02  0.00000000000E+00 0. -1.
         21   -1    0    0  501  503 -0.00000000000E+00 -0.00000000000E+00 -0.12654960482E+04  0.12654960482E+04  0.00000000000E+00 0. -1.
          6    1    1    2  501    0 -0.13255268306E+03  0.54814354129E+02 -0.95715320711E+03  0.98318161551E+03  0.17300000000E+03 0. -1.
         -6    1    1    2    0  502  0.13255268306E+03 -0.54814354129E+02 -0.25257641034E+03  0.33808086350E+03  0.17300000000E+03 0. -1.
</event>
<event>
 4    1  0.5943823E+000  0.1000000E+03  0.7546771E-02  0.1280296E+00
         21   -1    0    0  503  502  0.00000000000E+00  0.00000000000E+00  0.32390620472E+03  0.32390620472E+03  0.00000000000E+00 0. -1.
         21   -1    0    0  501  503 -0.00000000000E+00 -0.00000000000E+00 -0.43737020082E+03  0.43737020082E+03  0.00000000000E+00 0. -1.
          6    1    1    2  501    0  0.80817878727E+01 -0.13754658649E+03 -0.36472680883E+03  0.42654310899E+03  0.17300000000E+03 0. -1.
         -6    1    1    2    0  502 -0.80817878727E+01  0.13754658649E+03  0.25126281274E+03  0.33473329654E+03  0.17300000000E+03 0. -1.
</event>
<event>
 4    1  0.5943823E+000  0.1000000E+03  0.7546771E-02  0.1280296E+00
         21   -1    0    0  501  502  0.00000000000E+00  0.00000000000E+00  0.60434899061E+02  0.60434899061E+02  0.00000000000E+00 0.  1.
         21   -1    0    0  502  503 -0.00000000000E+00 -0.00000000000E+00 -0.87750475244E+03  0.87750475244E+03  0.00000000000E+00 0. -1.
          6    1    1    2  501    0  0.64595272475E+02  0.13342111348E+03 -0.34010349634E+03  0.40935697255E+03  0.17300000000E+03 0.  1.
         -6    1    1    2    0  503 -0.64595272475E+02 -0.13342111348E+03 -0.47696635703E+03  0.52858267895E+03  0.17300000000E+03 0. -1.
</event>
<event>
 4    1  0.5943823E+000  0.1000000E+03  0.7546771E-02  0.1280296E+00
         21   -1    0    0  501  502  0.00000000000E+00  0.00000000000E+00  0.81392327633E+02  0.81392327633E+02  0.00000000000E+00 0.  1.
         21   -1    0    0  502  503 -0.00000000000E+00 -0.00000000000E+00 -0.76218438162E+03  0.76218438162E+03  0.00000000000E+00 0. -1.
          6    1    1    2  501    0 -0.46620352137E+02 -0.17060060127E+02 -0.63195736517E+03  0.65708721969E+03  0.17300000000E+03 0.  1.
         -6    1    1    2    0  503  0.46620352137E+02  0.17060060127E+02 -0.48834688813E+02  0.18648948956E+03  0.17300000000E+03 0. -1.
</event>
<event>
 4    1  0.5943823E+000  0.1000000E+03  0.7546771E-02  0.1280296E+00
         21   -1    0    0  503  502  0.00000000000E+00  0.00000000000E+00  0.18627567655E+03  0.18627567655E+03  0.00000000000E+00 0. -1.
         21   -1    0    0  501  503 -0.00000000000E+00 -0.00000000000E+00 -0.27880081785E+03  0.27880081785E+03  0.00000000000E+00 0.  1.
          6    1    1    2  501    0  0.10491042810E+02  0.14147974263E+03 -0.20400138654E+01  0.22374034328E+03  0.17300000000E+03 0. -1.
         -6    1    1    2    0  502 -0.10491042810E+02 -0.14147974263E+03 -0.90485127432E+02  0.24133615112E+03  0.17300000000E+03 0. -1.
</event>
<event>
 4    1  0.5943823E+000  0.1000000E+03  0.7546771E-02  0.1280296E+00
         21   -1    0    0  503  502  0.00000000000E+00  0.00000000000E+00  0.29160242587E+03  0.29160242587E+03  0.00000000000E+00 0. -1.
         21   -1    0    0  501  503 -0.00000000000E+00 -0.00000000000E+00 -0.18482216391E+03  0.18482216391E+03  0.00000000000E+00 0.  1.
          6    1    1    2  501    0 -0.36107242140E+02  0.14914757078E+03  0.32439988603E+02  0.23351677384E+03  0.17300000000E+03 0. -1.
         -6    1    1    2    0  502  0.36107242140E+02 -0.14914757078E+03  0.74340273352E+02  0.24290781594E+03  0.17300000000E+03 0. -1.
</event>
<event>
 4    1  0.5943823E+000  0.1000000E+03  0.7546771E-02  0.1280296E+00
         21   -1    0    0  503  502  0.00000000000E+00  0.00000000000E+00  0.33253021107E+03  0.33253021107E+03  0.00000000000E+00 0. -1.
         21   -1    0    0  501  503 -0.00000000000E+00 -0.00000000000E+00 -0.12678861998E+03  0.12678861998E+03  0.00000000000E+00 0. -1.
          6    1    1    2  501    0  0.56858612872E+02  0.78634328957E+01 -0.28674261965E+01  0.18229634546E+03  0.17300000000E+03 0. -1.
         -6    1    1    2    0  502 -0.56858612872E+02 -0.78634328957E+01  0.20860901728E+03  0.27702248560E+03  0.17300000000E+03 0. -1.
</event>
<event>
 4    1  0.5943823E+000  0.1000000E+03  0.7546771E-02  0.1280296E+00
         21   -1    0    0  503  502  0.00000000000E+00  0.00000000000E+00  0.10517176133E+03  0.10517176133E+03  0.00000000000E+00 0.  1.
         21   -1    0    0  501  503 -0.00000000000E+00 -0.00000000000E+00 -0.88825855019E+03  0.88825855019E+03  0.00000000000E+00 0.  1.
          6    1    1    2  501    0  0.10737085661E+03  0.22795221977E+03 -0.39149491656E+03  0.49667694233E+03  0.17300000000E+03 0.  1.
         -6    1    1    2    0  502 -0.10737085661E+03 -0.22795221977E+03 -0.39159187230E+03  0.49675336919E+03  0.17300000000E+03 0.  1.
</event>
<event>
 4    1  0.5943823E+000  0.1000000E+03  0.7546771E-02  0.1280296E+00
         21   -1    0    0  503  502  0.00000000000E+00  0.00000000000E+00  0.29985075505E+03  0.29985075505E+03  0.00000000000E+00 0.  1.
         21   -1    0    0  501  503 -0.00000000000E+00 -0.00000000000E+00 -0.97807802414E+03  0.97807802414E+03  0.00000000000E+00 0.  1.
          6    1    1    2  501    0 -0.19819492707E+03  0.42360055027E+03 -0.58837197425E+03  0.77125173283E+03  0.17300000000E+03 0.  1.
         -6    1    1    2    0  502  0.19819492707E+03 -0.42360055027E+03 -0.89855294839E+02  0.50667704637E+03  0.17300000000E+03 0.  1.
</event>
<event>
 4    1  0.5943823E+000  0.1000000E+03  0.7546771E-02  0.1280296E+00
         21   -1    0    0  503  502  0.00000000000E+00  0.00000000000E+00  0.50704566054E+03  0.50704566054E+03  0.00000000000E+00 0. -1.
         21   -1    0    0  501  503 -0.00000000000E+00 -0.00000000000E+00 -0.82592336967E+02  0.82592336967E+02  0.00000000000E+00 0. -1.
          6    1    1    2  501    0 -0.24172392934E+02 -0.56331511742E+02  0.81836479508E+02  0.20095709287E+03  0.17300000000E+03 0. -1.
         -6    1    1    2    0  502  0.24172392934E+02  0.56331511742E+02  0.34261684406E+03  0.38868090464E+03  0.17300000000E+03 0. -1.
</event>
<event>
 4    1  0.5943823E+000  0.1000000E+03  0.7546771E-02  0.1280296E+00
         21   -1    0    0  503  502  0.00000000000E+00  0.00000000000E+00  0.14352689569E+03  0.14352689569E+03  0.00000000000E+00 0. -1.
         21   -1    0    0  501  503 -0.00000000000E+00 -0.00000000000E+00 -0.29249829238E+03  0.29249829238E+03  0.00000000000E+00 0. -1.
          6    1    1    2  501    0 -0.79786755016E+02 -0.25323085334E+02 -0.15006309045E+03  0.24383419785E+03  0.17300000000E+03 0. -1.
         -6    1    1    2    0  502  0.79786755016E+02  0.25323085334E+02  0.10916937628E+01  0.19219099022E+03  0.17300000000E+03 0. -1.
</event>
<event>
 4    1  0.5943823E+000  0.1000000E+03  0.7546771E-02  0.1280296E+00
         21   -1    0    0  503  502  0.00000000000E+00  0.00000000000E+00  0.86003190033E+02  0.86003190033E+02  0.00000000000E+00 0. -1.
         21   -1    0    0  501  503 -0.00000000000E+00 -0.00000000000E+00 -0.59892130525E+03  0.59892130525E+03  0.00000000000E+00 0. -1.
          6    1    1    2  501    0  0.60743740458E+02 -0.26460677529E+02 -0.45429749343E+03  0.49061714401E+03  0.17300000000E+03 0. -1.
         -6    1    1    2    0  502 -0.60743740458E+02  0.26460677529E+02 -0.58620621787E+02  0.19430735127E+03  0.17300000000E+03 0. -1.
</event>
<event>
 4    1  0.5943823E+000  0.1000000E+03  0.7546771E-02  0.1280296E+00
         21   -1    0    0  503  502  0.00000000000E+00  0.00000000000E+00  0.82488476417E+03  0.82488476417E+03  0.00000000000E+00 0. -1.
         21   -1    0    0  501  503 -0.00000000000E+00 -0.00000000000E+00 -0.31024657745E+03  0.31024657745E+03  0.00000000000E+00 0. -1.
          6    1    1    2  501    0 -0.31763202405E+03  0.34080927941E+03  0.36344451645E+03  0.61568009889E+03  0.17300000000E+03 0. -1.
         -6    1    1    2    0  502  0.31763202405E+03 -0.34080927941E+03  0.15119367027E+03  0.51945124272E+03  0.17300000000E+03 0. -1.
</event>
<event>
 4    1  0.5943823E+000  0.1000000E+03  0.7546771E-02  0.1280296E+00
         21   -1    0    0  503  502  0.00000000000E+00  0.00000000000E+00  0.82640717795E+02  0.82640717795E+02  0.00000000000E+00 0. -1.
         21   -1    0    0  501  503 -0.00000000000E+00 -0.00000000000E+00 -0.37966794289E+03  0.37966794289E+03  0.00000000000E+00 0. -1.
          6    1    1    2  501    0  0.15311434547E+02  0.33075232228E+02 -0.16272650778E+03  0.24028592832E+03  0.17300000000E+03 0. -1.
         -6    1    1    2    0  502 -0.15311434547E+02 -0.33075232228E+02 -0.13430071731E+03  0.22202273236E+03  0.17300000000E+03 0. -1.
</event>
<event>
 4    1  0.5943823E+000  0.1000000E+03  0.7546771E-02  0.1280296E+00
         21   -1    0    0  503  502  0.00000000000E+00  0.00000000000E+00  0.71654904948E+03  0.71654904948E+03  0.00000000000E+00 0. -1.
         21   -1    0    0  501  503 -0.00000000000E+00 -0.00000000000E+00 -0.14842268760E+03  0.14842268760E+03  0.00000000000E+00 0. -1.
          6    1    1    2  501    0  0.73133074715E+02  0.14004098230E+02 -0.69003146742E+02  0.20058662878E+03  0.17300000000E+03 0. -1.
         -6    1    1    2    0  502 -0.73133074715E+02 -0.14004098230E+02  0.63712950862E+03  0.66438510831E+03  0.17300000000E+03 0. -1.
</event>
<event>
 4    1  0.5943823E+000  0.1000000E+03  0.7546771E-02  0.1280296E+00
         21   -1    0    0  503  502  0.00000000000E+00  0.00000000000E+00  0.21498816432E+03  0.21498816432E+03  0.00000000000E+00 0. -1.
         21   -1    0    0  501  503 -0.00000000000E+00 -0.00000000000E+00 -0.22721621228E+03  0.22721621228E+03  0.00000000000E+00 0. -1.
          6    1    1    2  501    0 -0.18423099677E+02  0.65922734066E+02 -0.12546842000E+03  0.22440263342E+03  0.17300000000E+03 0. -1.
         -6    1    1    2    0  502  0.18423099677E+02 -0.65922734066E+02  0.11324037204E+03  0.21780174317E+03  0.17300000000E+03 0. -1.
</event>
<event>
 4    1  0.5943823E+000  0.1000000E+03  0.7546771E-02  0.1280296E+00
         21   -1    0    0  503  502  0.00000000000E+00  0.00000000000E+00  0.11850485782E+03  0.11850485782E+03  0.00000000000E+00 0.  1.
         21   -1    0    0  501  503 -0.00000000000E+00 -0.00000000000E+00 -0.35272743104E+03  0.35272743104E+03  0.00000000000E+00 0. -1.
          6    1    1    2  501    0 -0.50589159546E+02 -0.90869583802E+02 -0.79690422057E+02  0.21701637655E+03  0.17300000000E+03 0. -1.
         -6    1    1    2    0  502  0.50589159546E+02  0.90869583802E+02 -0.15453215116E+03  0.25421591230E+03  0.17300000000E+03 0.  1.
</event>
<event>
 4    1  0.5943823E+000  0.1000000E+03  0.7546771E-02  0.1280296E+00
         21   -1    0    0  503  502  0.00000000000E+00  0.00000000000E+00  0.92508634055E+03  0.92508634055E+03  0.00000000000E+00 0.  1.
         21   -1    0    0  501  503 -0.00000000000E+00 -0.00000000000E+00 -0.85064015750E+02  0.85064015750E+02  0.00000000000E+00 0.  1.
          6    1    1    2  501    0  0.32031351021E+02 -0.11762782019E+03  0.88503641712E+02  0.22939966462E+03  0.17300000000E+03 0.  1.
         -6    1    1    2    0  502 -0.32031351021E+02  0.11762782019E+03  0.75151868309E+03  0.78075069168E+03  0.17300000000E+03 0.  1.
</event>
<event>
 4    1  0.5943823E+000  0.1000000E+03  0.7546771E-02  0.1280296E+00
         21   -1    0    0  503  502  0.00000000000E+00  0.00000000000E+00  0.85194359301E+03  0.85194359301E+03  0.00000000000E+00 0. -1.
         21   -1    0    0  501  503 -0.00000000000E+00 -0.00000000000E+00 -0.41929904813E+02  0.41929904813E+02  0.00000000000E+00 0. -1.
          6    1    1    2  501    0 -0.26859990971E+02  0.46208260767E+02  0.27686961850E+03  0.33082087015E+03  0.17300000000E+03 0. -1.
         -6    1    1    2    0  502  0.26859990971E+02 -0.46208260767E+02  0.53314406970E+03  0.56305262767E+03  0.17300000000E+03 0. -1.
</event>
<event>
 4    1  0.5943823E+000  0.1000000E+03  0.7546771E-02  0.1280296E+00
         21   -1    0    0  501  502  0.00000000000E+00  0.00000000000E+00  0.41248204140E+03  0.41248204140E+03  0.00000000000E+00 0. -1.
         21   -1    0    0  502  503 -0.00000000000E+00 -0.00000000000E+00 -0.11976453430E+03  0.11976453430E+03  0.00000000000E+00 0. -1.
          6    1    1    2  501    0 -0.79494479233E+02  0.11337648723E+03  0.16703213148E+03  0.27749294231E+03  0.17300000000E+03 0. -1.
         -6    1    1    2    0  503  0.79494479233E+02 -0.11337648723E+03  0.12568537562E+03  0.25475363340E+03  0.17300000000E+03 0. -1.
</event>
<event>
 4    1  0.5943823E+000  0.1000000E+03  0.7546771E-02  0.1280296E+00
         21   -1    0    0  501  502  0.00000000000E+00  0.00000000000E+00  0.21639744038E+03  0.21639744038E+03  0.00000000000E+00 0. -1.
         21   -1    0    0  502  503 -0.00000000000E+00 -0.00000000000E+00 -0.39399891611E+03  0.39399891611E+03  0.00000000000E+00 0. -1.
          6    1    1    2  501    0 -0.36499449597E+01 -0.10161705634E+03  0.13290455190E+03  0.24069060670E+03  0.17300000000E+03 0. -1.
         -6    1    1    2    0  503  0.36499449597E+01  0.10161705634E+03 -0.31050602762E+03  0.36970574979E+03  0.17300000000E+03 0. -1.
</event>
<event>
 4    1  0.5943823E+000  0.1000000E+03  0.7546771E-02  0.1280296E+00
         21   -1    0    0  501  502  0.00000000000E+00  0.00000000000E+00  0.39334982605E+03  0.39334982605E+03  0.00000000000E+00 0.  1.
         21   -1    0    0  502  503 -0.00000000000E+00 -0.00000000000E+00 -0.22896917262E+03  0.22896917262E+03  0.00000000000E+00 0. -1.
          6    1    1    2  501    0  0.14182851387E+03  0.46827997978E+02  0.28384606817E+03  0.36442527239E+03  0.17300000000E+03 0. -1.
         -6    1    1    2    0  503 -0.14182851387E+03 -0.46827997978E+02 -0.11946541473E+03  0.25789372628E+03  0.17300000000E+03 0.  1.
</event>
<event>
 4    1  0.5943823E+000  0.1000000E+03  0.7546771E-02  0.1280296E+00
         21   -1    0    0  503  502  0.00000000000E+00  0.00000000000E+00  0.51928792708E+03  0.51928792708E+03  0.00000000000E+00 0. -1.
         21   -1    0    0  501  503 -0.00000000000E+00 -0.00000000000E+00 -0.87655962041E+02  0.87655962041E+02  0.00000000000E+00 0.  1.
          6    1    1    2  501    0  0.56148289691E+02  0.10563245432E+03  0.16494954784E+03  0.26729795954E+03  0.17300000000E+03 0.  1.
         -6    1    1    2    0  502 -0.56148289691E+02 -0.10563245432E+03  0.26668241720E+03  0.33964592958E+03  0.17300000000E+03 0.  1.
</event>
<event>
 4    1  0.5943823E+000  0.1000000E+03  0.7546771E-02  0.1280296E+00
         21   -1    0    0  503  502  0.00000000000E+00  0.00000000000E+00  0.13507244507E+03  0.13507244507E+03  0.00000000000E+00 0. -1.
         21   -1    0    0  501  503 -0.00000000000E+00 -0.00000000000E+00 -0.34672708291E+03  0.34672708291E+03  0.00000000000E+00 0. -1.
          6    1    1    2  501    0 -0.17071464585E+02  0.63299421140E+02 -0.23080951821E+03  0.29580447143E+03  0.17300000000E+03 0. -1.
         -6    1    1    2    0  502  0.17071464585E+02 -0.63299421140E+02  0.19154880366E+02  0.18599505655E+03  0.17300000000E+03 0. -1.
</event>
<event>
 4    1  0.5943823E+000  0.1000000E+03  0.7546771E-02  0.1280296E+00
         21   -1    0    0  503  502  0.00000000000E+00  0.00000000000E+00  0.32969086790E+03  0.32969086790E+03  0.00000000000E+00 0.  1.
         21   -1    0    0  501  503 -0.00000000000E+00 -0.00000000000E+00 -0.37337521754E+03  0.37337521754E+03  0.00000000000E+00 0.  1.
          6    1    1    2  501    0  0.26511994246E+03  0.64994841353E+02 -0.15869534933E+03  0.36003628594E+03  0.17300000000E+03 0.  1.
         -6    1    1    2    0  502 -0.26511994246E+03 -0.64994841353E+02  0.11501099970E+03  0.34302979950E+03  0.17300000000E+03 0.  1.
</event>
<event>
 4    1  0.5943823E+000  0.1000000E+03  0.7546771E-02  0.1280296E+00
         21   -1    0    0  501  502  0.00000000000E+00  0.00000000000E+00  0.59798121655E+02  0.59798121655E+02  0.00000000000E+00 0.  1.
         21   -1    0    0  502  503 -0.00000000000E+00 -0.00000000000E+00 -0.59908224641E+03  0.59908224641E+03  0.00000000000E+00 0. -1.
          6    1    1    2  501    0 -0.68585375956E+01 -0.12795998686E+02 -0.13841456104E+03  0.22203235761E+03  0.17300000000E+03 0.  1.
         -6    1    1    2    0  503  0.68585375956E+01  0.12795998686E+02 -0.40086956372E+03  0.43684801046E+03  0.17300000000E+03 0. -1.
</event>
<event>
 4    1  0.5943823E+000  0.1000000E+03  0.7546771E-02  0.1280296E+00
         21   -1    0    0  503  502  0.00000000000E+00  0.00000000000E+00  0.56171862882E+02  0.56171862882E+02  0.00000000000E+00 0. -1.
         21   -1    0    0  501  503 -0.00000000000E+00 -0.00000000000E+00 -0.75687245476E+03  0.75687245476E+03  0.00000000000E+00 0. -1.
          6    1    1    2  501    0 -0.40942532515E+02 -0.20760380975E+02 -0.55217120368E+03  0.58045613319E+03  0.17300000000E+03 0. -1.
         -6    1    1    2    0  502  0.40942532515E+02  0.20760380975E+02 -0.14852938820E+03  0.23258818445E+03  0.17300000000E+03 0. -1.
</event>
<event>
 4    1  0.5943823E+000  0.1000000E+03  0.7546771E-02  0.1280296E+00
         21   -1    0    0  503  502  0.00000000000E+00  0.00000000000E+00  0.36819817764E+03  0.36819817764E+03  0.00000000000E+00 0. -1.
         21   -1    0    0  501  503 -0.00000000000E+00 -0.00000000000E+00 -0.18023911578E+03  0.18023911578E+03  0.00000000000E+00 0. -1.
          6    1    1    2  501    0  0.46615453365E+02  0.15644587323E+03 -0.11324057895E+02  0.23812926328E+03  0.17300000000E+03 0. -1.
         -6    1    1    2    0  502 -0.46615453365E+02 -0.15644587323E+03  0.19928311976E+03  0.31030803013E+03  0.17300000000E+03 0. -1.
</event>
<event>
 4    1  0.5943823E+000  0.1000000E+03  0.7546771E-02  0.1280296E+00
         21   -1    0    0  503  502  0.00000000000E+00  0.00000000000E+00  0.23010356679E+03  0.23010356679E+03  0.00000000000E+00 0. -1.
         21   -1    0    0  501  503 -0.00000000000E+00 -0.00000000000E+00 -0.15954018859E+03  0.15954018859E+03  0.00000000000E+00 0. -1.
          6    1    1    2  501    0 -0.60995078116E+02 -0.13310715252E+02 -0.19325907640E+02  0.18493259691E+03  0.17300000000E+03 0. -1.
         -6    1    1    2    0  502  0.60995078116E+02  0.13310715252E+02  0.89889285839E+02  0.20471115847E+03  0.17300000000E+03 0. -1.
</event>
<event>
 4    1  0.5943823E+000  0.1000000E+03  0.7546771E-02  0.1280296E+00
         21   -1    0    0  503  502  0.00000000000E+00  0.00000000000E+00  0.57539918031E+03  0.57539918031E+03  0.00000000000E+00 0. -1.
         21   -1    0    0  501  503 -0.00000000000E+00 -0.00000000000E+00 -0.17589891769E+03  0.17589891769E+03  0.00000000000E+00 0. -1.
          6    1    1    2  501    0 -0.15650140631E+03  0.21422635055E+03  0.16437672076E+03  0.35683935569E+03  0.17300000000E+03 0. -1.
         -6    1    1    2    0  502  0.15650140631E+03 -0.21422635055E+03  0.23512354186E+03  0.39445874230E+03  0.17300000000E+03 0. -1.
</event>
<event>
 4    1  0.5943823E+000  0.1000000E+03  0.7546771E-02  0.1280296E+00
         21   -1    0    0  503  502  0.00000000000E+00  0.00000000000E+00  0.39510245453E+03  0.39510245453E+03  0.00000000000E+00 0. -1.
         21   -1    0    0  501  503 -0.00000000000E+00 -0.00000000000E+00 -0.14843593820E+03  0.14843593820E+03  0.00000000000E+00 0.  1.
          6    1    1    2  501    0  0.24408243048E+02 -0.15110594708E+03  0.41714751352E+02  0.23472939750E+03  0.17300000000E+03 0.  1.
         -6    1    1    2    0  502 -0.24408243048E+02  0.15110594708E+03  0.20495176497E+03  0.30880899523E+03  0.17300000000E+03 0.  1.
</event>
<event>
 4    1  0.5943823E+000  0.1000000E+03  0.7546771E-02  0.1280296E+00
         21   -1    0    0  503  502  0.00000000000E+00  0.00000000000E+00  0.40122103826E+03  0.40122103826E+03  0.00000000000E+00 0. -1.
         21   -1    0    0  501  503 -0.00000000000E+00 -0.00000000000E+00 -0.13205078447E+03  0.13205078447E+03  0.00000000000E+00 0.  1.
          6    1    1    2  501    0 -0.38262604573E+02 -0.13206311143E+03  0.59980051674E+02  0.22897881760E+03  0.17300000000E+03 0.  1.
         -6    1    1    2    0  502  0.38262604573E+02  0.13206311143E+03  0.20919020212E+03  0.30429300513E+03  0.17300000000E+03 0.  1.
</event>
<event>
 4    1  0.5943823E+000  0.1000000E+03  0.7546771E-02  0.1280296E+00
         21   -1    0    0  503  502  0.00000000000E+00  0.00000000000E+00  0.38100440274E+02  0.38100440274E+02  0.00000000000E+00 0. -1.
         21   -1    0    0  501  503 -0.00000000000E+00 -0.00000000000E+00 -0.33243761215E+04  0.33243761215E+04  0.00000000000E+00 0.  1.
          6    1    1    2  501    0  0.25685205792E+02  0.12930303653E+03 -0.29738638679E+04  0.29818072221E+04  0.17300000000E+03 0.  1.
         -6    1    1    2    0  502 -0.25685205792E+02 -0.12930303653E+03 -0.31241181332E+03  0.38066933966E+03  0.17300000000E+03 0.  1.
</event>
<event>
 4    1  0.5943823E+000  0.1000000E+03  0.7546771E-02  0.1280296E+00
         21   -1    0    0  503  502  0.00000000000E+00  0.00000000000E+00  0.59955607137E+03  0.59955607137E+03  0.00000000000E+00 0. -1.
         21   -1    0    0  501  503 -0.00000000000E+00 -0.00000000000E+00 -0.66211066998E+02  0.66211066998E+02  0.00000000000E+00 0.  1.
          6    1    1    2  501    0 -0.12328350105E+02  0.26371211990E+02  0.10886977404E+03  0.20646805258E+03  0.17300000000E+03 0.  1.
         -6    1    1    2    0  502  0.12328350105E+02 -0.26371211990E+02  0.42447523033E+03  0.45929908578E+03  0.17300000000E+03 0.  1.
</event>
<event>
 4    1  0.5943823E+000  0.1000000E+03  0.7546771E-02  0.1280296E+00
         21   -1    0    0  501  502  0.00000000000E+00  0.00000000000E+00  0.24904668997E+02  0.24904668997E+02  0.00000000000E+00 0.  1.
         21   -1    0    0  502  503 -0.00000000000E+00 -0.00000000000E+00 -0.17181293373E+04  0.17181293373E+04  0.00000000000E+00 0. -1.
          6    1    1    2  501    0  0.46590947211E+02  0.96029225055E+02 -0.68518114622E+03  0.71469890972E+03  0.17300000000E+03 0. -1.
         -6    1    1    2    0  503 -0.46590947211E+02 -0.96029225055E+02 -0.10080435221E+04  0.10283350966E+04  0.17300000000E+03 0.  1.
</event>
<event>
 4    1  0.5943823E+000  0.1000000E+03  0.7546771E-02  0.1280296E+00
         21   -1    0    0  503  502  0.00000000000E+00  0.00000000000E+00  0.43913937994E+03  0.43913937994E+03  0.00000000000E+00 0. -1.
         21   -1    0    0  501  503 -0.00000000000E+00 -0.00000000000E+00 -0.14145764770E+03  0.14145764770E+03  0.00000000000E+00 0.  1.
          6    1    1    2  501    0 -0.19289909853E+02  0.78200325522E+02 -0.37893509505E+02  0.19455670021E+03  0.17300000000E+03 0.  1.
         -6    1    1    2    0  502  0.19289909853E+02 -0.78200325522E+02  0.33557524174E+03  0.38604032743E+03  0.17300000000E+03 0. -1.
</event>
<event>
 4    1  0.5943823E+000  0.1000000E+03  0.7546771E-02  0.1280296E+00
         21   -1    0    0  503  502  0.00000000000E+00  0.00000000000E+00  0.38295076885E+03  0.38295076885E+03  0.00000000000E+00 0. -1.
         21   -1    0    0  501  503 -0.00000000000E+00 -0.00000000000E+00 -0.85626756515E+02  0.85626756515E+02  0.00000000000E+00 0.  1.
          6    1    1    2  501    0  0.16732200690E+02 -0.31081776424E+01  0.83043245669E+02  0.19265203856E+03  0.17300000000E+03 0.  1.
         -6    1    1    2    0  502 -0.16732200690E+02  0.31081776424E+01  0.21428076666E+03  0.27592548681E+03  0.17300000000E+03 0. -1.
</event>
<event>
 4    1  0.5943823E+000  0.1000000E+03  0.7546771E-02  0.1280296E+00
         21   -1    0    0  503  502  0.00000000000E+00  0.00000000000E+00  0.19130907653E+03  0.19130907653E+03  0.00000000000E+00 0. -1.
         21   -1    0    0  501  503 -0.00000000000E+00 -0.00000000000E+00 -0.35675711232E+03  0.35675711232E+03  0.00000000000E+00 0.  1.
          6    1    1    2  501    0 -0.92990500108E+02 -0.67949746718E+02 -0.24876585833E+03  0.32415714316E+03  0.17300000000E+03 0.  1.
         -6    1    1    2    0  502  0.92990500108E+02  0.67949746718E+02  0.83317822545E+02  0.22390904569E+03  0.17300000000E+03 0. -1.
</event>
<event>
 4    1  0.5943823E+000  0.1000000E+03  0.7546771E-02  0.1280296E+00
         21   -1    0    0  503  502  0.00000000000E+00  0.00000000000E+00  0.34045838910E+03  0.34045838910E+03  0.00000000000E+00 0. -1.
         21   -1    0    0  501  503 -0.00000000000E+00 -0.00000000000E+00 -0.31105334991E+03  0.31105334991E+03  0.00000000000E+00 0.  1.
          6    1    1    2  501    0 -0.26880734149E+03  0.38716223417E+02 -0.32413419135E+02  0.32362935982E+03  0.17300000000E+03 0. -1.
         -6    1    1    2    0  502  0.26880734149E+03 -0.38716223417E+02  0.61818458323E+02  0.32788237920E+03  0.17300000000E+03 0.  1.
</event>
<event>
 4    1  0.5943823E+000  0.1000000E+03  0.7546771E-02  0.1280296E+00
         21   -1    0    0  501  502  0.00000000000E+00  0.00000000000E+00  0.82245040291E+02  0.82245040291E+02  0.00000000000E+00 0. -1.
         21   -1    0    0  502  503 -0.00000000000E+00 -0.00000000000E+00 -0.93994058241E+03  0.93994058241E+03  0.00000000000E+00 0.  1.
          6    1    1    2  501    0 -0.46998061203E+02 -0.35189868022E+02 -0.43571832690E+02  0.18781546574E+03  0.17300000000E+03 0. -1.
         -6    1    1    2    0  503  0.46998061203E+02  0.35189868022E+02 -0.81412370943E+03  0.83437015696E+03  0.17300000000E+03 0.  1.
</event>
<event>
 4    1  0.5943823E+000  0.1000000E+03  0.7546771E-02  0.1280296E+00
         21   -1    0    0  501  502  0.00000000000E+00  0.00000000000E+00  0.31895063970E+03  0.31895063970E+03  0.00000000000E+00 0. -1.
         21   -1    0    0  502  503 -0.00000000000E+00 -0.00000000000E+00 -0.42660954200E+03  0.42660954200E+03  0.00000000000E+00 0.  1.
          6    1    1    2  501    0 -0.16675416936E+03  0.19396690947E+01  0.22900564271E+03  0.33193869872E+03  0.17300000000E+03 0. -1.
         -6    1    1    2    0  503  0.16675416936E+03 -0.19396690947E+01 -0.33666454501E+03  0.41362148298E+03  0.17300000000E+03 0.  1.
</event>
<event>
 4    1  0.5943823E+000  0.1000000E+03  0.7546771E-02  0.1280296E+00
         21   -1    0    0  501  502  0.00000000000E+00  0.00000000000E+00  0.40114644058E+03  0.40114644058E+03  0.00000000000E+00 0.  1.
         21   -1    0    0  502  503 -0.00000000000E+00 -0.00000000000E+00 -0.23153694240E+03  0.23153694240E+03  0.00000000000E+00 0.  1.
          6    1    1    2  501    0  0.18186128932E+03 -0.88311465724E+02  0.23903952911E+03  0.35768888718E+03  0.17300000000E+03 0.  1.
         -6    1    1    2    0  503 -0.18186128932E+03  0.88311465724E+02 -0.69430030933E+02  0.27499449581E+03  0.17300000000E+03 0.  1.
</event>
<event>
 4    1  0.5943823E+000  0.1000000E+03  0.7546771E-02  0.1280296E+00
         21   -1    0    0  501  502  0.00000000000E+00  0.00000000000E+00  0.26582922676E+03  0.26582922676E+03  0.00000000000E+00 0.  1.
         21   -1    0    0  502  503 -0.00000000000E+00 -0.00000000000E+00 -0.43365144187E+03  0.43365144187E+03  0.00000000000E+00 0.  1.
          6    1    1    2  501    0  0.13348986566E+03 -0.11203034255E+03  0.15761716545E+03  0.29179189970E+03  0.17300000000E+03 0.  1.
         -6    1    1    2    0  503 -0.13348986566E+03  0.11203034255E+03 -0.32543938056E+03  0.40768876893E+03  0.17300000000E+03 0.  1.
</event>
<event>
 4    1  0.5943823E+000  0.1000000E+03  0.7546771E-02  0.1280296E+00
         21   -1    0    0  501  502  0.00000000000E+00  0.00000000000E+00  0.11429122997E+03  0.11429122997E+03  0.00000000000E+00 0. -1.
         21   -1    0    0  502  503 -0.00000000000E+00 -0.00000000000E+00 -0.46905218667E+03  0.46905218667E+03  0.00000000000E+00 0. -1.
          6    1    1    2  501    0 -0.14335223424E+03 -0.81084822808E+00 -0.10691406153E+03  0.24881747746E+03  0.17300000000E+03 0. -1.
         -6    1    1    2    0  503  0.14335223424E+03  0.81084822808E+00 -0.24784689517E+03  0.33452593917E+03  0.17300000000E+03 0. -1.
</event>
<event>
 4    1  0.5943823E+000  0.1000000E+03  0.7546771E-02  0.1280296E+00
         21   -1    0    0  503  502  0.00000000000E+00  0.00000000000E+00  0.15844886736E+04  0.15844886736E+04  0.00000000000E+00 0.  1.
         21   -1    0    0  501  503 -0.00000000000E+00 -0.00000000000E+00 -0.61368535901E+02  0.61368535901E+02  0.00000000000E+00 0. -1.
          6    1    1    2  501    0 -0.71914944124E+02  0.13677575203E+03  0.21159317760E+03  0.31397458231E+03  0.17300000000E+03 0.  1.
         -6    1    1    2    0  502  0.71914944124E+02 -0.13677575203E+03  0.13115269601E+04  0.13318826272E+04  0.17300000000E+03 0. -1.
</event>
<event>
 4    1  0.5943823E+000  0.1000000E+03  0.7546771E-02  0.1280296E+00
         21   -1    0    0  503  502  0.00000000000E+00  0.00000000000E+00  0.41063282618E+03  0.41063282618E+03  0.00000000000E+00 0.  1.
         21   -1    0    0  501  503 -0.00000000000E+00 -0.00000000000E+00 -0.21931722523E+03  0.21931722523E+03  0.00000000000E+00 0. -1.
          6    1    1    2  501    0 -0.21029016033E+03  0.99528167762E+02  0.17697127438E+03  0.33966989809E+03  0.17300000000E+03 0.  1.
         -6    1    1    2    0  502  0.21029016033E+03 -0.99528167762E+02  0.14344326575E+02  0.29028015333E+03  0.17300000000E+03 0. -1.
</event>
<event>
 4    1  0.5943823E+000  0.1000000E+03  0.7546771E-02  0.1280296E+00
         21   -1    0    0  503  502  0.00000000000E+00  0.00000000000E+00  0.11971229361E+03  0.11971229361E+03  0.00000000000E+00 0.  1.
         21   -1    0    0  501  503 -0.00000000000E+00 -0.00000000000E+00 -0.72034812481E+03  0.72034812481E+03  0.00000000000E+00 0. -1.
          6    1    1    2  501    0 -0.15937165523E+03  0.42898851097E+02 -0.54417296395E+03  0.59438442998E+03  0.17300000000E+03 0.  1.
         -6    1    1    2    0  502  0.15937165523E+03 -0.42898851097E+02 -0.56462867252E+02  0.24567598844E+03  0.17300000000E+03 0. -1.
</event>
<event>
 4    1  0.5943823E+000  0.1000000E+03  0.7546771E-02  0.1280296E+00
         21   -1    0    0  501  502  0.00000000000E+00  0.00000000000E+00  0.92733771880E+03  0.92733771880E+03  0.00000000000E+00 0. -1.
         21   -1    0    0  502  503 -0.00000000000E+00 -0.00000000000E+00 -0.64735415089E+02  0.64735415089E+02  0.00000000000E+00 0.  1.
          6    1    1    2  501    0  0.30746240132E+02  0.80996768547E+01  0.77661022100E+03  0.79628096261E+03  0.17300000000E+03 0. -1.
         -6    1    1    2    0  503 -0.30746240132E+02 -0.80996768547E+01  0.85992082715E+02  0.19579217129E+03  0.17300000000E+03 0.  1.
</event>
<event>
 4    1  0.5943823E+000  0.1000000E+03  0.7546771E-02  0.1280296E+00
         21   -1    0    0  501  502  0.00000000000E+00  0.00000000000E+00  0.42566593042E+02  0.42566593042E+02  0.00000000000E+00 0. -1.
         21   -1    0    0  502  503 -0.00000000000E+00 -0.00000000000E+00 -0.14022105674E+04  0.14022105674E+04  0.00000000000E+00 0.  1.
          6    1    1    2  501    0  0.61020277644E+02 -0.42037499496E+02 -0.21920057184E+03  0.28890918356E+03  0.17300000000E+03 0. -1.
         -6    1    1    2    0  503 -0.61020277644E+02  0.42037499496E+02 -0.11404434026E+04  0.11558679769E+04  0.17300000000E+03 0.  1.
</event>
<event>
 4    1  0.5943823E+000  0.1000000E+03  0.7546771E-02  0.1280296E+00
         21   -1    0    0  501  502  0.00000000000E+00  0.00000000000E+00  0.17146490814E+03  0.17146490814E+03  0.00000000000E+00 0. -1.
         21   -1    0    0  502  503 -0.00000000000E+00 -0.00000000000E+00 -0.47257737196E+03  0.47257737196E+03  0.00000000000E+00 0.  1.
          6    1    1    2  501    0  0.13937836688E+03  0.16163844536E+03 -0.66293953219E+02  0.28262555512E+03  0.17300000000E+03 0. -1.
         -6    1    1    2    0  503 -0.13937836688E+03 -0.16163844536E+03 -0.23481851060E+03  0.36141672498E+03  0.17300000000E+03 0.  1.
</event>
<event>
 4    1  0.5943823E+000  0.1000000E+03  0.7546771E-02  0.1280296E+00
         21   -1    0    0  501  502  0.00000000000E+00  0.00000000000E+00  0.36795248132E+03  0.36795248132E+03  0.00000000000E+00 0. -1.
         21   -1    0    0  502  503 -0.00000000000E+00 -0.00000000000E+00 -0.10777443161E+03  0.10777443161E+03  0.00000000000E+00 0.  1.
          6    1    1    2  501    0 -0.49675491376E+02  0.44847469147E+02  0.21661919814E+03  0.28518735409E+03  0.17300000000E+03 0. -1.
         -6    1    1    2    0  503  0.49675491376E+02 -0.44847469147E+02  0.43558851572E+02  0.19053955884E+03  0.17300000000E+03 0.  1.
</event>
<event>
 4    1  0.5943823E+000  0.1000000E+03  0.7546771E-02  0.1280296E+00
         21   -1    0    0  501  502  0.00000000000E+00  0.00000000000E+00  0.43288958471E+03  0.43288958471E+03  0.00000000000E+00 0. -1.
         21   -1    0    0  502  503 -0.00000000000E+00 -0.00000000000E+00 -0.90587582672E+02  0.90587582672E+02  0.00000000000E+00 0.  1.
          6    1    1    2  501    0 -0.35921765636E+02  0.54234939312E+02  0.26511166979E+03  0.32317951567E+03  0.17300000000E+03 0. -1.
         -6    1    1    2    0  503  0.35921765636E+02 -0.54234939312E+02  0.77190332243E+02  0.20029765171E+03  0.17300000000E+03 0.  1.
</event>
<event>
 4    1  0.5943823E+000  0.1000000E+03  0.7546771E-02  0.1280296E+00
         21   -1    0    0  503  502  0.00000000000E+00  0.00000000000E+00  0.10508257983E+04  0.10508257983E+04  0.00000000000E+00 0. -1.
         21   -1    0    0  501  503 -0.00000000000E+00 -0.00000000000E+00 -0.90153818341E+02  0.90153818341E+02  0.00000000000E+00 0.  1.
          6    1    1    2  501    0 -0.14294648323E+02 -0.21129552298E+03  0.21849588375E+03  0.35002797919E+03  0.17300000000E+03 0.  1.
         -6    1    1    2    0  502  0.14294648323E+02  0.21129552298E+03  0.74217609626E+03  0.79095163749E+03  0.17300000000E+03 0. -1.
</event>
<event>
 4    1  0.5943823E+000  0.1000000E+03  0.7546771E-02  0.1280296E+00
         21   -1    0    0  503  502  0.00000000000E+00  0.00000000000E+00  0.53950806899E+03  0.53950806899E+03  0.00000000000E+00 0. -1.
         21   -1    0    0  501  503 -0.00000000000E+00 -0.00000000000E+00 -0.21168669854E+03  0.21168669854E+03  0.00000000000E+00 0.  1.
          6    1    1    2  501    0  0.11700570284E+03 -0.20347316144E+03 -0.25962763887E+02  0.29273661717E+03  0.17300000000E+03 0.  1.
         -6    1    1    2    0  502 -0.11700570284E+03  0.20347316144E+03  0.35378413434E+03  0.45845815036E+03  0.17300000000E+03 0. -1.
</event>
<event>
 4    1  0.5943823E+000  0.1000000E+03  0.7546771E-02  0.1280296E+00
         21   -1    0    0  503  502  0.00000000000E+00  0.00000000000E+00  0.58673136646E+03  0.58673136646E+03  0.00000000000E+00 0. -1.
         21   -1    0    0  501  503 -0.00000000000E+00 -0.00000000000E+00 -0.37373337084E+03  0.37373337084E+03  0.00000000000E+00 0.  1.
          6    1    1    2  501    0 -0.21000140957E+03 -0.54875444898E+02 -0.28027920501E+03  0.39445828580E+03  0.17300000000E+03 0.  1.
         -6    1    1    2    0  502  0.21000140957E+03  0.54875444898E+02  0.49327720063E+03  0.56600645150E+03  0.17300000000E+03 0. -1.
</event>
<event>
 4    1  0.5943823E+000  0.1000000E+03  0.7546771E-02  0.1280296E+00
         21   -1    0    0  501  502  0.00000000000E+00  0.00000000000E+00  0.57193384186E+02  0.57193384186E+02  0.00000000000E+00 0.  1.
         21   -1    0    0  502  503 -0.00000000000E+00 -0.00000000000E+00 -0.16768269194E+04  0.16768269194E+04  0.00000000000E+00 0.  1.
          6    1    1    2  501    0  0.17936959915E+03  0.52519897804E+02 -0.31654494819E+03  0.40627761074E+03  0.17300000000E+03 0.  1.
         -6    1    1    2    0  503 -0.17936959915E+03 -0.52519897804E+02 -0.13030885870E+04  0.13277426928E+04  0.17300000000E+03 0.  1.
</event>
<event>
 4    1  0.5943823E+000  0.1000000E+03  0.7546771E-02  0.1280296E+00
         21   -1    0    0  501  502  0.00000000000E+00  0.00000000000E+00  0.99691364434E+02  0.99691364434E+02  0.00000000000E+00 0.  1.
         21   -1    0    0  502  503 -0.00000000000E+00 -0.00000000000E+00 -0.10731444242E+04  0.10731444242E+04  0.00000000000E+00 0.  1.
          6    1    1    2  501    0 -0.66289622163E+02 -0.14712894001E+03 -0.81787386868E+02  0.25031862824E+03  0.17300000000E+03 0.  1.
         -6    1    1    2    0  503  0.66289622163E+02  0.14712894001E+03 -0.89166567290E+03  0.92251716040E+03  0.17300000000E+03 0.  1.
</event>
<event>
 4    1  0.5943823E+000  0.1000000E+03  0.7546771E-02  0.1280296E+00
         21   -1    0    0  501  502  0.00000000000E+00  0.00000000000E+00  0.14061464020E+04  0.14061464020E+04  0.00000000000E+00 0.  1.
         21   -1    0    0  502  503 -0.00000000000E+00 -0.00000000000E+00 -0.58191832919E+02  0.58191832919E+02  0.00000000000E+00 0.  1.
          6    1    1    2  501    0 -0.12917643401E+03  0.18740647882E+03  0.69819145207E+03  0.75445877498E+03  0.17300000000E+03 0.  1.
         -6    1    1    2    0  503  0.12917643401E+03 -0.18740647882E+03  0.64976311704E+03  0.70987945997E+03  0.17300000000E+03 0.  1.
</event>
<event>
 4    1  0.5943823E+000  0.1000000E+03  0.7546771E-02  0.1280296E+00
         21   -1    0    0  503  502  0.00000000000E+00  0.00000000000E+00  0.28224529647E+03  0.28224529647E+03  0.00000000000E+00 0.  1.
         21   -1    0    0  501  503 -0.00000000000E+00 -0.00000000000E+00 -0.50736356075E+03  0.50736356075E+03  0.00000000000E+00 0. -1.
          6    1    1    2  501    0 -0.16115588855E+03 -0.13949088903E+03 -0.38430422162E+03  0.47227922175E+03  0.17300000000E+03 0. -1.
         -6    1    1    2    0  502  0.16115588855E+03  0.13949088903E+03  0.15918595735E+03  0.31732963548E+03  0.17300000000E+03 0. -1.
</event>
<event>
 4    1  0.5943823E+000  0.1000000E+03  0.7546771E-02  0.1280296E+00
         21   -1    0    0  503  502  0.00000000000E+00  0.00000000000E+00  0.13721396340E+03  0.13721396340E+03  0.00000000000E+00 0.  1.
         21   -1    0    0  501  503 -0.00000000000E+00 -0.00000000000E+00 -0.66303208653E+03  0.66303208653E+03  0.00000000000E+00 0. -1.
          6    1    1    2  501    0 -0.17490650251E+03 -0.94164736111E+02 -0.45782311846E+03  0.52819531420E+03  0.17300000000E+03 0. -1.
         -6    1    1    2    0  502  0.17490650251E+03  0.94164736111E+02 -0.67995004673E+02  0.27205073572E+03  0.17300000000E+03 0.  1.
</event>
<event>
 4    1  0.5943823E+000  0.1000000E+03  0.7546771E-02  0.1280296E+00
         21   -1    0    0  501  502  0.00000000000E+00  0.00000000000E+00  0.14491172773E+03  0.14491172773E+03  0.00000000000E+00 0.  1.
         21   -1    0    0  502  503 -0.00000000000E+00 -0.00000000000E+00 -0.29117674524E+03  0.29117674524E+03  0.00000000000E+00 0.  1.
          6    1    1    2  501    0 -0.53287384133E+02 -0.95606890597E+02 -0.55190484576E+02  0.21202644275E+03  0.17300000000E+03 0. -1.
         -6    1    1    2    0  503  0.53287384133E+02  0.95606890597E+02 -0.91074532931E+02  0.22406203022E+03  0.17300000000E+03 0. -1.
</event>
<event>
 4    1  0.5943823E+000  0.1000000E+03  0.7546771E-02  0.1280296E+00
         21   -1    0    0  501  502  0.00000000000E+00  0.00000000000E+00  0.36134082259E+02  0.36134082259E+02  0.00000000000E+00 0.  1.
         21   -1    0    0  502  503 -0.00000000000E+00 -0.00000000000E+00 -0.10201886553E+04  0.10201886553E+04  0.00000000000E+00 0.  1.
          6    1    1    2  501    0 -0.17486913535E+02 -0.38744367443E+02 -0.29504480913E+03  0.34465541857E+03  0.17300000000E+03 0. -1.
         -6    1    1    2    0  503  0.17486913535E+02  0.38744367443E+02 -0.68900976387E+03  0.71166731895E+03  0.17300000000E+03 0. -1.
</event>
<event>
 4    1  0.5943823E+000  0.1000000E+03  0.7546771E-02  0.1280296E+00
         21   -1    0    0  503  502  0.00000000000E+00  0.00000000000E+00  0.32695257576E+03  0.32695257576E+03  0.00000000000E+00 0.  1.
         21   -1    0    0  501  503 -0.00000000000E+00 -0.00000000000E+00 -0.51789025775E+03  0.51789025775E+03  0.00000000000E+00 0.  1.
          6    1    1    2  501    0 -0.51324476053E+02  0.36787675143E+03 -0.56662023267E+02  0.41365092888E+03  0.17300000000E+03 0.  1.
         -6    1    1    2    0  502  0.51324476053E+02 -0.36787675143E+03 -0.13427565873E+03  0.43119190462E+03  0.17300000000E+03 0.  1.
</event>
<event>
 4    1  0.5943823E+000  0.1000000E+03  0.7546771E-02  0.1280296E+00
         21   -1    0    0  503  502  0.00000000000E+00  0.00000000000E+00  0.59202668669E+03  0.59202668669E+03  0.00000000000E+00 0. -1.
         21   -1    0    0  501  503 -0.00000000000E+00 -0.00000000000E+00 -0.32271432423E+03  0.32271432423E+03  0.00000000000E+00 0. -1.
          6    1    1    2  501    0  0.34280380593E+03 -0.17009404813E+03  0.26143662589E+03  0.49469641592E+03  0.17300000000E+03 0. -1.
         -6    1    1    2    0  502 -0.34280380593E+03  0.17009404813E+03  0.78757365663E+01  0.42004459501E+03  0.17300000000E+03 0. -1.
</event>
<event>
 4    1  0.5943823E+000  0.1000000E+03  0.7546771E-02  0.1280296E+00
         21   -1    0    0  503  502  0.00000000000E+00  0.00000000000E+00  0.36133856039E+03  0.36133856039E+03  0.00000000000E+00 0. -1.
         21   -1    0    0  501  503 -0.00000000000E+00 -0.00000000000E+00 -0.27252993988E+03  0.27252993988E+03  0.00000000000E+00 0. -1.
          6    1    1    2  501    0 -0.70650809413E+02  0.21482034552E+02 -0.20928223305E+03  0.28139130717E+03  0.17300000000E+03 0. -1.
         -6    1    1    2    0  502  0.70650809413E+02 -0.21482034552E+02  0.29809085356E+03  0.35247719310E+03  0.17300000000E+03 0. -1.
</event>
<event>
 4    1  0.5943823E+000  0.1000000E+03  0.7546771E-02  0.1280296E+00
         21   -1    0    0  503  502  0.00000000000E+00  0.00000000000E+00  0.47001293757E+03  0.47001293757E+03  0.00000000000E+00 0. -1.
         21   -1    0    0  501  503 -0.00000000000E+00 -0.00000000000E+00 -0.87293039067E+02  0.87293039067E+02  0.00000000000E+00 0. -1.
          6    1    1    2  501    0  0.75605422677E+02 -0.23745922568E+02  0.95853235140E+02  0.21306546286E+03  0.17300000000E+03 0. -1.
         -6    1    1    2    0  502 -0.75605422677E+02  0.23745922568E+02  0.28686666337E+03  0.34424051378E+03  0.17300000000E+03 0. -1.
</event>
<event>
 4    1  0.5943823E+000  0.1000000E+03  0.7546771E-02  0.1280296E+00
         21   -1    0    0  501  502  0.00000000000E+00  0.00000000000E+00  0.15934949603E+04  0.15934949603E+04  0.00000000000E+00 0.  1.
         21   -1    0    0  502  503 -0.00000000000E+00 -0.00000000000E+00 -0.81417857844E+02  0.81417857844E+02  0.00000000000E+00 0.  1.
          6    1    1    2  501    0  0.23650837636E+02 -0.39094766514E+02  0.14828530936E+04  0.14936097416E+04  0.17300000000E+03 0.  1.
         -6    1    1    2    0  503 -0.23650837636E+02  0.39094766514E+02  0.29224008874E+02  0.18130307660E+03  0.17300000000E+03 0.  1.
</event>
<event>
 4    1  0.5943823E+000  0.1000000E+03  0.7546771E-02  0.1280296E+00
         21   -1    0    0  501  502  0.00000000000E+00  0.00000000000E+00  0.13394543553E+03  0.13394543553E+03  0.00000000000E+00 0.  1.
         21   -1    0    0  502  503 -0.00000000000E+00 -0.00000000000E+00 -0.79381235221E+03  0.79381235221E+03  0.00000000000E+00 0.  1.
          6    1    1    2  501    0  0.65623618211E+02  0.16104619727E+02  0.51345547659E+02  0.19269453367E+03  0.17300000000E+03 0.  1.
         -6    1    1    2    0  503 -0.65623618211E+02 -0.16104619727E+02 -0.71121246434E+03  0.73506325406E+03  0.17300000000E+03 0.  1.
</event>
<event>
 4    1  0.5943823E+000  0.1000000E+03  0.7546771E-02  0.1280296E+00
         21   -1    0    0  503  502  0.00000000000E+00  0.00000000000E+00  0.16296069881E+03  0.16296069881E+03  0.00000000000E+00 0. -1.
         21   -1    0    0  501  503 -0.00000000000E+00 -0.00000000000E+00 -0.24560617355E+03  0.24560617355E+03  0.00000000000E+00 0. -1.
          6    1    1    2  501    0 -0.10363071666E+02  0.64711116717E+02  0.36444156054E+02  0.18855264090E+03  0.17300000000E+03 0. -1.
         -6    1    1    2    0  502  0.10363071666E+02 -0.64711116717E+02 -0.11908963079E+03  0.22001423145E+03  0.17300000000E+03 0. -1.
</event>
<event>
 4    1  0.5943823E+000  0.1000000E+03  0.7546771E-02  0.1280296E+00
         21   -1    0    0  503  502  0.00000000000E+00  0.00000000000E+00  0.12224690075E+04  0.12224690075E+04  0.00000000000E+00 0. -1.
         21   -1    0    0  501  503 -0.00000000000E+00 -0.00000000000E+00 -0.60336379268E+02  0.60336379268E+02  0.00000000000E+00 0. -1.
          6    1    1    2  501    0  0.16128886813E+03  0.60394761168E+02  0.29994896279E+03  0.38672988821E+03  0.17300000000E+03 0. -1.
         -6    1    1    2    0  502 -0.16128886813E+03 -0.60394761168E+02  0.86218366549E+03  0.89607549860E+03  0.17300000000E+03 0. -1.
</event>
<event>
 4    1  0.5943823E+000  0.1000000E+03  0.7546771E-02  0.1280296E+00
         21   -1    0    0  503  502  0.00000000000E+00  0.00000000000E+00  0.78549732094E+03  0.78549732094E+03  0.00000000000E+00 0. -1.
         21   -1    0    0  501  503 -0.00000000000E+00 -0.00000000000E+00 -0.11745059401E+03  0.11745059401E+03  0.00000000000E+00 0. -1.
          6    1    1    2  501    0 -0.16836687521E+03 -0.10139473820E+03  0.10519737332E+03  0.28217686822E+03  0.17300000000E+03 0. -1.
         -6    1    1    2    0  502  0.16836687521E+03  0.10139473820E+03  0.56284935361E+03  0.62077104673E+03  0.17300000000E+03 0. -1.
</event>
<event>
 4    1  0.5943823E+000  0.1000000E+03  0.7546771E-02  0.1280296E+00
         21   -1    0    0  501  502  0.00000000000E+00  0.00000000000E+00  0.50646512205E+03  0.50646512205E+03  0.00000000000E+00 0.  1.
         21   -1    0    0  502  503 -0.00000000000E+00 -0.00000000000E+00 -0.35393715385E+03  0.35393715385E+03  0.00000000000E+00 0. -1.
          6    1    1    2  501    0  0.53717532572E+02  0.19900805230E+03  0.40838524173E+03  0.48907799363E+03  0.17300000000E+03 0.  1.
         -6    1    1    2    0  503 -0.53717532572E+02 -0.19900805230E+03 -0.25585727354E+03  0.37132428228E+03  0.17300000000E+03 0. -1.
</event>
<event>
 4    1  0.5943823E+000  0.1000000E+03  0.7546771E-02  0.1280296E+00
         21   -1    0    0  501  502  0.00000000000E+00  0.00000000000E+00  0.11779621902E+03  0.11779621902E+03  0.00000000000E+00 0. -1.
         21   -1    0    0  502  503 -0.00000000000E+00 -0.00000000000E+00 -0.51431425039E+03  0.51431425039E+03  0.00000000000E+00 0.  1.
          6    1    1    2  501    0 -0.33632885097E+02 -0.15584850366E+03 -0.10535044672E+03  0.25777440462E+03  0.17300000000E+03 0. -1.
         -6    1    1    2    0  503  0.33632885097E+02  0.15584850366E+03 -0.29116758465E+03  0.37433606479E+03  0.17300000000E+03 0.  1.
</event>
<event>
 4    1  0.5943823E+000  0.1000000E+03  0.7546771E-02  0.1280296E+00
         21   -1    0    0  503  502  0.00000000000E+00  0.00000000000E+00  0.65298234642E+02  0.65298234642E+02  0.00000000000E+00 0. -1.
         21   -1    0    0  501  503 -0.00000000000E+00 -0.00000000000E+00 -0.52710612787E+03  0.52710612787E+03  0.00000000000E+00 0. -1.
          6    1    1    2  501    0 -0.63827381035E+02 -0.19854024584E+02 -0.22341829555E+03  0.29036675369E+03  0.17300000000E+03 0. -1.
         -6    1    1    2    0  502  0.63827381035E+02  0.19854024584E+02 -0.23838959768E+03  0.30203760882E+03  0.17300000000E+03 0. -1.
</event>
<event>
 4    1  0.5943823E+000  0.1000000E+03  0.7546771E-02  0.1280296E+00
         21   -1    0    0  501  502  0.00000000000E+00  0.00000000000E+00  0.81632523740E+02  0.81632523740E+02  0.00000000000E+00 0. -1.
         21   -1    0    0  502  503 -0.00000000000E+00 -0.00000000000E+00 -0.11820257078E+04  0.11820257078E+04  0.00000000000E+00 0. -1.
          6    1    1    2  501    0 -0.36820433557E+02  0.10541097526E+03 -0.10232772877E+04  0.10437876344E+04  0.17300000000E+03 0. -1.
         -6    1    1    2    0  503  0.36820433557E+02 -0.10541097526E+03 -0.77115896290E+02  0.21987059715E+03  0.17300000000E+03 0. -1.
</event>
<event>
 4    1  0.5943823E+000  0.1000000E+03  0.7546771E-02  0.1280296E+00
         21   -1    0    0  501  502  0.00000000000E+00  0.00000000000E+00  0.11938545875E+03  0.11938545875E+03  0.00000000000E+00 0. -1.
         21   -1    0    0  502  503 -0.00000000000E+00 -0.00000000000E+00 -0.47916452199E+03  0.47916452199E+03  0.00000000000E+00 0. -1.
          6    1    1    2  501    0  0.15724386331E+02 -0.26644536717E+02  0.23106620129E+02  0.17725716786E+03  0.17300000000E+03 0. -1.
         -6    1    1    2    0  503 -0.15724386331E+02  0.26644536717E+02 -0.38288568337E+03  0.42129281289E+03  0.17300000000E+03 0. -1.
</event>
<event>
 4    1  0.5943823E+000  0.1000000E+03  0.7546771E-02  0.1280296E+00
         21   -1    0    0  501  502  0.00000000000E+00  0.00000000000E+00  0.17952707441E+02  0.17952707441E+02  0.00000000000E+00 0. -1.
         21   -1    0    0  502  503 -0.00000000000E+00 -0.00000000000E+00 -0.24513181675E+04  0.24513181675E+04  0.00000000000E+00 0. -1.
          6    1    1    2  501    0 -0.29225037649E+02 -0.35945538702E+02 -0.57378527979E+03  0.60108629321E+03  0.17300000000E+03 0. -1.
         -6    1    1    2    0  503  0.29225037649E+02  0.35945538702E+02 -0.18595801803E+04  0.18681845818E+04  0.17300000000E+03 0. -1.
</event>
<event>
 4    1  0.5943823E+000  0.1000000E+03  0.7546771E-02  0.1280296E+00
         21   -1    0    0  503  502  0.00000000000E+00  0.00000000000E+00  0.95413934153E+02  0.95413934153E+02  0.00000000000E+00 0.  1.
         21   -1    0    0  501  503 -0.00000000000E+00 -0.00000000000E+00 -0.53994353034E+03  0.53994353034E+03  0.00000000000E+00 0. -1.
          6    1    1    2  501    0  0.29820538479E+02  0.86350596862E+02 -0.38333254247E+03  0.43037022226E+03  0.17300000000E+03 0. -1.
         -6    1    1    2    0  502 -0.29820538479E+02 -0.86350596862E+02 -0.61197053717E+02  0.20498724223E+03  0.17300000000E+03 0.  1.
</event>
<event>
 4    1  0.5943823E+000  0.1000000E+03  0.7546771E-02  0.1280296E+00
         21   -1    0    0  503  502  0.00000000000E+00  0.00000000000E+00  0.23209275308E+03  0.23209275308E+03  0.00000000000E+00 0. -1.
         21   -1    0    0  501  503 -0.00000000000E+00 -0.00000000000E+00 -0.19469610800E+03  0.19469610800E+03  0.00000000000E+00 0. -1.
          6    1    1    2  501    0 -0.90519395248E+02 -0.83712265053E+02  0.11115914967E+02  0.21273003503E+03  0.17300000000E+03 0. -1.
         -6    1    1    2    0  502  0.90519395248E+02  0.83712265053E+02  0.26280730115E+02  0.21405882605E+03  0.17300000000E+03 0. -1.
</event>
<event>
 4    1  0.5943823E+000  0.1000000E+03  0.7546771E-02  0.1280296E+00
         21   -1    0    0  503  502  0.00000000000E+00  0.00000000000E+00  0.52264488275E+03  0.52264488275E+03  0.00000000000E+00 0. -1.
         21   -1    0    0  501  503 -0.00000000000E+00 -0.00000000000E+00 -0.80451419955E+02  0.80451419955E+02  0.00000000000E+00 0. -1.
          6    1    1    2  501    0 -0.73263853892E+02  0.35839921464E+02  0.11236948602E+03  0.22182874846E+03  0.17300000000E+03 0. -1.
         -6    1    1    2    0  502  0.73263853892E+02 -0.35839921464E+02  0.32982397678E+03  0.38126755424E+03  0.17300000000E+03 0. -1.
</event>
<event>
 4    1  0.5943823E+000  0.1000000E+03  0.7546771E-02  0.1280296E+00
         21   -1    0    0  503  502  0.00000000000E+00  0.00000000000E+00  0.54534889479E+03  0.54534889479E+03  0.00000000000E+00 0. -1.
         21   -1    0    0  501  503 -0.00000000000E+00 -0.00000000000E+00 -0.22048636892E+03  0.22048636892E+03  0.00000000000E+00 0. -1.
          6    1    1    2  501    0 -0.20123268986E+03 -0.22253837737E+03  0.18140014835E+03  0.39096411433E+03  0.17300000000E+03 0. -1.
         -6    1    1    2    0  502  0.20123268986E+03  0.22253837737E+03  0.14346237752E+03  0.37487114938E+03  0.17300000000E+03 0. -1.
</event>
<event>
 4    1  0.5943823E+000  0.1000000E+03  0.7546771E-02  0.1280296E+00
         21   -1    0    0  501  502  0.00000000000E+00  0.00000000000E+00  0.27163676785E+03  0.27163676785E+03  0.00000000000E+00 0.  1.
         21   -1    0    0  502  503 -0.00000000000E+00 -0.00000000000E+00 -0.72926362756E+03  0.72926362756E+03  0.00000000000E+00 0.  1.
          6    1    1    2  501    0 -0.19485561980E+03  0.35680558451E+03 -0.16839931026E+03  0.47282794482E+03  0.17300000000E+03 0.  1.
         -6    1    1    2    0  503  0.19485561980E+03 -0.35680558451E+03 -0.28922754945E+03  0.52807245059E+03  0.17300000000E+03 0.  1.
</event>
<event>
 4    1  0.5943823E+000  0.1000000E+03  0.7546771E-02  0.1280296E+00
         21   -1    0    0  501  502  0.00000000000E+00  0.00000000000E+00  0.15306322142E+02  0.15306322142E+02  0.00000000000E+00 0.  1.
         21   -1    0    0  502  503 -0.00000000000E+00 -0.00000000000E+00 -0.25829789311E+04  0.25829789311E+04  0.00000000000E+00 0.  1.
          6    1    1    2  501    0  0.49011099913E+00  0.61559054027E+02 -0.78550735506E+03  0.80668492126E+03  0.17300000000E+03 0.  1.
         -6    1    1    2    0  503 -0.49011099913E+00 -0.61559054027E+02 -0.17821652539E+04  0.17916003320E+04  0.17300000000E+03 0.  1.
</event>
<event>
 4    1  0.5943823E+000  0.1000000E+03  0.7546771E-02  0.1280296E+00
         21   -1    0    0  501  502  0.00000000000E+00  0.00000000000E+00  0.42117610735E+03  0.42117610735E+03  0.00000000000E+00 0.  1.
         21   -1    0    0  502  503 -0.00000000000E+00 -0.00000000000E+00 -0.82642411799E+02  0.82642411799E+02  0.00000000000E+00 0.  1.
          6    1    1    2  501    0  0.55128121146E+02 -0.40666591404E+02  0.15089525877E+03  0.23956473137E+03  0.17300000000E+03 0.  1.
         -6    1    1    2    0  503 -0.55128121146E+02  0.40666591404E+02  0.18763843678E+03  0.26425378778E+03  0.17300000000E+03 0.  1.
</event>
<event>
 4    1  0.5943823E+000  0.1000000E+03  0.7546771E-02  0.1280296E+00
         21   -1    0    0  501  502  0.00000000000E+00  0.00000000000E+00  0.68091517975E+03  0.68091517975E+03  0.00000000000E+00 0.  1.
         21   -1    0    0  502  503 -0.00000000000E+00 -0.00000000000E+00 -0.76427197281E+02  0.76427197281E+02  0.00000000000E+00 0.  1.
          6    1    1    2  501    0 -0.75875038096E+02  0.38691613955E+02  0.50457518813E+03  0.54016588459E+03  0.17300000000E+03 0.  1.
         -6    1    1    2    0  503  0.75875038096E+02 -0.38691613955E+02  0.99912794336E+02  0.21717649244E+03  0.17300000000E+03 0.  1.
</event>
<event>
 4    1  0.5943823E+000  0.1000000E+03  0.7546771E-02  0.1280296E+00
         21   -1    0    0  501  502  0.00000000000E+00  0.00000000000E+00  0.16368411152E+04  0.16368411152E+04  0.00000000000E+00 0.  1.
         21   -1    0    0  502  503 -0.00000000000E+00 -0.00000000000E+00 -0.12019205115E+03  0.12019205115E+03  0.00000000000E+00 0.  1.
          6    1    1    2  501    0 -0.19776330634E+03 -0.21793516301E+02  0.14647856179E+04  0.14883249608E+04  0.17300000000E+03 0.  1.
         -6    1    1    2    0  503  0.19776330634E+03  0.21793516301E+02  0.51863446223E+02  0.26870820557E+03  0.17300000000E+03 0.  1.
</event>
<event>
 4    1  0.5943823E+000  0.1000000E+03  0.7546771E-02  0.1280296E+00
         21   -1    0    0  501  502  0.00000000000E+00  0.00000000000E+00  0.70471393029E+02  0.70471393029E+02  0.00000000000E+00 0.  1.
         21   -1    0    0  502  503 -0.00000000000E+00 -0.00000000000E+00 -0.25930043290E+04  0.25930043290E+04  0.00000000000E+00 0.  1.
          6    1    1    2  501    0  0.71447811888E+01  0.22837097201E+03 -0.27315001541E+03  0.39590943368E+03  0.17300000000E+03 0.  1.
         -6    1    1    2    0  503 -0.71447811888E+01 -0.22837097201E+03 -0.22493829205E+04  0.22675662883E+04  0.17300000000E+03 0.  1.
</event>
<event>
 4    1  0.5943823E+000  0.1000000E+03  0.7546771E-02  0.1280296E+00
         21   -1    0    0  503  502  0.00000000000E+00  0.00000000000E+00  0.24816460191E+03  0.24816460191E+03  0.00000000000E+00 0.  1.
         21   -1    0    0  501  503 -0.00000000000E+00 -0.00000000000E+00 -0.70186623036E+03  0.70186623036E+03  0.00000000000E+00 0. -1.
          6    1    1    2  501    0  0.35060760537E+03  0.70054681593E+01 -0.39286345327E+03  0.55429726902E+03  0.17300000000E+03 0. -1.
         -6    1    1    2    0  502 -0.35060760537E+03 -0.70054681593E+01 -0.60838175186E+02  0.39573356325E+03  0.17300000000E+03 0.  1.
</event>
<event>
 4    1  0.5943823E+000  0.1000000E+03  0.7546771E-02  0.1280296E+00
         21   -1    0    0  503  502  0.00000000000E+00  0.00000000000E+00  0.77874946275E+02  0.77874946275E+02  0.00000000000E+00 0.  1.
         21   -1    0    0  501  503 -0.00000000000E+00 -0.00000000000E+00 -0.55288215697E+03  0.55288215697E+03  0.00000000000E+00 0. -1.
          6    1    1    2  501    0  0.33702901287E+02 -0.10216125344E+03 -0.29741688203E+03  0.36049772395E+03  0.17300000000E+03 0. -1.
         -6    1    1    2    0  502 -0.33702901287E+02  0.10216125344E+03 -0.17759032867E+03  0.27025937929E+03  0.17300000000E+03 0.  1.
</event>
<event>
 4    1  0.5943823E+000  0.1000000E+03  0.7546771E-02  0.1280296E+00
         21   -1    0    0  503  502  0.00000000000E+00  0.00000000000E+00  0.44519196379E+03  0.44519196379E+03  0.00000000000E+00 0.  1.
         21   -1    0    0  501  503 -0.00000000000E+00 -0.00000000000E+00 -0.12452501395E+03  0.12452501395E+03  0.00000000000E+00 0.  1.
          6    1    1    2  501    0  0.29939514036E+02 -0.14718374602E+03  0.94632412374E+02  0.24787844413E+03  0.17300000000E+03 0.  1.
         -6    1    1    2    0  502 -0.29939514036E+02  0.14718374602E+03  0.22603453746E+03  0.32183853361E+03  0.17300000000E+03 0.  1.
</event>
<event>
 4    1  0.5943823E+000  0.1000000E+03  0.7546771E-02  0.1280296E+00
         21   -1    0    0  501  502  0.00000000000E+00  0.00000000000E+00  0.10210113951E+03  0.10210113951E+03  0.00000000000E+00 0.  1.
         21   -1    0    0  502  503 -0.00000000000E+00 -0.00000000000E+00 -0.77210892902E+03  0.77210892902E+03  0.00000000000E+00 0.  1.
          6    1    1    2  501    0 -0.12839230513E+03  0.42228759375E+02 -0.62514419233E+02  0.22826498800E+03  0.17300000000E+03 0.  1.
         -6    1    1    2    0  503  0.12839230513E+03 -0.42228759375E+02 -0.60749337028E+03  0.64594508053E+03  0.17300000000E+03 0.  1.
</event>
<event>
 4    1  0.5943823E+000  0.1000000E+03  0.7546771E-02  0.1280296E+00
         21   -1    0    0  501  502  0.00000000000E+00  0.00000000000E+00  0.57159262033E+02  0.57159262033E+02  0.00000000000E+00 0.  1.
         21   -1    0    0  502  503 -0.00000000000E+00 -0.00000000000E+00 -0.81704519906E+03  0.81704519906E+03  0.00000000000E+00 0.  1.
          6    1    1    2  501    0  0.37520256797E+01 -0.10789856359E+03 -0.23526442227E+03  0.31134310031E+03  0.17300000000E+03 0.  1.
         -6    1    1    2    0  503 -0.37520256797E+01  0.10789856359E+03 -0.52462151476E+03  0.56286136079E+03  0.17300000000E+03 0.  1.
</event>
<event>
 4    1  0.5943823E+000  0.1000000E+03  0.7546771E-02  0.1280296E+00
         21   -1    0    0  503  502  0.00000000000E+00  0.00000000000E+00  0.23381114535E+03  0.23381114535E+03  0.00000000000E+00 0.  1.
         21   -1    0    0  501  503 -0.00000000000E+00 -0.00000000000E+00 -0.25295575273E+03  0.25295575273E+03  0.00000000000E+00 0.  1.
          6    1    1    2  501    0 -0.64570063554E+02 -0.15598361524E+03  0.17182138592E+02  0.24233119324E+03  0.17300000000E+03 0.  1.
         -6    1    1    2    0  502  0.64570063554E+02  0.15598361524E+03 -0.36326745975E+02  0.24443570484E+03  0.17300000000E+03 0.  1.
</event>
<event>
 4    1  0.5943823E+000  0.1000000E+03  0.7546771E-02  0.1280296E+00
         21   -1    0    0  503  502  0.00000000000E+00  0.00000000000E+00  0.43029564551E+03  0.43029564551E+03  0.00000000000E+00 0.  1.
         21   -1    0    0  501  503 -0.00000000000E+00 -0.00000000000E+00 -0.44570930928E+03  0.44570930928E+03  0.00000000000E+00 0.  1.
          6    1    1    2  501    0 -0.17777431236E+03 -0.70214746497E+02 -0.36177288546E+03  0.44423241374E+03  0.17300000000E+03 0.  1.
         -6    1    1    2    0  502  0.17777431236E+03  0.70214746497E+02  0.34635922169E+03  0.43177254106E+03  0.17300000000E+03 0.  1.
</event>
<event>
 4    1  0.5943823E+000  0.1000000E+03  0.7546771E-02  0.1280296E+00
         21   -1    0    0  503  502  0.00000000000E+00  0.00000000000E+00  0.81033623789E+03  0.81033623789E+03  0.00000000000E+00 0.  1.
         21   -1    0    0  501  503 -0.00000000000E+00 -0.00000000000E+00 -0.74962250394E+02  0.74962250394E+02  0.00000000000E+00 0.  1.
          6    1    1    2  501    0  0.91695219575E+02 -0.56826774347E+02  0.11896670720E+03  0.23604951387E+03  0.17300000000E+03 0.  1.
         -6    1    1    2    0  502 -0.91695219575E+02  0.56826774347E+02  0.61640728029E+03  0.64924897441E+03  0.17300000000E+03 0.  1.
</event>
<event>
 4    1  0.5943823E+000  0.1000000E+03  0.7546771E-02  0.1280296E+00
         21   -1    0    0  501  502  0.00000000000E+00  0.00000000000E+00  0.30614513139E+03  0.30614513139E+03  0.00000000000E+00 0.  1.
         21   -1    0    0  502  503 -0.00000000000E+00 -0.00000000000E+00 -0.17123137407E+03  0.17123137407E+03  0.00000000000E+00 0. -1.
          6    1    1    2  501    0 -0.93893833951E+02 -0.11153206155E+03  0.10412557117E+03  0.24905137498E+03  0.17300000000E+03 0.  1.
         -6    1    1    2    0  503  0.93893833951E+02  0.11153206155E+03  0.30788186153E+02  0.22832513049E+03  0.17300000000E+03 0. -1.
</event>
<event>
 4    1  0.5943823E+000  0.1000000E+03  0.7546771E-02  0.1280296E+00
         21   -1    0    0  501  502  0.00000000000E+00  0.00000000000E+00  0.21304815338E+02  0.21304815338E+02  0.00000000000E+00 0.  1.
         21   -1    0    0  502  503 -0.00000000000E+00 -0.00000000000E+00 -0.16619612247E+04  0.16619612247E+04  0.00000000000E+00 0. -1.
          6    1    1    2  501    0  0.69665008783E+01  0.68261819215E+02 -0.94448748091E+03  0.96264937007E+03  0.17300000000E+03 0.  1.
         -6    1    1    2    0  503 -0.69665008783E+01 -0.68261819215E+02 -0.69616892848E+03  0.72061667000E+03  0.17300000000E+03 0. -1.
</event>
<event>
 4    1  0.5943823E+000  0.1000000E+03  0.7546771E-02  0.1280296E+00
         21   -1    0    0  503  502  0.00000000000E+00  0.00000000000E+00  0.21053772140E+03  0.21053772140E+03  0.00000000000E+00 0. -1.
         21   -1    0    0  501  503 -0.00000000000E+00 -0.00000000000E+00 -0.37674150835E+03  0.37674150835E+03  0.00000000000E+00 0. -1.
          6    1    1    2  501    0 -0.84913117299E+02 -0.79156734318E+02 -0.28068756249E+03  0.34955762589E+03  0.17300000000E+03 0. -1.
         -6    1    1    2    0  502  0.84913117299E+02  0.79156734318E+02  0.11448377555E+03  0.23772160386E+03  0.17300000000E+03 0. -1.
</event>
<event>
 4    1  0.5943823E+000  0.1000000E+03  0.7546771E-02  0.1280296E+00
         21   -1    0    0  503  502  0.00000000000E+00  0.00000000000E+00  0.28012817882E+03  0.28012817882E+03  0.00000000000E+00 0. -1.
         21   -1    0    0  501  503 -0.00000000000E+00 -0.00000000000E+00 -0.24047311590E+03  0.24047311590E+03  0.00000000000E+00 0. -1.
          6    1    1    2  501    0  0.14230129155E+03  0.12938840815E+03  0.40943052729E+02  0.26190905159E+03  0.17300000000E+03 0. -1.
         -6    1    1    2    0  502 -0.14230129155E+03 -0.12938840815E+03 -0.12879898150E+01  0.25869224313E+03  0.17300000000E+03 0. -1.
</event>
<event>
 4    1  0.5943823E+000  0.1000000E+03  0.7546771E-02  0.1280296E+00
         21   -1    0    0  503  502  0.00000000000E+00  0.00000000000E+00  0.67440066505E+02  0.67440066505E+02  0.00000000000E+00 0.  1.
         21   -1    0    0  501  503 -0.00000000000E+00 -0.00000000000E+00 -0.54600150718E+03  0.54600150718E+03  0.00000000000E+00 0. -1.
          6    1    1    2  501    0  0.38807925390E+02  0.71071256764E+02 -0.26858868947E+03  0.32958468217E+03  0.17300000000E+03 0. -1.
         -6    1    1    2    0  502 -0.38807925390E+02 -0.71071256764E+02 -0.20997275121E+03  0.28385689152E+03  0.17300000000E+03 0.  1.
</event>
<event>
 4    1  0.5943823E+000  0.1000000E+03  0.7546771E-02  0.1280296E+00
         21   -1    0    0  503  502  0.00000000000E+00  0.00000000000E+00  0.90138171291E+03  0.90138171291E+03  0.00000000000E+00 0.  1.
         21   -1    0    0  501  503 -0.00000000000E+00 -0.00000000000E+00 -0.36186366740E+02  0.36186366740E+02  0.00000000000E+00 0. -1.
          6    1    1    2  501    0 -0.39022281461E+02 -0.34068549341E+02  0.43858723177E+03  0.47431125264E+03  0.17300000000E+03 0. -1.
         -6    1    1    2    0  502  0.39022281461E+02  0.34068549341E+02  0.42660811440E+03  0.46325682701E+03  0.17300000000E+03 0.  1.
</event>
<event>
 4    1  0.5943823E+000  0.1000000E+03  0.7546771E-02  0.1280296E+00
         21   -1    0    0  503  502  0.00000000000E+00  0.00000000000E+00  0.14532346542E+02  0.14532346542E+02  0.00000000000E+00 0.  1.
         21   -1    0    0  501  503 -0.00000000000E+00 -0.00000000000E+00 -0.26219048773E+04  0.26219048773E+04  0.00000000000E+00 0. -1.
          6    1    1    2  501    0 -0.18921468995E+02  0.72651974001E+02 -0.16438435723E+04  0.16546259461E+04  0.17300000000E+03 0. -1.
         -6    1    1    2    0  502  0.18921468995E+02 -0.72651974001E+02 -0.96352895844E+03  0.98181127773E+03  0.17300000000E+03 0.  1.
</event>
<event>
 4    1  0.5943823E+000  0.1000000E+03  0.7546771E-02  0.1280296E+00
         21   -1    0    0  501  502  0.00000000000E+00  0.00000000000E+00  0.58074966815E+03  0.58074966815E+03  0.00000000000E+00 0. -1.
         21   -1    0    0  502  503 -0.00000000000E+00 -0.00000000000E+00 -0.10832476739E+03  0.10832476739E+03  0.00000000000E+00 0.  1.
          6    1    1    2  501    0 -0.10696295861E+03  0.40938804170E+02  0.42981264912E+03  0.47726824066E+03  0.17300000000E+03 0. -1.
         -6    1    1    2    0  503  0.10696295861E+03 -0.40938804170E+02  0.42612251638E+02  0.21180619488E+03  0.17300000000E+03 0.  1.
</event>
<event>
 4    1  0.5943823E+000  0.1000000E+03  0.7546771E-02  0.1280296E+00
         21   -1    0    0  501  502  0.00000000000E+00  0.00000000000E+00  0.24485034089E+03  0.24485034089E+03  0.00000000000E+00 0. -1.
         21   -1    0    0  502  503 -0.00000000000E+00 -0.00000000000E+00 -0.12113414103E+04  0.12113414103E+04  0.00000000000E+00 0. -1.
          6    1    1    2  501    0 -0.26559850617E+03  0.10626617215E+03  0.91525707897E+02  0.34661364807E+03  0.17300000000E+03 0. -1.
         -6    1    1    2    0  503  0.26559850617E+03 -0.10626617215E+03 -0.10580167773E+04  0.11095781031E+04  0.17300000000E+03 0. -1.
</event>
<event>
 4    1  0.5943823E+000  0.1000000E+03  0.7546771E-02  0.1280296E+00
         21   -1    0    0  501  502  0.00000000000E+00  0.00000000000E+00  0.20483720492E+03  0.20483720492E+03  0.00000000000E+00 0. -1.
         21   -1    0    0  502  503 -0.00000000000E+00 -0.00000000000E+00 -0.28306976769E+03  0.28306976769E+03  0.00000000000E+00 0. -1.
          6    1    1    2  501    0  0.46781647459E+02  0.86418595693E+02  0.98299164286E+02  0.22191985472E+03  0.17300000000E+03 0. -1.
         -6    1    1    2    0  503 -0.46781647459E+02 -0.86418595693E+02 -0.17653172706E+03  0.26598711788E+03  0.17300000000E+03 0. -1.
</event>
<event>
 4    1  0.5943823E+000  0.1000000E+03  0.7546771E-02  0.1280296E+00
         21   -1    0    0  501  502  0.00000000000E+00  0.00000000000E+00  0.28045446084E+03  0.28045446084E+03  0.00000000000E+00 0. -1.
         21   -1    0    0  502  503 -0.00000000000E+00 -0.00000000000E+00 -0.42603358301E+03  0.42603358301E+03  0.00000000000E+00 0.  1.
          6    1    1    2  501    0  0.12764876341E+03  0.92325226210E+02  0.18722292509E+03  0.29966577695E+03  0.17300000000E+03 0. -1.
         -6    1    1    2    0  503 -0.12764876341E+03 -0.92325226210E+02 -0.33280204725E+03  0.40682226691E+03  0.17300000000E+03 0.  1.
</event>
<event>
 4    1  0.5943823E+000  0.1000000E+03  0.7546771E-02  0.1280296E+00
         21   -1    0    0  501  502  0.00000000000E+00  0.00000000000E+00  0.80825593047E+02  0.80825593047E+02  0.00000000000E+00 0.  1.
         21   -1    0    0  502  503 -0.00000000000E+00 -0.00000000000E+00 -0.92281120144E+03  0.92281120144E+03  0.00000000000E+00 0. -1.
          6    1    1    2  501    0  0.16780609427E+03  0.12021999856E+03 -0.33787929400E+03  0.43209159983E+03  0.17300000000E+03 0. -1.
         -6    1    1    2    0  503 -0.16780609427E+03 -0.12021999856E+03 -0.50410631439E+03  0.57154519466E+03  0.17300000000E+03 0. -1.
</event>
<event>
 4    1  0.5943823E+000  0.1000000E+03  0.7546771E-02  0.1280296E+00
         21   -1    0    0  501  502  0.00000000000E+00  0.00000000000E+00  0.17561215430E+03  0.17561215430E+03  0.00000000000E+00 0.  1.
         21   -1    0    0  502  503 -0.00000000000E+00 -0.00000000000E+00 -0.20131770380E+04  0.20131770380E+04  0.00000000000E+00 0.  1.
          6    1    1    2  501    0 -0.17480366806E+03 -0.19841774036E+03  0.82644986723E+01  0.31610634918E+03  0.17300000000E+03 0.  1.
         -6    1    1    2    0  503  0.17480366806E+03  0.19841774036E+03 -0.18458293823E+04  0.18726828431E+04  0.17300000000E+03 0.  1.
</event>
<event>
 4    1  0.5943823E+000  0.1000000E+03  0.7546771E-02  0.1280296E+00
         21   -1    0    0  501  502  0.00000000000E+00  0.00000000000E+00  0.42743503158E+03  0.42743503158E+03  0.00000000000E+00 0.  1.
         21   -1    0    0  502  503 -0.00000000000E+00 -0.00000000000E+00 -0.80950298449E+02  0.80950298449E+02  0.00000000000E+00 0.  1.
          6    1    1    2  501    0  0.45714468649E+02 -0.38512411623E+02  0.21854386984E+03  0.28506743331E+03  0.17300000000E+03 0.  1.
         -6    1    1    2    0  503 -0.45714468649E+02  0.38512411623E+02  0.12794086330E+03  0.22331789672E+03  0.17300000000E+03 0.  1.
</event>
<event>
 4    1  0.5943823E+000  0.1000000E+03  0.7546771E-02  0.1280296E+00
         21   -1    0    0  503  502  0.00000000000E+00  0.00000000000E+00  0.27974031670E+03  0.27974031670E+03  0.00000000000E+00 0.  1.
         21   -1    0    0  501  503 -0.00000000000E+00 -0.00000000000E+00 -0.28076617516E+03  0.28076617516E+03  0.00000000000E+00 0.  1.
          6    1    1    2  501    0  0.87542739815E+02 -0.18071798234E+03  0.90536102018E+02  0.28008660483E+03  0.17300000000E+03 0.  1.
         -6    1    1    2    0  502 -0.87542739815E+02  0.18071798234E+03 -0.91561960481E+02  0.28041988703E+03  0.17300000000E+03 0.  1.
</event>
<event>
 4    1  0.5943823E+000  0.1000000E+03  0.7546771E-02  0.1280296E+00
         21   -1    0    0  503  502  0.00000000000E+00  0.00000000000E+00  0.26196291497E+03  0.26196291497E+03  0.00000000000E+00 0.  1.
         21   -1    0    0  501  503 -0.00000000000E+00 -0.00000000000E+00 -0.20972213050E+03  0.20972213050E+03  0.00000000000E+00 0.  1.
          6    1    1    2  501    0  0.12247553634E+03  0.38235405250E+02 -0.66908500960E+02  0.22553924430E+03  0.17300000000E+03 0.  1.
         -6    1    1    2    0  502 -0.12247553634E+03 -0.38235405250E+02  0.11914928543E+03  0.24614580118E+03  0.17300000000E+03 0.  1.
</event>
<event>
 4    1  0.5943823E+000  0.1000000E+03  0.7546771E-02  0.1280296E+00
         21   -1    0    0  501  502  0.00000000000E+00  0.00000000000E+00  0.31420978834E+03  0.31420978834E+03  0.00000000000E+00 0.  1.
         21   -1    0    0  502  503 -0.00000000000E+00 -0.00000000000E+00 -0.16820192019E+03  0.16820192019E+03  0.00000000000E+00 0. -1.
          6    1    1    2  501    0  0.11261491788E+03  0.10118816696E+03  0.72243797383E+02  0.24097578950E+03  0.17300000000E+03 0. -1.
         -6    1    1    2    0  503 -0.11261491788E+03 -0.10118816696E+03  0.73764070773E+02  0.24143591903E+03  0.17300000000E+03 0.  1.
</event>
<event>
 4    1  0.5943823E+000  0.1000000E+03  0.7546771E-02  0.1280296E+00
         21   -1    0    0  503  502  0.00000000000E+00  0.00000000000E+00  0.26982528807E+02  0.26982528807E+02  0.00000000000E+00 0. -1.
         21   -1    0    0  501  503 -0.00000000000E+00 -0.00000000000E+00 -0.25623301775E+04  0.25623301775E+04  0.00000000000E+00 0. -1.
          6    1    1    2  501    0 -0.13235832970E+03 -0.10269757219E+03 -0.17874411322E+04  0.18035909513E+04  0.17300000000E+03 0. -1.
         -6    1    1    2    0  502  0.13235832970E+03  0.10269757219E+03 -0.74790651654E+03  0.78572175499E+03  0.17300000000E+03 0. -1.
</event>
<event>
 4    1  0.5943823E+000  0.1000000E+03  0.7546771E-02  0.1280296E+00
         21   -1    0    0  503  502  0.00000000000E+00  0.00000000000E+00  0.51266688988E+03  0.51266688988E+03  0.00000000000E+00 0. -1.
         21   -1    0    0  501  503 -0.00000000000E+00 -0.00000000000E+00 -0.28869649413E+03  0.28869649413E+03  0.00000000000E+00 0. -1.
          6    1    1    2  501    0 -0.22117494677E+03 -0.90810267149E+02 -0.14506026580E+03  0.32884090745E+03  0.17300000000E+03 0. -1.
         -6    1    1    2    0  502  0.22117494677E+03  0.90810267149E+02  0.36903066154E+03  0.47252247656E+03  0.17300000000E+03 0. -1.
</event>
<event>
 4    1  0.5943823E+000  0.1000000E+03  0.7546771E-02  0.1280296E+00
         21   -1    0    0  503  502  0.00000000000E+00  0.00000000000E+00  0.49403150147E+03  0.49403150147E+03  0.00000000000E+00 0. -1.
         21   -1    0    0  501  503 -0.00000000000E+00 -0.00000000000E+00 -0.91197170368E+02  0.91197170368E+02  0.00000000000E+00 0. -1.
          6    1    1    2  501    0  0.85728607874E+02 -0.27350073194E+02  0.31698553109E+03  0.37216427506E+03  0.17300000000E+03 0. -1.
         -6    1    1    2    0  502 -0.85728607874E+02  0.27350073194E+02  0.85848800018E+02  0.21306439678E+03  0.17300000000E+03 0. -1.
</event>
<event>
 4    1  0.5943823E+000  0.1000000E+03  0.7546771E-02  0.1280296E+00
         21   -1    0    0  501  502  0.00000000000E+00  0.00000000000E+00  0.41098190922E+03  0.41098190922E+03  0.00000000000E+00 0. -1.
         21   -1    0    0  502  503 -0.00000000000E+00 -0.00000000000E+00 -0.13161851495E+03  0.13161851495E+03  0.00000000000E+00 0.  1.
          6    1    1    2  501    0 -0.73669773594E+02  0.30686260872E+02  0.29528851793E+03  0.35141597995E+03  0.17300000000E+03 0.  1.
         -6    1    1    2    0  503  0.73669773594E+02 -0.30686260872E+02 -0.15925123651E+02  0.19118444422E+03  0.17300000000E+03 0.  1.
</event>
<event>
 4    1  0.5943823E+000  0.1000000E+03  0.7546771E-02  0.1280296E+00
         21   -1    0    0  501  502  0.00000000000E+00  0.00000000000E+00  0.20777319346E+04  0.20777319346E+04  0.00000000000E+00 0. -1.
         21   -1    0    0  502  503 -0.00000000000E+00 -0.00000000000E+00 -0.80034538742E+02  0.80034538742E+02  0.00000000000E+00 0.  1.
          6    1    1    2  501    0  0.12491817972E+03 -0.11499953289E+03  0.18664287731E+04  0.18821038253E+04  0.17300000000E+03 0.  1.
         -6    1    1    2    0  503 -0.12491817972E+03  0.11499953289E+03  0.13126862272E+03  0.27566264799E+03  0.17300000000E+03 0.  1.
</event>
<event>
 4    1  0.5943823E+000  0.1000000E+03  0.7546771E-02  0.1280296E+00
         21   -1    0    0  501  502  0.00000000000E+00  0.00000000000E+00  0.15498620549E+04  0.15498620549E+04  0.00000000000E+00 0. -1.
         21   -1    0    0  502  503 -0.00000000000E+00 -0.00000000000E+00 -0.36741072717E+02  0.36741072717E+02  0.00000000000E+00 0. -1.
          6    1    1    2  501    0  0.40487667014E+02 -0.13968366017E+03  0.50199113385E+03  0.55052236518E+03  0.17300000000E+03 0. -1.
         -6    1    1    2    0  503 -0.40487667014E+02  0.13968366017E+03  0.10111298483E+04  0.10360807624E+04  0.17300000000E+03 0. -1.
</event>
<event>
 4    1  0.5943823E+000  0.1000000E+03  0.7546771E-02  0.1280296E+00
         21   -1    0    0  503  502  0.00000000000E+00  0.00000000000E+00  0.13713524729E+04  0.13713524729E+04  0.00000000000E+00 0.  1.
         21   -1    0    0  501  503 -0.00000000000E+00 -0.00000000000E+00 -0.11052779634E+03  0.11052779634E+03  0.00000000000E+00 0. -1.
          6    1    1    2  501    0  0.15844639093E+02 -0.20801039831E+03  0.98468752248E+02  0.28834783433E+03  0.17300000000E+03 0. -1.
         -6    1    1    2    0  502 -0.15844639093E+02  0.20801039831E+03  0.11623559243E+04  0.11935324349E+04  0.17300000000E+03 0.  1.
</event>
<event>
 4    1  0.5943823E+000  0.1000000E+03  0.7546771E-02  0.1280296E+00
         21   -1    0    0  503  502  0.00000000000E+00  0.00000000000E+00  0.35120789672E+03  0.35120789672E+03  0.00000000000E+00 0.  1.
         21   -1    0    0  501  503 -0.00000000000E+00 -0.00000000000E+00 -0.11150129673E+04  0.11150129673E+04  0.00000000000E+00 0. -1.
          6    1    1    2  501    0  0.10726692297E+03 -0.32384840779E+03 -0.96211330713E+03  0.10353622553E+04  0.17300000000E+03 0. -1.
         -6    1    1    2    0  502 -0.10726692297E+03  0.32384840779E+03  0.19830823656E+03  0.43085860868E+03  0.17300000000E+03 0.  1.
</event>
<event>
 4    1  0.5943823E+000  0.1000000E+03  0.7546771E-02  0.1280296E+00
         21   -1    0    0  501  502  0.00000000000E+00  0.00000000000E+00  0.18320068886E+03  0.18320068886E+03  0.00000000000E+00 0.  1.
         21   -1    0    0  502  503 -0.00000000000E+00 -0.00000000000E+00 -0.21003582076E+03  0.21003582076E+03  0.00000000000E+00 0. -1.
          6    1    1    2  501    0 -0.77497718593E+02  0.23196571999E+02  0.31472454718E+02  0.19355488303E+03  0.17300000000E+03 0.  1.
         -6    1    1    2    0  503  0.77497718593E+02 -0.23196571999E+02 -0.58307586615E+02  0.19968162659E+03  0.17300000000E+03 0. -1.
</event>
<event>
 4    1  0.5943823E+000  0.1000000E+03  0.7546771E-02  0.1280296E+00
         21   -1    0    0  501  502  0.00000000000E+00  0.00000000000E+00  0.48985444015E+03  0.48985444015E+03  0.00000000000E+00 0.  1.
         21   -1    0    0  502  503 -0.00000000000E+00 -0.00000000000E+00 -0.14832192183E+03  0.14832192183E+03  0.00000000000E+00 0. -1.
          6    1    1    2  501    0  0.13012085669E+03 -0.29077002270E+02  0.35775347186E+03  0.41915803229E+03  0.17300000000E+03 0.  1.
         -6    1    1    2    0  503 -0.13012085669E+03  0.29077002270E+02 -0.16220953536E+02  0.21901832969E+03  0.17300000000E+03 0. -1.
</event>
<event>
 4    1  0.5943823E+000  0.1000000E+03  0.7546771E-02  0.1280296E+00
         21   -1    0    0  501  502  0.00000000000E+00  0.00000000000E+00  0.55148558410E+03  0.55148558410E+03  0.00000000000E+00 0.  1.
         21   -1    0    0  502  503 -0.00000000000E+00 -0.00000000000E+00 -0.16227275964E+03  0.16227275964E+03  0.00000000000E+00 0.  1.
          6    1    1    2  501    0  0.83627547955E+02  0.14817496756E+03  0.40333509189E+03  0.47069903775E+03  0.17300000000E+03 0.  1.
         -6    1    1    2    0  503 -0.83627547955E+02 -0.14817496756E+03 -0.14122267430E+02  0.24305930599E+03  0.17300000000E+03 0.  1.
</event>
<event>
 4    1  0.5943823E+000  0.1000000E+03  0.7546771E-02  0.1280296E+00
         21   -1    0    0  503  502  0.00000000000E+00  0.00000000000E+00  0.13485173097E+04  0.13485173097E+04  0.00000000000E+00 0.  1.
         21   -1    0    0  501  503 -0.00000000000E+00 -0.00000000000E+00 -0.11995916772E+03  0.11995916772E+03  0.00000000000E+00 0.  1.
          6    1    1    2  501    0 -0.15477874777E+03 -0.13961276058E+03  0.71537403939E+02  0.28016920573E+03  0.17300000000E+03 0. -1.
         -6    1    1    2    0  502  0.15477874777E+03  0.13961276058E+03  0.11570207381E+04  0.11883072717E+04  0.17300000000E+03 0. -1.
</event>
<event>
 4    1  0.5943823E+000  0.1000000E+03  0.7546771E-02  0.1280296E+00
         21   -1    0    0  503  502  0.00000000000E+00  0.00000000000E+00  0.18243034557E+03  0.18243034557E+03  0.00000000000E+00 0.  1.
         21   -1    0    0  501  503 -0.00000000000E+00 -0.00000000000E+00 -0.29186083879E+03  0.29186083879E+03  0.00000000000E+00 0.  1.
          6    1    1    2  501    0  0.10489528956E+03  0.11060060594E+03 -0.63893612922E+02  0.23926326417E+03  0.17300000000E+03 0. -1.
         -6    1    1    2    0  502 -0.10489528956E+03 -0.11060060594E+03 -0.45536880293E+02  0.23502792020E+03  0.17300000000E+03 0. -1.
</event>
<event>
 4    1  0.5943823E+000  0.1000000E+03  0.7546771E-02  0.1280296E+00
         21   -1    0    0  501  502  0.00000000000E+00  0.00000000000E+00  0.77967813445E+02  0.77967813445E+02  0.00000000000E+00 0.  1.
         21   -1    0    0  502  503 -0.00000000000E+00 -0.00000000000E+00 -0.55047880167E+03  0.55047880167E+03  0.00000000000E+00 0.  1.
          6    1    1    2  501    0 -0.29209239445E+02 -0.19611040119E+02 -0.71825089595E+02  0.19059280170E+03  0.17300000000E+03 0.  1.
         -6    1    1    2    0  503  0.29209239445E+02  0.19611040119E+02 -0.40068589863E+03  0.43785381341E+03  0.17300000000E+03 0.  1.
</event>
<event>
 4    1  0.5943823E+000  0.1000000E+03  0.7546771E-02  0.1280296E+00
         21   -1    0    0  503  502  0.00000000000E+00  0.00000000000E+00  0.59590470092E+03  0.59590470092E+03  0.00000000000E+00 0. -1.
         21   -1    0    0  501  503 -0.00000000000E+00 -0.00000000000E+00 -0.78363963709E+02  0.78363963709E+02  0.00000000000E+00 0.  1.
          6    1    1    2  501    0  0.65718358018E+02 -0.29306886208E+02  0.90808604360E+02  0.20821382948E+03  0.17300000000E+03 0. -1.
         -6    1    1    2    0  502 -0.65718358018E+02  0.29306886208E+02  0.42673213285E+03  0.46605483515E+03  0.17300000000E+03 0. -1.
</event>
<event>
 4    1  0.5943823E+000  0.1000000E+03  0.7546771E-02  0.1280296E+00
         21   -1    0    0  501  502  0.00000000000E+00  0.00000000000E+00  0.30333735901E+03  0.30333735901E+03  0.00000000000E+00 0.  1.
         21   -1    0    0  502  503 -0.00000000000E+00 -0.00000000000E+00 -0.34797416631E+03  0.34797416631E+03  0.00000000000E+00 0. -1.
          6    1    1    2  501    0  0.45786682584E+02 -0.12298513985E+03  0.21991785424E+03  0.30905440871E+03  0.17300000000E+03 0.  1.
         -6    1    1    2    0  503 -0.45786682584E+02  0.12298513985E+03 -0.26455466154E+03  0.34225711661E+03  0.17300000000E+03 0. -1.
</event>
<event>
 4    1  0.5943823E+000  0.1000000E+03  0.7546771E-02  0.1280296E+00
         21   -1    0    0  501  502  0.00000000000E+00  0.00000000000E+00  0.50745204431E+03  0.50745204431E+03  0.00000000000E+00 0.  1.
         21   -1    0    0  502  503 -0.00000000000E+00 -0.00000000000E+00 -0.24861423364E+03  0.24861423364E+03  0.00000000000E+00 0. -1.
          6    1    1    2  501    0  0.26008527486E+03  0.14197772252E+03  0.22713175116E+03  0.41148494052E+03  0.17300000000E+03 0.  1.
         -6    1    1    2    0  503 -0.26008527486E+03 -0.14197772252E+03  0.31706059513E+02  0.34458133743E+03  0.17300000000E+03 0. -1.
</event>
<event>
 4    1  0.5943823E+000  0.1000000E+03  0.7546771E-02  0.1280296E+00
         21   -1    0    0  503  502  0.00000000000E+00  0.00000000000E+00  0.10298693477E+04  0.10298693477E+04  0.00000000000E+00 0.  1.
         21   -1    0    0  501  503 -0.00000000000E+00 -0.00000000000E+00 -0.52347902713E+02  0.52347902713E+02  0.00000000000E+00 0.  1.
          6    1    1    2  501    0 -0.10454927362E+02 -0.15277520301E+03  0.43496103501E+03  0.49251362431E+03  0.17300000000E+03 0. -1.
         -6    1    1    2    0  502  0.10454927362E+02  0.15277520301E+03  0.54256041001E+03  0.58970362613E+03  0.17300000000E+03 0. -1.
</event>
<event>
 4    1  0.5943823E+000  0.1000000E+03  0.7546771E-02  0.1280296E+00
         21   -1    0    0  503  502  0.00000000000E+00  0.00000000000E+00  0.64267572830E+03  0.64267572830E+03  0.00000000000E+00 0.  1.
         21   -1    0    0  501  503 -0.00000000000E+00 -0.00000000000E+00 -0.79390629931E+02  0.79390629931E+02  0.00000000000E+00 0.  1.
          6    1    1    2  501    0 -0.10295463460E+03 -0.53069982931E+02  0.14159605491E+03  0.25178268932E+03  0.17300000000E+03 0. -1.
         -6    1    1    2    0  502  0.10295463460E+03  0.53069982931E+02  0.42168904346E+03  0.47028366891E+03  0.17300000000E+03 0. -1.
</event>
<event>
 4    1  0.5943823E+000  0.1000000E+03  0.7546771E-02  0.1280296E+00
         21   -1    0    0  503  502  0.00000000000E+00  0.00000000000E+00  0.86255898746E+02  0.86255898746E+02  0.00000000000E+00 0.  1.
         21   -1    0    0  501  503 -0.00000000000E+00 -0.00000000000E+00 -0.16857532218E+04  0.16857532218E+04  0.00000000000E+00 0.  1.
          6    1    1    2  501    0 -0.12405727615E+03  0.15872193832E+03 -0.14356195348E+04  0.14599709964E+04  0.17300000000E+03 0. -1.
         -6    1    1    2    0  502  0.12405727615E+03 -0.15872193832E+03 -0.16387778824E+03  0.31203812419E+03  0.17300000000E+03 0. -1.
</event>
<event>
 4    1  0.5943823E+000  0.1000000E+03  0.7546771E-02  0.1280296E+00
         21   -1    0    0  501  502  0.00000000000E+00  0.00000000000E+00  0.17134467578E+04  0.17134467578E+04  0.00000000000E+00 0.  1.
         21   -1    0    0  502  503 -0.00000000000E+00 -0.00000000000E+00 -0.89027663330E+02  0.89027663330E+02  0.00000000000E+00 0.  1.
          6    1    1    2  501    0 -0.69772690566E+02  0.61282114443E+02  0.15912812514E+04  0.16033492280E+04  0.17300000000E+03 0.  1.
         -6    1    1    2    0  503  0.69772690566E+02 -0.61282114443E+02  0.33137843092E+02  0.19912519314E+03  0.17300000000E+03 0.  1.
</event>
<event>
 4    1  0.5943823E+000  0.1000000E+03  0.7546771E-02  0.1280296E+00
         21   -1    0    0  501  502  0.00000000000E+00  0.00000000000E+00  0.70781419447E+03  0.70781419447E+03  0.00000000000E+00 0.  1.
         21   -1    0    0  502  503 -0.00000000000E+00 -0.00000000000E+00 -0.83422662190E+02  0.83422662190E+02  0.00000000000E+00 0.  1.
          6    1    1    2  501    0  0.12298589777E+03 -0.88035967538E+02  0.44083321345E+03  0.49713055098E+03  0.17300000000E+03 0.  1.
         -6    1    1    2    0  503 -0.12298589777E+03  0.88035967538E+02  0.18355831883E+03  0.29410630568E+03  0.17300000000E+03 0.  1.
</event>
<event>
 4    1  0.5943823E+000  0.1000000E+03  0.7546771E-02  0.1280296E+00
         21   -1    0    0  501  502  0.00000000000E+00  0.00000000000E+00  0.51289476971E+03  0.51289476971E+03  0.00000000000E+00 0.  1.
         21   -1    0    0  502  503 -0.00000000000E+00 -0.00000000000E+00 -0.12222943120E+03  0.12222943120E+03  0.00000000000E+00 0.  1.
          6    1    1    2  501    0 -0.87341220722E+01  0.17715200696E+03  0.14955520202E+03  0.28940434846E+03  0.17300000000E+03 0.  1.
         -6    1    1    2    0  503  0.87341220722E+01 -0.17715200696E+03  0.24111013649E+03  0.34571985244E+03  0.17300000000E+03 0.  1.
</event>
<event>
 4    1  0.5943823E+000  0.1000000E+03  0.7546771E-02  0.1280296E+00
         21   -1    0    0  501  502  0.00000000000E+00  0.00000000000E+00  0.93569196382E+03  0.93569196382E+03  0.00000000000E+00 0.  1.
         21   -1    0    0  502  503 -0.00000000000E+00 -0.00000000000E+00 -0.78095337116E+02  0.78095337116E+02  0.00000000000E+00 0.  1.
          6    1    1    2  501    0  0.12317205857E+03 -0.13700993506E+03  0.60866790516E+03  0.65905136150E+03  0.17300000000E+03 0.  1.
         -6    1    1    2    0  503 -0.12317205857E+03  0.13700993506E+03  0.24892872154E+03  0.35473593944E+03  0.17300000000E+03 0.  1.
</event>
<event>
 4    1  0.5943823E+000  0.1000000E+03  0.7546771E-02  0.1280296E+00
         21   -1    0    0  503  502  0.00000000000E+00  0.00000000000E+00  0.11625815911E+04  0.11625815911E+04  0.00000000000E+00 0.  1.
         21   -1    0    0  501  503 -0.00000000000E+00 -0.00000000000E+00 -0.33780729475E+02  0.33780729475E+02  0.00000000000E+00 0.  1.
          6    1    1    2  501    0  0.87835340989E+02 -0.28113847724E+02  0.65180154438E+03  0.68064652267E+03  0.17300000000E+03 0.  1.
         -6    1    1    2    0  502 -0.87835340989E+02  0.28113847724E+02  0.47699931723E+03  0.51571579789E+03  0.17300000000E+03 0.  1.
</event>
<event>
 4    1  0.5943823E+000  0.1000000E+03  0.7546771E-02  0.1280296E+00
         21   -1    0    0  503  502  0.00000000000E+00  0.00000000000E+00  0.81483725973E+03  0.81483725973E+03  0.00000000000E+00 0. -1.
         21   -1    0    0  501  503 -0.00000000000E+00 -0.00000000000E+00 -0.60182646892E+02  0.60182646892E+02  0.00000000000E+00 0.  1.
          6    1    1    2  501    0 -0.12832545363E+03  0.11240977595E+02  0.27822210155E+03  0.35203738355E+03  0.17300000000E+03 0.  1.
         -6    1    1    2    0  502  0.12832545363E+03 -0.11240977595E+02  0.47643251129E+03  0.52298252307E+03  0.17300000000E+03 0. -1.
</event>
<event>
 4    1  0.5943823E+000  0.1000000E+03  0.7546771E-02  0.1280296E+00
         21   -1    0    0  501  502  0.00000000000E+00  0.00000000000E+00  0.76149815245E+02  0.76149815245E+02  0.00000000000E+00 0.  1.
         21   -1    0    0  502  503 -0.00000000000E+00 -0.00000000000E+00 -0.86847838528E+03  0.86847838528E+03  0.00000000000E+00 0.  1.
          6    1    1    2  501    0 -0.15660107572E+03 -0.14574210815E+02 -0.19947402284E+03  0.30733563140E+03  0.17300000000E+03 0.  1.
         -6    1    1    2    0  503  0.15660107572E+03  0.14574210815E+02 -0.59285454719E+03  0.63729256913E+03  0.17300000000E+03 0.  1.
</event>
<event>
 4    1  0.5943823E+000  0.1000000E+03  0.7546771E-02  0.1280296E+00
         21   -1    0    0  501  502  0.00000000000E+00  0.00000000000E+00  0.34159019424E+03  0.34159019424E+03  0.00000000000E+00 0.  1.
         21   -1    0    0  502  503 -0.00000000000E+00 -0.00000000000E+00 -0.34976792887E+03  0.34976792887E+03  0.00000000000E+00 0.  1.
          6    1    1    2  501    0  0.24883883172E+02  0.12006305568E+03  0.26890266507E+03  0.34244997921E+03  0.17300000000E+03 0.  1.
         -6    1    1    2    0  503 -0.24883883172E+02 -0.12006305568E+03 -0.27708039969E+03  0.34890814389E+03  0.17300000000E+03 0.  1.
</event>
<event>
 4    1  0.5943823E+000  0.1000000E+03  0.7546771E-02  0.1280296E+00
         21   -1    0    0  503  502  0.00000000000E+00  0.00000000000E+00  0.21369726815E+03  0.21369726815E+03  0.00000000000E+00 0.  1.
         21   -1    0    0  501  503 -0.00000000000E+00 -0.00000000000E+00 -0.27785076096E+03  0.27785076096E+03  0.00000000000E+00 0.  1.
          6    1    1    2  501    0 -0.97877029646E+02  0.27338611684E+02 -0.17154343597E+03  0.26397625470E+03  0.17300000000E+03 0.  1.
         -6    1    1    2    0  502  0.97877029646E+02 -0.27338611684E+02  0.10738994316E+03  0.22757177442E+03  0.17300000000E+03 0.  1.
</event>
<event>
 4    1  0.5943823E+000  0.1000000E+03  0.7546771E-02  0.1280296E+00
         21   -1    0    0  503  502  0.00000000000E+00  0.00000000000E+00  0.10914399443E+04  0.10914399443E+04  0.00000000000E+00 0. -1.
         21   -1    0    0  501  503 -0.00000000000E+00 -0.00000000000E+00 -0.52759354865E+02  0.52759354865E+02  0.00000000000E+00 0.  1.
          6    1    1    2  501    0 -0.13652327131E+03  0.80576219973E+02  0.39957615012E+03  0.46338022247E+03  0.17300000000E+03 0.  1.
         -6    1    1    2    0  502  0.13652327131E+03 -0.80576219973E+02  0.63910443932E+03  0.68081907670E+03  0.17300000000E+03 0. -1.
</event>
<event>
 4    1  0.5943823E+000  0.1000000E+03  0.7546771E-02  0.1280296E+00
         21   -1    0    0  503  502  0.00000000000E+00  0.00000000000E+00  0.18615198525E+03  0.18615198525E+03  0.00000000000E+00 0. -1.
         21   -1    0    0  501  503 -0.00000000000E+00 -0.00000000000E+00 -0.55445730992E+03  0.55445730992E+03  0.00000000000E+00 0.  1.
          6    1    1    2  501    0 -0.14780488910E+02  0.77918577975E+02 -0.48249235899E+03  0.51866910852E+03  0.17300000000E+03 0.  1.
         -6    1    1    2    0  502  0.14780488910E+02 -0.77918577975E+02  0.11418703432E+03  0.22194018666E+03  0.17300000000E+03 0. -1.
</event>
<event>
 4    1  0.5943823E+000  0.1000000E+03  0.7546771E-02  0.1280296E+00
         21   -1    0    0  503  502  0.00000000000E+00  0.00000000000E+00  0.16118811396E+04  0.16118811396E+04  0.00000000000E+00 0. -1.
         21   -1    0    0  501  503 -0.00000000000E+00 -0.00000000000E+00 -0.15418293791E+03  0.15418293791E+03  0.00000000000E+00 0.  1.
          6    1    1    2  501    0 -0.88966136914E+02  0.12180492425E+03 -0.55026424758E+02  0.23602610133E+03  0.17300000000E+03 0.  1.
         -6    1    1    2    0  502  0.88966136914E+02 -0.12180492425E+03  0.15127246264E+04  0.15300379761E+04  0.17300000000E+03 0. -1.
</event>
<event>
 4    1  0.5943823E+000  0.1000000E+03  0.7546771E-02  0.1280296E+00
         21   -1    0    0  503  502  0.00000000000E+00  0.00000000000E+00  0.26852930728E+03  0.26852930728E+03  0.00000000000E+00 0. -1.
         21   -1    0    0  501  503 -0.00000000000E+00 -0.00000000000E+00 -0.28865107957E+03  0.28865107957E+03  0.00000000000E+00 0.  1.
          6    1    1    2  501    0  0.13808986243E+03 -0.10454537298E+03 -0.14275109600E+03  0.28338211046E+03  0.17300000000E+03 0.  1.
         -6    1    1    2    0  502 -0.13808986243E+03  0.10454537298E+03  0.12262932372E+03  0.27379827639E+03  0.17300000000E+03 0.  1.
</event>
<event>
 4    1  0.5943823E+000  0.1000000E+03  0.7546771E-02  0.1280296E+00
         21   -1    0    0  503  502  0.00000000000E+00  0.00000000000E+00  0.49410482987E+02  0.49410482987E+02  0.00000000000E+00 0. -1.
         21   -1    0    0  501  503 -0.00000000000E+00 -0.00000000000E+00 -0.25965340169E+04  0.25965340169E+04  0.00000000000E+00 0.  1.
          6    1    1    2  501    0  0.93446979068E+02  0.12498099192E+03 -0.22784142922E+04  0.22902954554E+04  0.17300000000E+03 0.  1.
         -6    1    1    2    0  502 -0.93446979068E+02 -0.12498099192E+03 -0.26870924168E+03  0.35564904443E+03  0.17300000000E+03 0.  1.
</event>
<event>
 4    1  0.5943823E+000  0.1000000E+03  0.7546771E-02  0.1280296E+00
         21   -1    0    0  501  502  0.00000000000E+00  0.00000000000E+00  0.13019263661E+04  0.13019263661E+04  0.00000000000E+00 0. -1.
         21   -1    0    0  502  503 -0.00000000000E+00 -0.00000000000E+00 -0.56654536920E+02  0.56654536920E+02  0.00000000000E+00 0.  1.
          6    1    1    2  501    0  0.72152052502E+02 -0.74457533186E+02  0.10775564375E+04  0.10962694554E+04  0.17300000000E+03 0. -1.
         -6    1    1    2    0  503 -0.72152052502E+02  0.74457533186E+02  0.16771539169E+03  0.26231144760E+03  0.17300000000E+03 0.  1.
</event>
<event>
 4    1  0.5943823E+000  0.1000000E+03  0.7546771E-02  0.1280296E+00
         21   -1    0    0  501  502  0.00000000000E+00  0.00000000000E+00  0.24451878100E+03  0.24451878100E+03  0.00000000000E+00 0. -1.
         21   -1    0    0  502  503 -0.00000000000E+00 -0.00000000000E+00 -0.46815179915E+03  0.46815179915E+03  0.00000000000E+00 0.  1.
          6    1    1    2  501    0 -0.90268230673E+02 -0.26410289546E+03 -0.19766470927E+03  0.38327409272E+03  0.17300000000E+03 0. -1.
         -6    1    1    2    0  503  0.90268230673E+02  0.26410289546E+03 -0.25968308874E+02  0.32939648742E+03  0.17300000000E+03 0.  1.
</event>
<event>
 4    1  0.5943823E+000  0.1000000E+03  0.7546771E-02  0.1280296E+00
         21   -1    0    0  501  502  0.00000000000E+00  0.00000000000E+00  0.14661801951E+03  0.14661801951E+03  0.00000000000E+00 0.  1.
         21   -1    0    0  502  503 -0.00000000000E+00 -0.00000000000E+00 -0.31339719189E+03  0.31339719189E+03  0.00000000000E+00 0.  1.
          6    1    1    2  501    0 -0.92269732244E+02  0.61486990362E+02 -0.17889605816E+02  0.20626049420E+03  0.17300000000E+03 0.  1.
         -6    1    1    2    0  503  0.92269732244E+02 -0.61486990362E+02 -0.14888956657E+03  0.25375471721E+03  0.17300000000E+03 0.  1.
</event>
<event>
 4    1  0.5943823E+000  0.1000000E+03  0.7546771E-02  0.1280296E+00
         21   -1    0    0  501  502  0.00000000000E+00  0.00000000000E+00  0.24595141220E+03  0.24595141220E+03  0.00000000000E+00 0.  1.
         21   -1    0    0  502  503 -0.00000000000E+00 -0.00000000000E+00 -0.37729590276E+03  0.37729590276E+03  0.00000000000E+00 0.  1.
          6    1    1    2  501    0  0.15066352785E+03  0.16523685246E+02  0.13865372298E+03  0.26856355988E+03  0.17300000000E+03 0.  1.
         -6    1    1    2    0  503 -0.15066352785E+03 -0.16523685246E+02 -0.26999821355E+03  0.35468375508E+03  0.17300000000E+03 0.  1.
</event>
<event>
 4    1  0.5943823E+000  0.1000000E+03  0.7546771E-02  0.1280296E+00
         21   -1    0    0  501  502  0.00000000000E+00  0.00000000000E+00  0.16849454477E+03  0.16849454477E+03  0.00000000000E+00 0.  1.
         21   -1    0    0  502  503 -0.00000000000E+00 -0.00000000000E+00 -0.20945330045E+03  0.20945330045E+03  0.00000000000E+00 0.  1.
          6    1    1    2  501    0 -0.54402529141E+02 -0.35306277384E+02  0.13730485085E+02  0.18526655019E+03  0.17300000000E+03 0.  1.
         -6    1    1    2    0  503  0.54402529141E+02  0.35306277384E+02 -0.54689240758E+02  0.19268129503E+03  0.17300000000E+03 0.  1.
</event>
<event>
 4    1  0.5943823E+000  0.1000000E+03  0.7546771E-02  0.1280296E+00
         21   -1    0    0  501  502  0.00000000000E+00  0.00000000000E+00  0.12082956369E+03  0.12082956369E+03  0.00000000000E+00 0.  1.
         21   -1    0    0  502  503 -0.00000000000E+00 -0.00000000000E+00 -0.89979761359E+03  0.89979761359E+03  0.00000000000E+00 0.  1.
          6    1    1    2  501    0  0.36894886042E+02  0.10024563250E+02  0.40899984703E+02  0.18183380663E+03  0.17300000000E+03 0.  1.
         -6    1    1    2    0  503 -0.36894886042E+02 -0.10024563250E+02 -0.81986803460E+03  0.83879337065E+03  0.17300000000E+03 0.  1.
</event>
<event>
 4    1  0.5943823E+000  0.1000000E+03  0.7546771E-02  0.1280296E+00
         21   -1    0    0  501  502  0.00000000000E+00  0.00000000000E+00  0.29030901372E+02  0.29030901372E+02  0.00000000000E+00 0. -1.
         21   -1    0    0  502  503 -0.00000000000E+00 -0.00000000000E+00 -0.14829004897E+04  0.14829004897E+04  0.00000000000E+00 0. -1.
          6    1    1    2  501    0 -0.37854300361E+02  0.39923597808E+02 -0.36087709774E+03  0.40396549530E+03  0.17300000000E+03 0. -1.
         -6    1    1    2    0  503  0.37854300361E+02 -0.39923597808E+02 -0.10929924906E+04  0.11079658958E+04  0.17300000000E+03 0. -1.
</event>
<event>
 4    1  0.5943823E+000  0.1000000E+03  0.7546771E-02  0.1280296E+00
         21   -1    0    0  501  502  0.00000000000E+00  0.00000000000E+00  0.11532648924E+03  0.11532648924E+03  0.00000000000E+00 0. -1.
         21   -1    0    0  502  503 -0.00000000000E+00 -0.00000000000E+00 -0.32506954934E+03  0.32506954934E+03  0.00000000000E+00 0. -1.
          6    1    1    2  501    0 -0.13763728511E+02  0.28797855428E+02 -0.19685190824E+03  0.26400460314E+03  0.17300000000E+03 0. -1.
         -6    1    1    2    0  503  0.13763728511E+02 -0.28797855428E+02 -0.12891151859E+02  0.17639143544E+03  0.17300000000E+03 0. -1.
</event>
<event>
 4    1  0.5943823E+000  0.1000000E+03  0.7546771E-02  0.1280296E+00
         21   -1    0    0  501  502  0.00000000000E+00  0.00000000000E+00  0.15711384366E+04  0.15711384366E+04  0.00000000000E+00 0. -1.
         21   -1    0    0  502  503 -0.00000000000E+00 -0.00000000000E+00 -0.41978441079E+02  0.41978441079E+02  0.00000000000E+00 0. -1.
          6    1    1    2  501    0  0.11456267007E+02 -0.36586430345E+02  0.13483902550E+04  0.13599834899E+04  0.17300000000E+03 0. -1.
         -6    1    1    2    0  503 -0.11456267007E+02  0.36586430345E+02  0.18076974055E+03  0.25313338783E+03  0.17300000000E+03 0. -1.
</event>
<event>
 4    1  0.5943823E+000  0.1000000E+03  0.7546771E-02  0.1280296E+00
         21   -1    0    0  503  502  0.00000000000E+00  0.00000000000E+00  0.14652750263E+03  0.14652750263E+03  0.00000000000E+00 0.  1.
         21   -1    0    0  501  503 -0.00000000000E+00 -0.00000000000E+00 -0.25487483012E+03  0.25487483012E+03  0.00000000000E+00 0.  1.
          6    1    1    2  501    0 -0.53767835255E+02 -0.44261356419E+02 -0.10679360015E+03  0.21490444577E+03  0.17300000000E+03 0.  1.
         -6    1    1    2    0  502  0.53767835255E+02  0.44261356419E+02 -0.15537273358E+01  0.18649788698E+03  0.17300000000E+03 0.  1.
</event>
<event>
 4    1  0.5943823E+000  0.1000000E+03  0.7546771E-02  0.1280296E+00
         21   -1    0    0  501  502  0.00000000000E+00  0.00000000000E+00  0.16622559132E+03  0.16622559132E+03  0.00000000000E+00 0. -1.
         21   -1    0    0  502  503 -0.00000000000E+00 -0.00000000000E+00 -0.65556343885E+03  0.65556343885E+03  0.00000000000E+00 0. -1.
          6    1    1    2  501    0 -0.24060967819E+03  0.14003981195E+03 -0.19585001370E+03  0.38182508304E+03  0.17300000000E+03 0. -1.
         -6    1    1    2    0  503  0.24060967819E+03 -0.14003981195E+03 -0.29348783383E+03  0.43996394713E+03  0.17300000000E+03 0. -1.
</event>
<event>
 4    1  0.5943823E+000  0.1000000E+03  0.7546771E-02  0.1280296E+00
         21   -1    0    0  501  502  0.00000000000E+00  0.00000000000E+00  0.36118051269E+03  0.36118051269E+03  0.00000000000E+00 0. -1.
         21   -1    0    0  502  503 -0.00000000000E+00 -0.00000000000E+00 -0.33223485851E+03  0.33223485851E+03  0.00000000000E+00 0. -1.
          6    1    1    2  501    0  0.56263331313E+02  0.86718126190E+02  0.29646702522E+03  0.35847913873E+03  0.17300000000E+03 0. -1.
         -6    1    1    2    0  503 -0.56263331313E+02 -0.86718126190E+02 -0.26752137104E+03  0.33493623248E+03  0.17300000000E+03 0. -1.
</event>
<event>
 4    1  0.5943823E+000  0.1000000E+03  0.7546771E-02  0.1280296E+00
         21   -1    0    0  501  502  0.00000000000E+00  0.00000000000E+00  0.39763161826E+03  0.39763161826E+03  0.00000000000E+00 0. -1.
         21   -1    0    0  502  503 -0.00000000000E+00 -0.00000000000E+00 -0.79546819943E+02  0.79546819943E+02  0.00000000000E+00 0. -1.
          6    1    1    2  501    0 -0.38729644373E+02 -0.13953482482E+02  0.15558404246E+03  0.23628389555E+03  0.17300000000E+03 0. -1.
         -6    1    1    2    0  503  0.38729644373E+02  0.13953482482E+02  0.16250075585E+03  0.24089454265E+03  0.17300000000E+03 0. -1.
</event>
<event>
 4    1  0.5943823E+000  0.1000000E+03  0.7546771E-02  0.1280296E+00
         21   -1    0    0  501  502  0.00000000000E+00  0.00000000000E+00  0.27652103025E+03  0.27652103025E+03  0.00000000000E+00 0. -1.
         21   -1    0    0  502  503 -0.00000000000E+00 -0.00000000000E+00 -0.63584788597E+03  0.63584788597E+03  0.00000000000E+00 0. -1.
          6    1    1    2  501    0  0.27713149628E+03  0.17618028143E+02  0.10566409246E+03  0.34381122958E+03  0.17300000000E+03 0. -1.
         -6    1    1    2    0  503 -0.27713149628E+03 -0.17618028143E+02 -0.46499094818E+03  0.56855768664E+03  0.17300000000E+03 0. -1.
</event>
<event>
 4    1  0.5943823E+000  0.1000000E+03  0.7546771E-02  0.1280296E+00
         21   -1    0    0  501  502  0.00000000000E+00  0.00000000000E+00  0.42445945924E+02  0.42445945924E+02  0.00000000000E+00 0. -1.
         21   -1    0    0  502  503 -0.00000000000E+00 -0.00000000000E+00 -0.22592214544E+04  0.22592214544E+04  0.00000000000E+00 0. -1.
          6    1    1    2  501    0 -0.79311397095E+02  0.13089046398E+03 -0.34185619931E+03  0.41257395976E+03  0.17300000000E+03 0. -1.
         -6    1    1    2    0  503  0.79311397095E+02 -0.13089046398E+03 -0.18749193092E+04  0.18890934406E+04  0.17300000000E+03 0. -1.
</event>
<event>
 4    1  0.5943823E+000  0.1000000E+03  0.7546771E-02  0.1280296E+00
         21   -1    0    0  501  502  0.00000000000E+00  0.00000000000E+00  0.28998813704E+03  0.28998813704E+03  0.00000000000E+00 0. -1.
         21   -1    0    0  502  503 -0.00000000000E+00 -0.00000000000E+00 -0.30684305423E+03  0.30684305423E+03  0.00000000000E+00 0. -1.
          6    1    1    2  501    0  0.18506328974E+02  0.17041615142E+03  0.16388440031E+03  0.29354939200E+03  0.17300000000E+03 0. -1.
         -6    1    1    2    0  503 -0.18506328974E+02 -0.17041615142E+03 -0.18073931750E+03  0.30328179927E+03  0.17300000000E+03 0. -1.
</event>
<event>
 4    1  0.5943823E+000  0.1000000E+03  0.7546771E-02  0.1280296E+00
         21   -1    0    0  503  502  0.00000000000E+00  0.00000000000E+00  0.25486319448E+03  0.25486319448E+03  0.00000000000E+00 0. -1.
         21   -1    0    0  501  503 -0.00000000000E+00 -0.00000000000E+00 -0.35196432819E+03  0.35196432819E+03  0.00000000000E+00 0.  1.
          6    1    1    2  501    0  0.13981642505E+02  0.49719060731E+02 -0.29063916189E+03  0.34215141933E+03  0.17300000000E+03 0.  1.
         -6    1    1    2    0  502 -0.13981642505E+02 -0.49719060731E+02  0.19353802818E+03  0.26467610334E+03  0.17300000000E+03 0. -1.
</event>
<event>
 4    1  0.5943823E+000  0.1000000E+03  0.7546771E-02  0.1280296E+00
         21   -1    0    0  501  502  0.00000000000E+00  0.00000000000E+00  0.20137012941E+03  0.20137012941E+03  0.00000000000E+00 0. -1.
         21   -1    0    0  502  503 -0.00000000000E+00 -0.00000000000E+00 -0.24485901485E+03  0.24485901485E+03  0.00000000000E+00 0. -1.
          6    1    1    2  501    0 -0.57898481161E+02  0.11029223026E+03  0.40695224361E+02  0.21702928711E+03  0.17300000000E+03 0. -1.
         -6    1    1    2    0  503  0.57898481161E+02 -0.11029223026E+03 -0.84184109802E+02  0.22919985715E+03  0.17300000000E+03 0. -1.
</event>
<event>
 4    1  0.5943823E+000  0.1000000E+03  0.7546771E-02  0.1280296E+00
         21   -1    0    0  501  502  0.00000000000E+00  0.00000000000E+00  0.21850795598E+03  0.21850795598E+03  0.00000000000E+00 0.  1.
         21   -1    0    0  502  503 -0.00000000000E+00 -0.00000000000E+00 -0.19512019972E+03  0.19512019972E+03  0.00000000000E+00 0. -1.
          6    1    1    2  501    0  0.20499393370E+02  0.96314351561E+01  0.12229421593E+03  0.21306774726E+03  0.17300000000E+03 0.  1.
         -6    1    1    2    0  503 -0.20499393370E+02 -0.96314351561E+01 -0.98906459671E+02  0.20056040845E+03  0.17300000000E+03 0. -1.
</event>
<event>
 4    1  0.5943823E+000  0.1000000E+03  0.7546771E-02  0.1280296E+00
         21   -1    0    0  501  502  0.00000000000E+00  0.00000000000E+00  0.18617460313E+03  0.18617460313E+03  0.00000000000E+00 0. -1.
         21   -1    0    0  502  503 -0.00000000000E+00 -0.00000000000E+00 -0.56237955024E+03  0.56237955024E+03  0.00000000000E+00 0. -1.
          6    1    1    2  501    0  0.10195836888E+03  0.13459045948E+03  0.60685276060E+02  0.24924245926E+03  0.17300000000E+03 0. -1.
         -6    1    1    2    0  503 -0.10195836888E+03 -0.13459045948E+03 -0.43689022318E+03  0.49931169411E+03  0.17300000000E+03 0. -1.
</event>
<event>
 4    1  0.5943823E+000  0.1000000E+03  0.7546771E-02  0.1280296E+00
         21   -1    0    0  501  502  0.00000000000E+00  0.00000000000E+00  0.60483497661E+03  0.60483497661E+03  0.00000000000E+00 0. -1.
         21   -1    0    0  502  503 -0.00000000000E+00 -0.00000000000E+00 -0.38589327143E+03  0.38589327143E+03  0.00000000000E+00 0. -1.
          6    1    1    2  501    0  0.10327791062E+03  0.57062949998E+02  0.55588162746E+03  0.59401674289E+03  0.17300000000E+03 0. -1.
         -6    1    1    2    0  503 -0.10327791062E+03 -0.57062949998E+02 -0.33693992229E+03  0.39671150515E+03  0.17300000000E+03 0. -1.
</event>
<event>
 4    1  0.5943823E+000  0.1000000E+03  0.7546771E-02  0.1280296E+00
         21   -1    0    0  501  502  0.00000000000E+00  0.00000000000E+00  0.13304198830E+04  0.13304198830E+04  0.00000000000E+00 0.  1.
         21   -1    0    0  502  503 -0.00000000000E+00 -0.00000000000E+00 -0.49207064507E+02  0.49207064507E+02  0.00000000000E+00 0.  1.
          6    1    1    2  501    0  0.90626545611E+02 -0.70641405124E+01  0.10858502011E+04  0.11032963030E+04  0.17300000000E+03 0. -1.
         -6    1    1    2    0  503 -0.90626545611E+02  0.70641405124E+01  0.19536261738E+03  0.27633064456E+03  0.17300000000E+03 0. -1.
</event>
<event>
 4    1  0.5943823E+000  0.1000000E+03  0.7546771E-02  0.1280296E+00
         21   -1    0    0  501  502  0.00000000000E+00  0.00000000000E+00  0.48074622536E+03  0.48074622536E+03  0.00000000000E+00 0.  1.
         21   -1    0    0  502  503 -0.00000000000E+00 -0.00000000000E+00 -0.19289527832E+03  0.19289527832E+03  0.00000000000E+00 0.  1.
          6    1    1    2  501    0 -0.80093627881E+02  0.18025558846E+02  0.40581920976E+03  0.44872947419E+03  0.17300000000E+03 0. -1.
         -6    1    1    2    0  503  0.80093627881E+02 -0.18025558846E+02 -0.11796826271E+03  0.22491202948E+03  0.17300000000E+03 0. -1.
</event>
<event>
 4    1  0.5943823E+000  0.1000000E+03  0.7546771E-02  0.1280296E+00
         21   -1    0    0  501  502  0.00000000000E+00  0.00000000000E+00  0.10129275400E+03  0.10129275400E+03  0.00000000000E+00 0.  1.
         21   -1    0    0  502  503 -0.00000000000E+00 -0.00000000000E+00 -0.55108025401E+03  0.55108025401E+03  0.00000000000E+00 0.  1.
          6    1    1    2  501    0 -0.42016614619E+02 -0.15532154709E+03 -0.22644206475E+03  0.32725401080E+03  0.17300000000E+03 0. -1.
         -6    1    1    2    0  503  0.42016614619E+02  0.15532154709E+03 -0.22334543526E+03  0.32511899721E+03  0.17300000000E+03 0. -1.
</event>
<event>
 4    1  0.5943823E+000  0.1000000E+03  0.7546771E-02  0.1280296E+00
         21   -1    0    0  503  502  0.00000000000E+00  0.00000000000E+00  0.13385546393E+03  0.13385546393E+03  0.00000000000E+00 0.  1.
         21   -1    0    0  501  503 -0.00000000000E+00 -0.00000000000E+00 -0.26624071809E+03  0.26624071809E+03  0.00000000000E+00 0.  1.
          6    1    1    2  501    0 -0.60590783978E+02  0.43687627306E+02 -0.54160449079E+02  0.19606684097E+03  0.17300000000E+03 0.  1.
         -6    1    1    2    0  502  0.60590783978E+02 -0.43687627306E+02 -0.78224805075E+02  0.20402934106E+03  0.17300000000E+03 0.  1.
</event>
<event>
 4    1  0.5943823E+000  0.1000000E+03  0.7546771E-02  0.1280296E+00
         21   -1    0    0  501  502  0.00000000000E+00  0.00000000000E+00  0.40469270600E+02  0.40469270600E+02  0.00000000000E+00 0. -1.
         21   -1    0    0  502  503 -0.00000000000E+00 -0.00000000000E+00 -0.10065149763E+04  0.10065149763E+04  0.00000000000E+00 0.  1.
          6    1    1    2  501    0 -0.27981134685E+02 -0.96789676373E+02 -0.41675422409E+03  0.46234648117E+03  0.17300000000E+03 0. -1.
         -6    1    1    2    0  503  0.27981134685E+02  0.96789676373E+02 -0.54929148158E+03  0.58463776571E+03  0.17300000000E+03 0.  1.
</event>
<event>
 4    1  0.5943823E+000  0.1000000E+03  0.7546771E-02  0.1280296E+00
         21   -1    0    0  501  502  0.00000000000E+00  0.00000000000E+00  0.22413468719E+03  0.22413468719E+03  0.00000000000E+00 0. -1.
         21   -1    0    0  502  503 -0.00000000000E+00 -0.00000000000E+00 -0.84188459077E+03  0.84188459077E+03  0.00000000000E+00 0. -1.
          6    1    1    2  501    0  0.34999509077E+03  0.25834540936E+02 -0.77351593853E+02  0.39884364874E+03  0.17300000000E+03 0. -1.
         -6    1    1    2    0  503 -0.34999509077E+03 -0.25834540936E+02 -0.54039830973E+03  0.66717562922E+03  0.17300000000E+03 0. -1.
</event>
<event>
 4    1  0.5943823E+000  0.1000000E+03  0.7546771E-02  0.1280296E+00
         21   -1    0    0  501  502  0.00000000000E+00  0.00000000000E+00  0.42906944669E+02  0.42906944669E+02  0.00000000000E+00 0. -1.
         21   -1    0    0  502  503 -0.00000000000E+00 -0.00000000000E+00 -0.22714888829E+04  0.22714888829E+04  0.00000000000E+00 0. -1.
          6    1    1    2  501    0 -0.43581508817E+02 -0.39283615559E+02 -0.17589227836E+03  0.25359346196E+03  0.17300000000E+03 0. -1.
         -6    1    1    2    0  503  0.43581508817E+02  0.39283615559E+02 -0.20526896599E+04  0.20608023656E+04  0.17300000000E+03 0. -1.
</event>
<event>
 4    1  0.5943823E+000  0.1000000E+03  0.7546771E-02  0.1280296E+00
         21   -1    0    0  501  502  0.00000000000E+00  0.00000000000E+00  0.75206897993E+03  0.75206897993E+03  0.00000000000E+00 0. -1.
         21   -1    0    0  502  503 -0.00000000000E+00 -0.00000000000E+00 -0.31461496972E+03  0.31461496972E+03  0.00000000000E+00 0. -1.
          6    1    1    2  501    0  0.40242242502E+02 -0.26478085681E+03  0.62151955939E+03  0.69852981534E+03  0.17300000000E+03 0. -1.
         -6    1    1    2    0  503 -0.40242242502E+02  0.26478085681E+03 -0.18406554918E+03  0.36815413431E+03  0.17300000000E+03 0. -1.
</event>
<event>
 4    1  0.5943823E+000  0.1000000E+03  0.7546771E-02  0.1280296E+00
         21   -1    0    0  501  502  0.00000000000E+00  0.00000000000E+00  0.41995749991E+03  0.41995749991E+03  0.00000000000E+00 0. -1.
         21   -1    0    0  502  503 -0.00000000000E+00 -0.00000000000E+00 -0.92031212522E+02  0.92031212522E+02  0.00000000000E+00 0. -1.
          6    1    1    2  501    0 -0.78911182074E+02 -0.49312767176E+02  0.15375358881E+03  0.24945518582E+03  0.17300000000E+03 0. -1.
         -6    1    1    2    0  503  0.78911182074E+02  0.49312767176E+02  0.17417269858E+03  0.26253352661E+03  0.17300000000E+03 0. -1.
</event>
<event>
 4    1  0.5943823E+000  0.1000000E+03  0.7546771E-02  0.1280296E+00
         21   -1    0    0  501  502  0.00000000000E+00  0.00000000000E+00  0.59691300884E+03  0.59691300884E+03  0.00000000000E+00 0. -1.
         21   -1    0    0  502  503 -0.00000000000E+00 -0.00000000000E+00 -0.60901457577E+02  0.60901457577E+02  0.00000000000E+00 0. -1.
          6    1    1    2  501    0  0.66028952935E+02  0.36802274612E+02  0.31395982526E+03  0.36635229209E+03  0.17300000000E+03 0. -1.
         -6    1    1    2    0  503 -0.66028952935E+02 -0.36802274612E+02  0.22205172601E+03  0.29146217433E+03  0.17300000000E+03 0. -1.
</event>
<event>
 4    1  0.5943823E+000  0.1000000E+03  0.7546771E-02  0.1280296E+00
         21   -1    0    0  501  502  0.00000000000E+00  0.00000000000E+00  0.14377968703E+03  0.14377968703E+03  0.00000000000E+00 0.  1.
         21   -1    0    0  502  503 -0.00000000000E+00 -0.00000000000E+00 -0.34818824081E+03  0.34818824081E+03  0.00000000000E+00 0.  1.
          6    1    1    2  501    0 -0.24247765928E+02  0.43386077021E+02 -0.24831575201E+03  0.30669205815E+03  0.17300000000E+03 0.  1.
         -6    1    1    2    0  503  0.24247765928E+02 -0.43386077021E+02  0.43907198234E+02  0.18527586969E+03  0.17300000000E+03 0.  1.
</event>
<event>
 4    1  0.5943823E+000  0.1000000E+03  0.7546771E-02  0.1280296E+00
         21   -1    0    0  501  502  0.00000000000E+00  0.00000000000E+00  0.16089268784E+03  0.16089268784E+03  0.00000000000E+00 0.  1.
         21   -1    0    0  502  503 -0.00000000000E+00 -0.00000000000E+00 -0.33939099158E+03  0.33939099158E+03  0.00000000000E+00 0.  1.
          6    1    1    2  501    0  0.89088023199E+02 -0.11101167650E+03 -0.18112178992E+02  0.22476058201E+03  0.17300000000E+03 0.  1.
         -6    1    1    2    0  503 -0.89088023199E+02  0.11101167650E+03 -0.16038612475E+03  0.27552309741E+03  0.17300000000E+03 0.  1.
</event>
<event>
 4    1  0.5943823E+000  0.1000000E+03  0.7546771E-02  0.1280296E+00
         21   -1    0    0  501  502  0.00000000000E+00  0.00000000000E+00  0.33315095422E+03  0.33315095422E+03  0.00000000000E+00 0.  1.
         21   -1    0    0  502  503 -0.00000000000E+00 -0.00000000000E+00 -0.10400155688E+03  0.10400155688E+03  0.00000000000E+00 0.  1.
          6    1    1    2  501    0 -0.38341371329E+02 -0.13665719214E+02  0.17955681676E+03  0.25263899754E+03  0.17300000000E+03 0.  1.
         -6    1    1    2    0  503  0.38341371329E+02  0.13665719214E+02  0.49592580589E+02  0.18451351356E+03  0.17300000000E+03 0.  1.
</event>
<event>
 4    1  0.5943823E+000  0.1000000E+03  0.7546771E-02  0.1280296E+00
         21   -1    0    0  501  502  0.00000000000E+00  0.00000000000E+00  0.70493538231E+02  0.70493538231E+02  0.00000000000E+00 0.  1.
         21   -1    0    0  502  503 -0.00000000000E+00 -0.00000000000E+00 -0.85740047110E+03  0.85740047110E+03  0.00000000000E+00 0.  1.
          6    1    1    2  501    0 -0.41526796419E+02 -0.26671261947E+01 -0.73304711340E+02  0.19244263843E+03  0.17300000000E+03 0.  1.
         -6    1    1    2    0  503  0.41526796419E+02  0.26671261947E+01 -0.71360222153E+03  0.73545137090E+03  0.17300000000E+03 0.  1.
</event>
<event>
 4    1  0.5943823E+000  0.1000000E+03  0.7546771E-02  0.1280296E+00
         21   -1    0    0  501  502  0.00000000000E+00  0.00000000000E+00  0.36596690666E+03  0.36596690666E+03  0.00000000000E+00 0.  1.
         21   -1    0    0  502  503 -0.00000000000E+00 -0.00000000000E+00 -0.67343206072E+03  0.67343206072E+03  0.00000000000E+00 0.  1.
          6    1    1    2  501    0  0.29041262720E+03 -0.12119546462E+03  0.20510498504E+03  0.41355155612E+03  0.17300000000E+03 0.  1.
         -6    1    1    2    0  503 -0.29041262720E+03  0.12119546462E+03 -0.51257013910E+03  0.62584741126E+03  0.17300000000E+03 0.  1.
</event>
<event>
 4    1  0.5943823E+000  0.1000000E+03  0.7546771E-02  0.1280296E+00
         21   -1    0    0  501  502  0.00000000000E+00  0.00000000000E+00  0.30887822446E+03  0.30887822446E+03  0.00000000000E+00 0.  1.
         21   -1    0    0  502  503 -0.00000000000E+00 -0.00000000000E+00 -0.13193988678E+03  0.13193988678E+03  0.00000000000E+00 0.  1.
          6    1    1    2  501    0 -0.59150852910E+02  0.77557709995E+02  0.12799118587E+03  0.23627265064E+03  0.17300000000E+03 0.  1.
         -6    1    1    2    0  503  0.59150852910E+02 -0.77557709995E+02  0.48947151810E+02  0.20454546060E+03  0.17300000000E+03 0.  1.
</event>
<event>
 4    1  0.5943823E+000  0.1000000E+03  0.7546771E-02  0.1280296E+00
         21   -1    0    0  501  502  0.00000000000E+00  0.00000000000E+00  0.74782487921E+03  0.74782487921E+03  0.00000000000E+00 0.  1.
         21   -1    0    0  502  503 -0.00000000000E+00 -0.00000000000E+00 -0.25903322152E+03  0.25903322152E+03  0.00000000000E+00 0.  1.
          6    1    1    2  501    0  0.11812129250E+03 -0.78461939442E+02  0.67795565080E+03  0.71390600231E+03  0.17300000000E+03 0.  1.
         -6    1    1    2    0  503 -0.11812129250E+03  0.78461939442E+02 -0.18916399310E+03  0.29295209842E+03  0.17300000000E+03 0.  1.
</event>
<event>
 4    1  0.5943823E+000  0.1000000E+03  0.7546771E-02  0.1280296E+00
         21   -1    0    0  503  502  0.00000000000E+00  0.00000000000E+00  0.29049124494E+03  0.29049124494E+03  0.00000000000E+00 0.  1.
         21   -1    0    0  501  503 -0.00000000000E+00 -0.00000000000E+00 -0.23648235358E+03  0.23648235358E+03  0.00000000000E+00 0.  1.
          6    1    1    2  501    0  0.46582300269E+02  0.12067543480E+03 -0.12222185636E+03  0.24819277475E+03  0.17300000000E+03 0. -1.
         -6    1    1    2    0  502 -0.46582300269E+02 -0.12067543480E+03  0.17623074772E+03  0.27878082377E+03  0.17300000000E+03 0. -1.
</event>
<event>
 4    1  0.5943823E+000  0.1000000E+03  0.7546771E-02  0.1280296E+00
         21   -1    0    0  503  502  0.00000000000E+00  0.00000000000E+00  0.59823000992E+03  0.59823000992E+03  0.00000000000E+00 0. -1.
         21   -1    0    0  501  503 -0.00000000000E+00 -0.00000000000E+00 -0.21852091405E+03  0.21852091405E+03  0.00000000000E+00 0. -1.
          6    1    1    2  501    0  0.21362146530E+03 -0.69915605744E+02 -0.63397335896E+02  0.29063816776E+03  0.17300000000E+03 0.  1.
         -6    1    1    2    0  502 -0.21362146530E+03  0.69915605744E+02  0.44310643177E+03  0.52611275620E+03  0.17300000000E+03 0.  1.
</event>
<event>
 4    1  0.5943823E+000  0.1000000E+03  0.7546771E-02  0.1280296E+00
         21   -1    0    0  503  502  0.00000000000E+00  0.00000000000E+00  0.86864139110E+03  0.86864139110E+03  0.00000000000E+00 0. -1.
         21   -1    0    0  501  503 -0.00000000000E+00 -0.00000000000E+00 -0.43941065128E+02  0.43941065128E+02  0.00000000000E+00 0. -1.
          6    1    1    2  501    0 -0.81487492327E+02  0.31581576750E+02  0.35502616705E+03  0.40448756061E+03  0.17300000000E+03 0.  1.
         -6    1    1    2    0  502  0.81487492327E+02 -0.31581576750E+02  0.46967415892E+03  0.50809489561E+03  0.17300000000E+03 0.  1.
</event>
<event>
 4    1  0.5943823E+000  0.1000000E+03  0.7546771E-02  0.1280296E+00
         21   -1    0    0  503  502  0.00000000000E+00  0.00000000000E+00  0.22725622960E+03  0.22725622960E+03  0.00000000000E+00 0. -1.
         21   -1    0    0  501  503 -0.00000000000E+00 -0.00000000000E+00 -0.20522069471E+03  0.20522069471E+03  0.00000000000E+00 0. -1.
          6    1    1    2  501    0 -0.25840456940E+01 -0.96406000857E+01 -0.11802599979E+03  0.20966343289E+03  0.17300000000E+03 0.  1.
         -6    1    1    2    0  502  0.25840456940E+01  0.96406000857E+01  0.14006153468E+03  0.22281349142E+03  0.17300000000E+03 0.  1.
</event>
<event>
 4    1  0.5943823E+000  0.1000000E+03  0.7546771E-02  0.1280296E+00
         21   -1    0    0  503  502  0.00000000000E+00  0.00000000000E+00  0.14625724249E+04  0.14625724249E+04  0.00000000000E+00 0.  1.
         21   -1    0    0  501  503 -0.00000000000E+00 -0.00000000000E+00 -0.68239893798E+02  0.68239893798E+02  0.00000000000E+00 0. -1.
          6    1    1    2  501    0 -0.21298253307E+02 -0.11685681496E+03  0.12693101854E+04  0.12865405076E+04  0.17300000000E+03 0. -1.
         -6    1    1    2    0  502  0.21298253307E+02  0.11685681496E+03  0.12502234569E+03  0.24427181114E+03  0.17300000000E+03 0.  1.
</event>
<event>
 4    1  0.5943823E+000  0.1000000E+03  0.7546771E-02  0.1280296E+00
         21   -1    0    0  503  502  0.00000000000E+00  0.00000000000E+00  0.11175589541E+04  0.11175589541E+04  0.00000000000E+00 0.  1.
         21   -1    0    0  501  503 -0.00000000000E+00 -0.00000000000E+00 -0.42446089619E+02  0.42446089619E+02  0.00000000000E+00 0. -1.
          6    1    1    2  501    0 -0.46279736599E+02 -0.72551660732E+02  0.26990616764E+03  0.33193959816E+03  0.17300000000E+03 0. -1.
         -6    1    1    2    0  502  0.46279736599E+02  0.72551660732E+02  0.80520669681E+03  0.82806544553E+03  0.17300000000E+03 0.  1.
</event>
<event>
 4    1  0.5943823E+000  0.1000000E+03  0.7546771E-02  0.1280296E+00
         21   -1    0    0  503  502  0.00000000000E+00  0.00000000000E+00  0.22973543188E+03  0.22973543188E+03  0.00000000000E+00 0.  1.
         21   -1    0    0  501  503 -0.00000000000E+00 -0.00000000000E+00 -0.24195652921E+03  0.24195652921E+03  0.00000000000E+00 0. -1.
          6    1    1    2  501    0  0.10553437263E+02  0.14088597166E+03 -0.81612749762E+02  0.23780217193E+03  0.17300000000E+03 0. -1.
         -6    1    1    2    0  502 -0.10553437263E+02 -0.14088597166E+03  0.69391652432E+02  0.23388978917E+03  0.17300000000E+03 0.  1.
</event>
<event>
 4    1  0.5943823E+000  0.1000000E+03  0.7546771E-02  0.1280296E+00
         21   -1    0    0  501  502  0.00000000000E+00  0.00000000000E+00  0.17984826298E+04  0.17984826298E+04  0.00000000000E+00 0.  1.
         21   -1    0    0  502  503 -0.00000000000E+00 -0.00000000000E+00 -0.27837860207E+02  0.27837860207E+02  0.00000000000E+00 0.  1.
          6    1    1    2  501    0  0.59211762507E+02  0.12393546637E+03  0.10308104714E+04  0.10542131002E+04  0.17300000000E+03 0.  1.
         -6    1    1    2    0  503 -0.59211762507E+02 -0.12393546637E+03  0.73983429819E+03  0.77210738982E+03  0.17300000000E+03 0.  1.
</event>
<event>
 4    1  0.5943823E+000  0.1000000E+03  0.7546771E-02  0.1280296E+00
         21   -1    0    0  501  502  0.00000000000E+00  0.00000000000E+00  0.45982339199E+03  0.45982339199E+03  0.00000000000E+00 0.  1.
         21   -1    0    0  502  503 -0.00000000000E+00 -0.00000000000E+00 -0.25767901264E+03  0.25767901264E+03  0.00000000000E+00 0.  1.
          6    1    1    2  501    0 -0.34713620136E+02 -0.29198785981E+03  0.14878585217E+03  0.37219373384E+03  0.17300000000E+03 0.  1.
         -6    1    1    2    0  503  0.34713620136E+02  0.29198785981E+03  0.53358527186E+02  0.34530867079E+03  0.17300000000E+03 0.  1.
</event>
<event>
 4    1  0.5943823E+000  0.1000000E+03  0.7546771E-02  0.1280296E+00
         21   -1    0    0  501  502  0.00000000000E+00  0.00000000000E+00  0.48086098797E+03  0.48086098797E+03  0.00000000000E+00 0.  1.
         21   -1    0    0  502  503 -0.00000000000E+00 -0.00000000000E+00 -0.11087460579E+03  0.11087460579E+03  0.00000000000E+00 0.  1.
          6    1    1    2  501    0  0.10274604590E+02 -0.65643168250E+02  0.85012944308E+01  0.18551513427E+03  0.17300000000E+03 0.  1.
         -6    1    1    2    0  503 -0.10274604590E+02  0.65643168250E+02  0.36148508775E+03  0.40622045948E+03  0.17300000000E+03 0.  1.
</event>
<event>
 4    1  0.5943823E+000  0.1000000E+03  0.7546771E-02  0.1280296E+00
         21   -1    0    0  501  502  0.00000000000E+00  0.00000000000E+00  0.86539620825E+02  0.86539620825E+02  0.00000000000E+00 0.  1.
         21   -1    0    0  502  503 -0.00000000000E+00 -0.00000000000E+00 -0.67024487808E+03  0.67024487808E+03  0.00000000000E+00 0.  1.
          6    1    1    2  501    0 -0.11152397387E+03  0.32873975475E+02 -0.10229961468E+03  0.23219066772E+03  0.17300000000E+03 0.  1.
         -6    1    1    2    0  503  0.11152397387E+03 -0.32873975475E+02 -0.48140564257E+03  0.52459383118E+03  0.17300000000E+03 0.  1.
</event>
<event>
 4    1  0.5943823E+000  0.1000000E+03  0.7546771E-02  0.1280296E+00
         21   -1    0    0  503  502  0.00000000000E+00  0.00000000000E+00  0.14858122296E+03  0.14858122296E+03  0.00000000000E+00 0. -1.
         21   -1    0    0  501  503 -0.00000000000E+00 -0.00000000000E+00 -0.12194666020E+04  0.12194666020E+04  0.00000000000E+00 0. -1.
          6    1    1    2  501    0 -0.17375602240E+03  0.34794901468E+03 -0.53717860848E+03  0.68538276134E+03  0.17300000000E+03 0. -1.
         -6    1    1    2    0  502  0.17375602240E+03 -0.34794901468E+03 -0.53370677052E+03  0.68266506358E+03  0.17300000000E+03 0. -1.
</event>
<event>
 4    1  0.5943823E+000  0.1000000E+03  0.7546771E-02  0.1280296E+00
         21   -1    0    0  503  502  0.00000000000E+00  0.00000000000E+00  0.97254301732E+02  0.97254301732E+02  0.00000000000E+00 0. -1.
         21   -1    0    0  501  503 -0.00000000000E+00 -0.00000000000E+00 -0.36978500598E+03  0.36978500598E+03  0.00000000000E+00 0. -1.
          6    1    1    2  501    0  0.19184031113E+01 -0.71343691014E+02 -0.17403059276E+03  0.25555674465E+03  0.17300000000E+03 0. -1.
         -6    1    1    2    0  502 -0.19184031113E+01  0.71343691014E+02 -0.98500111489E+02  0.21148256307E+03  0.17300000000E+03 0. -1.
</event>
<event>
 4    1  0.5943823E+000  0.1000000E+03  0.7546771E-02  0.1280296E+00
         21   -1    0    0  503  502  0.00000000000E+00  0.00000000000E+00  0.34096927883E+02  0.34096927883E+02  0.00000000000E+00 0.  1.
         21   -1    0    0  501  503 -0.00000000000E+00 -0.00000000000E+00 -0.15085004919E+04  0.15085004919E+04  0.00000000000E+00 0.  1.
          6    1    1    2  501    0  0.19869957440E+02 -0.13792654568E+03 -0.89259238968E+03  0.91981993962E+03  0.17300000000E+03 0.  1.
         -6    1    1    2    0  502 -0.19869957440E+02  0.13792654568E+03 -0.58181117435E+03  0.62277748017E+03  0.17300000000E+03 0.  1.
</event>
<event>
 4    1  0.5943823E+000  0.1000000E+03  0.7546771E-02  0.1280296E+00
         21   -1    0    0  503  502  0.00000000000E+00  0.00000000000E+00  0.39947811250E+02  0.39947811250E+02  0.00000000000E+00 0. -1.
         21   -1    0    0  501  503 -0.00000000000E+00 -0.00000000000E+00 -0.16134937432E+04  0.16134937432E+04  0.00000000000E+00 0. -1.
          6    1    1    2  501    0  0.40205378100E+02  0.16719241789E+03 -0.10160327847E+04  0.10449025776E+04  0.17300000000E+03 0. -1.
         -6    1    1    2    0  502 -0.40205378100E+02 -0.16719241789E+03 -0.55751314726E+03  0.60853897689E+03  0.17300000000E+03 0. -1.
</event>
<event>
 4    1  0.5943823E+000  0.1000000E+03  0.7546771E-02  0.1280296E+00
         21   -1    0    0  503  502  0.00000000000E+00  0.00000000000E+00  0.21917677989E+03  0.21917677989E+03  0.00000000000E+00 0. -1.
         21   -1    0    0  501  503 -0.00000000000E+00 -0.00000000000E+00 -0.23140704025E+03  0.23140704025E+03  0.00000000000E+00 0.  1.
          6    1    1    2  501    0 -0.86766727140E+02  0.31876737992E+02 -0.11681511688E+03  0.22829665546E+03  0.17300000000E+03 0.  1.
         -6    1    1    2    0  502  0.86766727140E+02 -0.31876737992E+02  0.10458485652E+03  0.22228716467E+03  0.17300000000E+03 0. -1.
</event>
<event>
 4    1  0.5943823E+000  0.1000000E+03  0.7546771E-02  0.1280296E+00
         21   -1    0    0  501  502  0.00000000000E+00  0.00000000000E+00  0.17142521505E+03  0.17142521505E+03  0.00000000000E+00 0. -1.
         21   -1    0    0  502  503 -0.00000000000E+00 -0.00000000000E+00 -0.31757288990E+03  0.31757288990E+03  0.00000000000E+00 0.  1.
          6    1    1    2  501    0 -0.11103425490E+03 -0.82530090696E+02  0.37246990734E+01  0.22154614647E+03  0.17300000000E+03 0.  1.
         -6    1    1    2    0  503  0.11103425490E+03  0.82530090696E+02 -0.14987237392E+03  0.26745195848E+03  0.17300000000E+03 0. -1.
</event>
<event>
 4    1  0.5943823E+000  0.1000000E+03  0.7546771E-02  0.1280296E+00
         21   -1    0    0  501  502  0.00000000000E+00  0.00000000000E+00  0.63609494630E+02  0.63609494630E+02  0.00000000000E+00 0. -1.
         21   -1    0    0  502  503 -0.00000000000E+00 -0.00000000000E+00 -0.48915297225E+03  0.48915297225E+03  0.00000000000E+00 0.  1.
          6    1    1    2  501    0  0.25167372568E+02  0.19888595447E+02 -0.23239298714E+03  0.29148662635E+03  0.17300000000E+03 0.  1.
         -6    1    1    2    0  503 -0.25167372568E+02 -0.19888595447E+02 -0.19315049048E+03  0.26127584053E+03  0.17300000000E+03 0. -1.
</event>
<event>
 4    1  0.5943823E+000  0.1000000E+03  0.7546771E-02  0.1280296E+00
         21   -1    0    0  501  502  0.00000000000E+00  0.00000000000E+00  0.29215451341E+03  0.29215451341E+03  0.00000000000E+00 0. -1.
         21   -1    0    0  502  503 -0.00000000000E+00 -0.00000000000E+00 -0.40698424321E+03  0.40698424321E+03  0.00000000000E+00 0.  1.
          6    1    1    2  501    0 -0.88970570804E+01 -0.11770068273E+02  0.24460544270E+03  0.29996418908E+03  0.17300000000E+03 0.  1.
         -6    1    1    2    0  503  0.88970570804E+01  0.11770068273E+02 -0.35943517250E+03  0.39917456753E+03  0.17300000000E+03 0. -1.
</event>
<event>
 4    1  0.5943823E+000  0.1000000E+03  0.7546771E-02  0.1280296E+00
         21   -1    0    0  501  502  0.00000000000E+00  0.00000000000E+00  0.38525838389E+03  0.38525838389E+03  0.00000000000E+00 0. -1.
         21   -1    0    0  502  503 -0.00000000000E+00 -0.00000000000E+00 -0.14558362776E+03  0.14558362776E+03  0.00000000000E+00 0.  1.
          6    1    1    2  501    0 -0.11310337494E+03  0.45518074160E+00  0.24940585564E+03  0.32392107286E+03  0.17300000000E+03 0.  1.
         -6    1    1    2    0  503  0.11310337494E+03 -0.45518074160E+00 -0.97310995134E+01  0.20692093879E+03  0.17300000000E+03 0. -1.
</event>
<event>
 4    1  0.5943823E+000  0.1000000E+03  0.7546771E-02  0.1280296E+00
         21   -1    0    0  503  502  0.00000000000E+00  0.00000000000E+00  0.19256515175E+04  0.19256515175E+04  0.00000000000E+00 0. -1.
         21   -1    0    0  501  503 -0.00000000000E+00 -0.00000000000E+00 -0.28252510668E+02  0.28252510668E+02  0.00000000000E+00 0.  1.
          6    1    1    2  501    0 -0.12278213755E+03 -0.86177378952E+02  0.76263051503E+03  0.79626396151E+03  0.17300000000E+03 0.  1.
         -6    1    1    2    0  502  0.12278213755E+03  0.86177378952E+02  0.11347684918E+04  0.11576400666E+04  0.17300000000E+03 0. -1.
</event>
<event>
 4    1  0.5943823E+000  0.1000000E+03  0.7546771E-02  0.1280296E+00
         21   -1    0    0  503  502  0.00000000000E+00  0.00000000000E+00  0.20260048221E+03  0.20260048221E+03  0.00000000000E+00 0. -1.
         21   -1    0    0  501  503 -0.00000000000E+00 -0.00000000000E+00 -0.31708715283E+03  0.31708715283E+03  0.00000000000E+00 0.  1.
          6    1    1    2  501    0  0.62462209071E+01  0.35200965756E+02 -0.24357610480E+03  0.30089274185E+03  0.17300000000E+03 0.  1.
         -6    1    1    2    0  502 -0.62462209071E+01 -0.35200965756E+02  0.12908943419E+03  0.21879489319E+03  0.17300000000E+03 0. -1.
</event>
<event>
 4    1  0.5943823E+000  0.1000000E+03  0.7546771E-02  0.1280296E+00
         21   -1    0    0  503  502  0.00000000000E+00  0.00000000000E+00  0.28678361383E+02  0.28678361383E+02  0.00000000000E+00 0. -1.
         21   -1    0    0  501  503 -0.00000000000E+00 -0.00000000000E+00 -0.25476438220E+04  0.25476438220E+04  0.00000000000E+00 0.  1.
          6    1    1    2  501    0 -0.72620435875E+02 -0.12866842422E+03 -0.19550735080E+04  0.19682659152E+04  0.17300000000E+03 0.  1.
         -6    1    1    2    0  502  0.72620435875E+02  0.12866842422E+03 -0.56389195259E+03  0.60805626819E+03  0.17300000000E+03 0. -1.
</event>
<event>
 4    1  0.5943823E+000  0.1000000E+03  0.7546771E-02  0.1280296E+00
         21   -1    0    0  503  502  0.00000000000E+00  0.00000000000E+00  0.38898660427E+03  0.38898660427E+03  0.00000000000E+00 0. -1.
         21   -1    0    0  501  503 -0.00000000000E+00 -0.00000000000E+00 -0.11481027184E+03  0.11481027184E+03  0.00000000000E+00 0.  1.
          6    1    1    2  501    0 -0.53817850121E+02 -0.80938577031E+02  0.50448235887E+02  0.20474725578E+03  0.17300000000E+03 0.  1.
         -6    1    1    2    0  502  0.53817850121E+02  0.80938577031E+02  0.22372809654E+03  0.29904962034E+03  0.17300000000E+03 0. -1.
</event>
<event>
 4    1  0.5943823E+000  0.1000000E+03  0.7546771E-02  0.1280296E+00
         21   -1    0    0  501  502  0.00000000000E+00  0.00000000000E+00  0.55201935324E+03  0.55201935324E+03  0.00000000000E+00 0.  1.
         21   -1    0    0  502  503 -0.00000000000E+00 -0.00000000000E+00 -0.14650652933E+04  0.14650652933E+04  0.00000000000E+00 0. -1.
          6    1    1    2  501    0  0.92361619616E+02  0.43235902803E+03  0.40002804703E+03  0.62081916554E+03  0.17300000000E+03 0.  1.
         -6    1    1    2    0  503 -0.92361619616E+02 -0.43235902803E+03 -0.13130739871E+04  0.13962654810E+04  0.17300000000E+03 0. -1.
</event>
<event>
 4    1  0.5943823E+000  0.1000000E+03  0.7546771E-02  0.1280296E+00
         21   -1    0    0  501  502  0.00000000000E+00  0.00000000000E+00  0.10360107359E+03  0.10360107359E+03  0.00000000000E+00 0.  1.
         21   -1    0    0  502  503 -0.00000000000E+00 -0.00000000000E+00 -0.70683841875E+03  0.70683841875E+03  0.00000000000E+00 0. -1.
          6    1    1    2  501    0  0.14150819191E+03 -0.15241203471E+03 -0.29143804984E+03  0.39764196659E+03  0.17300000000E+03 0.  1.
         -6    1    1    2    0  503 -0.14150819191E+03  0.15241203471E+03 -0.31179929532E+03  0.41279752574E+03  0.17300000000E+03 0. -1.
</event>
<event>
 4    1  0.5943823E+000  0.1000000E+03  0.7546771E-02  0.1280296E+00
         21   -1    0    0  501  502  0.00000000000E+00  0.00000000000E+00  0.14300274283E+03  0.14300274283E+03  0.00000000000E+00 0. -1.
         21   -1    0    0  502  503 -0.00000000000E+00 -0.00000000000E+00 -0.25085513587E+03  0.25085513587E+03  0.00000000000E+00 0. -1.
          6    1    1    2  501    0  0.37051028759E+02  0.21871684701E+02  0.12591522727E+02  0.17871400552E+03  0.17300000000E+03 0. -1.
         -6    1    1    2    0  503 -0.37051028759E+02 -0.21871684701E+02 -0.12044391577E+03  0.21514387319E+03  0.17300000000E+03 0. -1.
</event>
<event>
 4    1  0.5943823E+000  0.1000000E+03  0.7546771E-02  0.1280296E+00
         21   -1    0    0  501  502  0.00000000000E+00  0.00000000000E+00  0.89749382534E+03  0.89749382534E+03  0.00000000000E+00 0. -1.
         21   -1    0    0  502  503 -0.00000000000E+00 -0.00000000000E+00 -0.34645044527E+02  0.34645044527E+02  0.00000000000E+00 0. -1.
          6    1    1    2  501    0  0.29111497509E+02  0.12463265209E+02  0.39779341528E+03  0.43493840197E+03  0.17300000000E+03 0. -1.
         -6    1    1    2    0  503 -0.29111497509E+02 -0.12463265209E+02  0.46505536552E+03  0.49720046789E+03  0.17300000000E+03 0. -1.
</event>
<event>
 4    1  0.5943823E+000  0.1000000E+03  0.7546771E-02  0.1280296E+00
         21   -1    0    0  503  502  0.00000000000E+00  0.00000000000E+00  0.79720241310E+02  0.79720241310E+02  0.00000000000E+00 0.  1.
         21   -1    0    0  501  503 -0.00000000000E+00 -0.00000000000E+00 -0.40044765296E+03  0.40044765296E+03  0.00000000000E+00 0.  1.
          6    1    1    2  501    0  0.15228178395E+02 -0.16814759642E+02 -0.21205992761E+03  0.27461435952E+03  0.17300000000E+03 0.  1.
         -6    1    1    2    0  502 -0.15228178395E+02  0.16814759642E+02 -0.10866748404E+03  0.20555353475E+03  0.17300000000E+03 0.  1.
</event>
<event>
 4    1  0.5943823E+000  0.1000000E+03  0.7546771E-02  0.1280296E+00
         21   -1    0    0  503  502  0.00000000000E+00  0.00000000000E+00  0.29764713023E+02  0.29764713023E+02  0.00000000000E+00 0.  1.
         21   -1    0    0  501  503 -0.00000000000E+00 -0.00000000000E+00 -0.10983342094E+04  0.10983342094E+04  0.00000000000E+00 0.  1.
          6    1    1    2  501    0 -0.20034199513E+02  0.47955686755E+02 -0.55874638148E+03  0.58722026179E+03  0.17300000000E+03 0.  1.
         -6    1    1    2    0  502  0.20034199513E+02 -0.47955686755E+02 -0.50982311488E+03  0.54087866062E+03  0.17300000000E+03 0.  1.
</event>
<event>
 4    1  0.5943823E+000  0.1000000E+03  0.7546771E-02  0.1280296E+00
         21   -1    0    0  503  502  0.00000000000E+00  0.00000000000E+00  0.22190115783E+02  0.22190115783E+02  0.00000000000E+00 0.  1.
         21   -1    0    0  501  503 -0.00000000000E+00 -0.00000000000E+00 -0.13818657929E+04  0.13818657929E+04  0.00000000000E+00 0.  1.
          6    1    1    2  501    0 -0.18805476734E+02  0.18857179653E+02 -0.65958408528E+03  0.68241439370E+03  0.17300000000E+03 0.  1.
         -6    1    1    2    0  502  0.18805476734E+02 -0.18857179653E+02 -0.70009159184E+03  0.72164151498E+03  0.17300000000E+03 0.  1.
</event>
<event>
 4    1  0.5943823E+000  0.1000000E+03  0.7546771E-02  0.1280296E+00
         21   -1    0    0  503  502  0.00000000000E+00  0.00000000000E+00  0.72977296298E+02  0.72977296298E+02  0.00000000000E+00 0.  1.
         21   -1    0    0  501  503 -0.00000000000E+00 -0.00000000000E+00 -0.50035606556E+03  0.50035606556E+03  0.00000000000E+00 0.  1.
          6    1    1    2  501    0  0.52774053077E+02  0.28374057691E+02 -0.13158347336E+03  0.22546263169E+03  0.17300000000E+03 0.  1.
         -6    1    1    2    0  502 -0.52774053077E+02 -0.28374057691E+02 -0.29579529590E+03  0.34787073017E+03  0.17300000000E+03 0.  1.
</event>
<event>
 4    1  0.5943823E+000  0.1000000E+03  0.7546771E-02  0.1280296E+00
         21   -1    0    0  503  502  0.00000000000E+00  0.00000000000E+00  0.12875098286E+03  0.12875098286E+03  0.00000000000E+00 0.  1.
         21   -1    0    0  501  503 -0.00000000000E+00 -0.00000000000E+00 -0.24039151688E+03  0.24039151688E+03  0.00000000000E+00 0.  1.
          6    1    1    2  501    0 -0.13093890215E+02 -0.12914957387E+02 -0.28394040724E+02  0.17627667921E+03  0.17300000000E+03 0.  1.
         -6    1    1    2    0  502  0.13093890215E+02  0.12914957387E+02 -0.83246493295E+02  0.19286582054E+03  0.17300000000E+03 0.  1.
</event>
<event>
 4    1  0.5943823E+000  0.1000000E+03  0.7546771E-02  0.1280296E+00
         21   -1    0    0  501  502  0.00000000000E+00  0.00000000000E+00  0.41515900377E+03  0.41515900377E+03  0.00000000000E+00 0. -1.
         21   -1    0    0  502  503 -0.00000000000E+00 -0.00000000000E+00 -0.10319534410E+04  0.10319534410E+04  0.00000000000E+00 0. -1.
          6    1    1    2  501    0  0.86088757498E+01 -0.76748405207E+02  0.38418631907E+03  0.42836031352E+03  0.17300000000E+03 0. -1.
         -6    1    1    2    0  503 -0.86088757498E+01  0.76748405207E+02 -0.10009807563E+04  0.10187521312E+04  0.17300000000E+03 0. -1.
</event>
<event>
 4    1  0.5943823E+000  0.1000000E+03  0.7546771E-02  0.1280296E+00
         21   -1    0    0  501  502  0.00000000000E+00  0.00000000000E+00  0.21624827460E+03  0.21624827460E+03  0.00000000000E+00 0. -1.
         21   -1    0    0  502  503 -0.00000000000E+00 -0.00000000000E+00 -0.35158977842E+03  0.35158977842E+03  0.00000000000E+00 0. -1.
          6    1    1    2  501    0 -0.79491265508E+02 -0.41274793764E+02 -0.26860040472E+03  0.33180965524E+03  0.17300000000E+03 0. -1.
         -6    1    1    2    0  503  0.79491265508E+02  0.41274793764E+02  0.13325890090E+03  0.23602839779E+03  0.17300000000E+03 0. -1.
</event>
<event>
 4    1  0.5943823E+000  0.1000000E+03  0.7546771E-02  0.1280296E+00
         21   -1    0    0  501  502  0.00000000000E+00  0.00000000000E+00  0.56586351321E+03  0.56586351321E+03  0.00000000000E+00 0.  1.
         21   -1    0    0  502  503 -0.00000000000E+00 -0.00000000000E+00 -0.11388605704E+03  0.11388605704E+03  0.00000000000E+00 0. -1.
          6    1    1    2  501    0 -0.25443024054E+02 -0.42440858777E+02  0.46573555028E+03  0.49928666792E+03  0.17300000000E+03 0. -1.
         -6    1    1    2    0  503  0.25443024054E+02  0.42440858777E+02 -0.13758094111E+02  0.18046290234E+03  0.17300000000E+03 0.  1.
</event>
<event>
 4    1  0.5943823E+000  0.1000000E+03  0.7546771E-02  0.1280296E+00
         21   -1    0    0  501  502  0.00000000000E+00  0.00000000000E+00  0.12140268130E+03  0.12140268130E+03  0.00000000000E+00 0.  1.
         21   -1    0    0  502  503 -0.00000000000E+00 -0.00000000000E+00 -0.18704174084E+04  0.18704174084E+04  0.00000000000E+00 0. -1.
          6    1    1    2  501    0 -0.13606741831E+03  0.19061049568E+03 -0.86126487739E+02  0.30363378481E+03  0.17300000000E+03 0. -1.
         -6    1    1    2    0  503  0.13606741831E+03 -0.19061049568E+03 -0.16628882394E+04  0.16881863049E+04  0.17300000000E+03 0.  1.
</event>
<event>
 4    1  0.5943823E+000  0.1000000E+03  0.7546771E-02  0.1280296E+00
         21   -1    0    0  503  502  0.00000000000E+00  0.00000000000E+00  0.18570010273E+03  0.18570010273E+03  0.00000000000E+00 0.  1.
         21   -1    0    0  501  503 -0.00000000000E+00 -0.00000000000E+00 -0.21610163273E+03  0.21610163273E+03  0.00000000000E+00 0.  1.
          6    1    1    2  501    0  0.35816203574E+02 -0.59597255588E+02 -0.88667501652E+02  0.20645958239E+03  0.17300000000E+03 0.  1.
         -6    1    1    2    0  502 -0.35816203574E+02  0.59597255588E+02  0.58265971648E+02  0.19534215307E+03  0.17300000000E+03 0.  1.
</event>
<event>
 4    1  0.5943823E+000  0.1000000E+03  0.7546771E-02  0.1280296E+00
         21   -1    0    0  503  502  0.00000000000E+00  0.00000000000E+00  0.22681872212E+04  0.22681872212E+04  0.00000000000E+00 0.  1.
         21   -1    0    0  501  503 -0.00000000000E+00 -0.00000000000E+00 -0.17772803179E+02  0.17772803179E+02  0.00000000000E+00 0.  1.
          6    1    1    2  501    0 -0.62384700917E+02  0.27250596766E+02  0.69358654102E+03  0.71807084318E+03  0.17300000000E+03 0.  1.
         -6    1    1    2    0  502  0.62384700917E+02 -0.27250596766E+02  0.15568278770E+04  0.15678891812E+04  0.17300000000E+03 0.  1.
</event>
<event>
 4    1  0.5943823E+000  0.1000000E+03  0.7546771E-02  0.1280296E+00
         21   -1    0    0  503  502  0.00000000000E+00  0.00000000000E+00  0.42662437493E+02  0.42662437493E+02  0.00000000000E+00 0. -1.
         21   -1    0    0  501  503 -0.00000000000E+00 -0.00000000000E+00 -0.74310635470E+03  0.74310635470E+03  0.00000000000E+00 0.  1.
          6    1    1    2  501    0 -0.35685014682E+02 -0.15050275370E+02 -0.38673357650E+03  0.42543129910E+03  0.17300000000E+03 0.  1.
         -6    1    1    2    0  502  0.35685014682E+02  0.15050275370E+02 -0.31371034071E+03  0.36033749310E+03  0.17300000000E+03 0.  1.
</event>
<event>
 4    1  0.5943823E+000  0.1000000E+03  0.7546771E-02  0.1280296E+00
         21   -1    0    0  503  502  0.00000000000E+00  0.00000000000E+00  0.67020679306E+03  0.67020679306E+03  0.00000000000E+00 0. -1.
         21   -1    0    0  501  503 -0.00000000000E+00 -0.00000000000E+00 -0.87689975474E+02  0.87689975474E+02  0.00000000000E+00 0.  1.
          6    1    1    2  501    0  0.78670774721E+02 -0.13538397983E+03  0.18847603866E+03  0.29995021243E+03  0.17300000000E+03 0.  1.
         -6    1    1    2    0  502 -0.78670774721E+02  0.13538397983E+03  0.39404077893E+03  0.45794655610E+03  0.17300000000E+03 0.  1.
</event>
<event>
 4    1  0.5943823E+000  0.1000000E+03  0.7546771E-02  0.1280296E+00
         21   -1    0    0  501  502  0.00000000000E+00  0.00000000000E+00  0.89808539998E+02  0.89808539998E+02  0.00000000000E+00 0.  1.
         21   -1    0    0  502  503 -0.00000000000E+00 -0.00000000000E+00 -0.82808613095E+03  0.82808613095E+03  0.00000000000E+00 0.  1.
          6    1    1    2  501    0  0.32397995413E+02 -0.13378734008E+03 -0.10044095323E+03  0.24282929716E+03  0.17300000000E+03 0.  1.
         -6    1    1    2    0  503 -0.32397995413E+02  0.13378734008E+03 -0.63783663772E+03  0.67506537379E+03  0.17300000000E+03 0.  1.
</event>
<event>
 4    1  0.5943823E+000  0.1000000E+03  0.7546771E-02  0.1280296E+00
         21   -1    0    0  501  502  0.00000000000E+00  0.00000000000E+00  0.98219733205E+03  0.98219733205E+03  0.00000000000E+00 0.  1.
         21   -1    0    0  502  503 -0.00000000000E+00 -0.00000000000E+00 -0.23833479234E+03  0.23833479234E+03  0.00000000000E+00 0.  1.
          6    1    1    2  501    0 -0.91687874212E+02 -0.39805209050E+03  0.61556791507E+03  0.75875225937E+03  0.17300000000E+03 0.  1.
         -6    1    1    2    0  503  0.91687874212E+02  0.39805209050E+03  0.12829462463E+03  0.46177986502E+03  0.17300000000E+03 0.  1.
</event>
<event>
 4    1  0.5943823E+000  0.1000000E+03  0.7546771E-02  0.1280296E+00
         21   -1    0    0  501  502  0.00000000000E+00  0.00000000000E+00  0.63852973010E+02  0.63852973010E+02  0.00000000000E+00 0. -1.
         21   -1    0    0  502  503 -0.00000000000E+00 -0.00000000000E+00 -0.74928675194E+03  0.74928675194E+03  0.00000000000E+00 0. -1.
          6    1    1    2  501    0  0.17026362219E+02 -0.10300144105E+03 -0.18702529578E+03  0.27533008396E+03  0.17300000000E+03 0. -1.
         -6    1    1    2    0  503 -0.17026362219E+02  0.10300144105E+03 -0.49840848315E+03  0.53780964100E+03  0.17300000000E+03 0. -1.
</event>
<event>
 4    1  0.5943823E+000  0.1000000E+03  0.7546771E-02  0.1280296E+00
         21   -1    0    0  501  502  0.00000000000E+00  0.00000000000E+00  0.13736902457E+03  0.13736902457E+03  0.00000000000E+00 0. -1.
         21   -1    0    0  502  503 -0.00000000000E+00 -0.00000000000E+00 -0.24447356613E+03  0.24447356613E+03  0.00000000000E+00 0. -1.
          6    1    1    2  501    0  0.54815595236E+02 -0.71135718897E+01 -0.28059666235E+02  0.18377077367E+03  0.17300000000E+03 0. -1.
         -6    1    1    2    0  503 -0.54815595236E+02  0.71135718897E+01 -0.79044875319E+02  0.19807181703E+03  0.17300000000E+03 0. -1.
</event>
<event>
 4    1  0.5943823E+000  0.1000000E+03  0.7546771E-02  0.1280296E+00
         21   -1    0    0  501  502  0.00000000000E+00  0.00000000000E+00  0.80347483534E+03  0.80347483534E+03  0.00000000000E+00 0. -1.
         21   -1    0    0  502  503 -0.00000000000E+00 -0.00000000000E+00 -0.43153674934E+02  0.43153674934E+02  0.00000000000E+00 0. -1.
          6    1    1    2  501    0 -0.58495784153E+02  0.25582707525E+02  0.32141900387E+03  0.37056093661E+03  0.17300000000E+03 0. -1.
         -6    1    1    2    0  503  0.58495784153E+02 -0.25582707525E+02  0.43890215653E+03  0.47606757366E+03  0.17300000000E+03 0. -1.
</event>
<event>
 4    1  0.5943823E+000  0.1000000E+03  0.7546771E-02  0.1280296E+00
         21   -1    0    0  501  502  0.00000000000E+00  0.00000000000E+00  0.23059718370E+03  0.23059718370E+03  0.00000000000E+00 0. -1.
         21   -1    0    0  502  503 -0.00000000000E+00 -0.00000000000E+00 -0.17821965276E+03  0.17821965276E+03  0.00000000000E+00 0. -1.
          6    1    1    2  501    0 -0.44343081397E+02 -0.80215260572E+02 -0.26852096887E+02  0.19761283360E+03  0.17300000000E+03 0. -1.
         -6    1    1    2    0  503  0.44343081397E+02  0.80215260572E+02  0.79229627832E+02  0.21120400286E+03  0.17300000000E+03 0. -1.
</event>
<event>
 4    1  0.5943823E+000  0.1000000E+03  0.7546771E-02  0.1280296E+00
         21   -1    0    0  501  502  0.00000000000E+00  0.00000000000E+00  0.61700766120E+02  0.61700766120E+02  0.00000000000E+00 0. -1.
         21   -1    0    0  502  503 -0.00000000000E+00 -0.00000000000E+00 -0.58248640263E+03  0.58248640263E+03  0.00000000000E+00 0. -1.
          6    1    1    2  501    0 -0.56739588521E+02 -0.47712970314E+02 -0.22183824072E+03  0.29092458385E+03  0.17300000000E+03 0. -1.
         -6    1    1    2    0  503  0.56739588521E+02  0.47712970314E+02 -0.29894739579E+03  0.35326258490E+03  0.17300000000E+03 0. -1.
</event>
<event>
 4    1  0.5943823E+000  0.1000000E+03  0.7546771E-02  0.1280296E+00
         21   -1    0    0  503  502  0.00000000000E+00  0.00000000000E+00  0.25827980486E+02  0.25827980486E+02  0.00000000000E+00 0.  1.
         21   -1    0    0  501  503 -0.00000000000E+00 -0.00000000000E+00 -0.17206775089E+04  0.17206775089E+04  0.00000000000E+00 0. -1.
          6    1    1    2  501    0  0.28258823936E+02 -0.11596104952E+03 -0.77972594195E+03  0.80755623376E+03  0.17300000000E+03 0.  1.
         -6    1    1    2    0  502 -0.28258823936E+02  0.11596104952E+03 -0.91512358649E+03  0.93894925565E+03  0.17300000000E+03 0. -1.
</event>
<event>
 4    1  0.5943823E+000  0.1000000E+03  0.7546771E-02  0.1280296E+00
         21   -1    0    0  503  502  0.00000000000E+00  0.00000000000E+00  0.19630650620E+03  0.19630650620E+03  0.00000000000E+00 0.  1.
         21   -1    0    0  501  503 -0.00000000000E+00 -0.00000000000E+00 -0.58105548673E+03  0.58105548673E+03  0.00000000000E+00 0. -1.
          6    1    1    2  501    0 -0.24765773441E+03  0.67674269971E+02 -0.34772509261E+03  0.46557051051E+03  0.17300000000E+03 0.  1.
         -6    1    1    2    0  502  0.24765773441E+03 -0.67674269971E+02 -0.37023887927E+02  0.31179148242E+03  0.17300000000E+03 0. -1.
</event>
<event>
 4    1  0.5943823E+000  0.1000000E+03  0.7546771E-02  0.1280296E+00
         21   -1    0    0  501  502  0.00000000000E+00  0.00000000000E+00  0.17043189033E+03  0.17043189033E+03  0.00000000000E+00 0.  1.
         21   -1    0    0  502  503 -0.00000000000E+00 -0.00000000000E+00 -0.26432302887E+03  0.26432302887E+03  0.00000000000E+00 0. -1.
          6    1    1    2  501    0  0.58441509932E+02 -0.17637766330E+02  0.62374913051E+02  0.19376823956E+03  0.17300000000E+03 0. -1.
         -6    1    1    2    0  503 -0.58441509932E+02  0.17637766330E+02 -0.15626605159E+03  0.24098667964E+03  0.17300000000E+03 0.  1.
</event>
<event>
 4    1  0.5943823E+000  0.1000000E+03  0.7546771E-02  0.1280296E+00
         21   -1    0    0  501  502  0.00000000000E+00  0.00000000000E+00  0.36126399374E+03  0.36126399374E+03  0.00000000000E+00 0. -1.
         21   -1    0    0  502  503 -0.00000000000E+00 -0.00000000000E+00 -0.28111622795E+03  0.28111622795E+03  0.00000000000E+00 0.  1.
          6    1    1    2  501    0 -0.38512619439E+02  0.17478542434E+03  0.24062591529E+03  0.34621235900E+03  0.17300000000E+03 0. -1.
         -6    1    1    2    0  503  0.38512619439E+02 -0.17478542434E+03 -0.16047814951E+03  0.29616786268E+03  0.17300000000E+03 0.  1.
</event>
<event>
 4    1  0.5943823E+000  0.1000000E+03  0.7546771E-02  0.1280296E+00
         21   -1    0    0  501  502  0.00000000000E+00  0.00000000000E+00  0.11119505921E+04  0.11119505921E+04  0.00000000000E+00 0. -1.
         21   -1    0    0  502  503 -0.00000000000E+00 -0.00000000000E+00 -0.33749177628E+02  0.33749177628E+02  0.00000000000E+00 0. -1.
          6    1    1    2  501    0 -0.52191238846E+02 -0.65978881999E+02  0.47158545088E+03  0.50931225762E+03  0.17300000000E+03 0. -1.
         -6    1    1    2    0  503  0.52191238846E+02  0.65978881999E+02  0.60661596362E+03  0.63638751214E+03  0.17300000000E+03 0. -1.
</event>
<event>
 4    1  0.5943823E+000  0.1000000E+03  0.7546771E-02  0.1280296E+00
         21   -1    0    0  501  502  0.00000000000E+00  0.00000000000E+00  0.29922368925E+03  0.29922368925E+03  0.00000000000E+00 0. -1.
         21   -1    0    0  502  503 -0.00000000000E+00 -0.00000000000E+00 -0.22928608048E+03  0.22928608048E+03  0.00000000000E+00 0. -1.
          6    1    1    2  501    0 -0.17639178031E+03  0.25099258770E+02  0.11898305791E+03  0.27537247688E+03  0.17300000000E+03 0. -1.
         -6    1    1    2    0  503  0.17639178031E+03 -0.25099258770E+02 -0.49045449134E+02  0.25313729286E+03  0.17300000000E+03 0. -1.
</event>
<event>
 4    1  0.5943823E+000  0.1000000E+03  0.7546771E-02  0.1280296E+00
         21   -1    0    0  501  502  0.00000000000E+00  0.00000000000E+00  0.57035381752E+02  0.57035381752E+02  0.00000000000E+00 0. -1.
         21   -1    0    0  502  503 -0.00000000000E+00 -0.00000000000E+00 -0.72494883580E+03  0.72494883580E+03  0.00000000000E+00 0. -1.
          6    1    1    2  501    0 -0.10145332048E+03 -0.26363833682E+02 -0.29404199434E+03  0.35689987727E+03  0.17300000000E+03 0. -1.
         -6    1    1    2    0  503  0.10145332048E+03  0.26363833682E+02 -0.37387145971E+03  0.42508434028E+03  0.17300000000E+03 0. -1.
</event>
<event>
 4    1  0.5943823E+000  0.1000000E+03  0.7546771E-02  0.1280296E+00
         21   -1    0    0  503  502  0.00000000000E+00  0.00000000000E+00  0.41894165189E+02  0.41894165189E+02  0.00000000000E+00 0.  1.
         21   -1    0    0  501  503 -0.00000000000E+00 -0.00000000000E+00 -0.74672037298E+03  0.74672037298E+03  0.00000000000E+00 0. -1.
          6    1    1    2  501    0 -0.30781972390E+02 -0.10904947402E+02 -0.39023197206E+03  0.42810797671E+03  0.17300000000E+03 0. -1.
         -6    1    1    2    0  502  0.30781972390E+02  0.10904947402E+02 -0.31459423573E+03  0.36050656146E+03  0.17300000000E+03 0.  1.
</event>
<event>
 4    1  0.5943823E+000  0.1000000E+03  0.7546771E-02  0.1280296E+00
         21   -1    0    0  503  502  0.00000000000E+00  0.00000000000E+00  0.64411907714E+03  0.64411907714E+03  0.00000000000E+00 0.  1.
         21   -1    0    0  501  503 -0.00000000000E+00 -0.00000000000E+00 -0.18200553759E+03  0.18200553759E+03  0.00000000000E+00 0. -1.
          6    1    1    2  501    0 -0.40393978541E+02  0.76161062338E+02 -0.10989081797E+03  0.22234471614E+03  0.17300000000E+03 0. -1.
         -6    1    1    2    0  502  0.40393978541E+02 -0.76161062338E+02  0.57200435752E+03  0.60377989859E+03  0.17300000000E+03 0.  1.
</event>
<event>
 4    1  0.5943823E+000  0.1000000E+03  0.7546771E-02  0.1280296E+00
         21   -1    0    0  503  502  0.00000000000E+00  0.00000000000E+00  0.15009014077E+03  0.15009014077E+03  0.00000000000E+00 0.  1.
         21   -1    0    0  501  503 -0.00000000000E+00 -0.00000000000E+00 -0.22323254367E+03  0.22323254367E+03  0.00000000000E+00 0.  1.
          6    1    1    2  501    0  0.10006059039E+01 -0.21475993952E+02 -0.93475335060E+02  0.19781015594E+03  0.17300000000E+03 0.  1.
         -6    1    1    2    0  502 -0.10006059039E+01  0.21475993952E+02  0.20332932161E+02  0.17551252849E+03  0.17300000000E+03 0.  1.
</event>
<event>
 4    1  0.5943823E+000  0.1000000E+03  0.7546771E-02  0.1280296E+00
         21   -1    0    0  503  502  0.00000000000E+00  0.00000000000E+00  0.41249887893E+03  0.41249887893E+03  0.00000000000E+00 0. -1.
         21   -1    0    0  501  503 -0.00000000000E+00 -0.00000000000E+00 -0.83123824856E+02  0.83123824856E+02  0.00000000000E+00 0. -1.
          6    1    1    2  501    0 -0.16129809337E+02  0.20824583197E+02  0.83661866195E+02  0.19396427988E+03  0.17300000000E+03 0. -1.
         -6    1    1    2    0  502  0.16129809337E+02 -0.20824583197E+02  0.24571318788E+03  0.30165842390E+03  0.17300000000E+03 0. -1.
</event>
<event>
 4    1  0.5943823E+000  0.1000000E+03  0.7546771E-02  0.1280296E+00
         21   -1    0    0  503  502  0.00000000000E+00  0.00000000000E+00  0.18358672912E+04  0.18358672912E+04  0.00000000000E+00 0. -1.
         21   -1    0    0  501  503 -0.00000000000E+00 -0.00000000000E+00 -0.19856537203E+02  0.19856537203E+02  0.00000000000E+00 0. -1.
          6    1    1    2  501    0 -0.33170085892E+02 -0.70735929432E+02  0.80827564832E+03  0.83026643313E+03  0.17300000000E+03 0. -1.
         -6    1    1    2    0  502  0.33170085892E+02  0.70735929432E+02  0.10077351057E+04  0.10254573953E+04  0.17300000000E+03 0. -1.
</event>
<event>
 4    1  0.5943823E+000  0.1000000E+03  0.7546771E-02  0.1280296E+00
         21   -1    0    0  501  502  0.00000000000E+00  0.00000000000E+00  0.71918205796E+03  0.71918205796E+03  0.00000000000E+00 0. -1.
         21   -1    0    0  502  503 -0.00000000000E+00 -0.00000000000E+00 -0.14450452838E+03  0.14450452838E+03  0.00000000000E+00 0. -1.
          6    1    1    2  501    0  0.15271189600E+03 -0.29487811713E+01  0.58886579325E+03  0.63247256142E+03  0.17300000000E+03 0. -1.
         -6    1    1    2    0  503 -0.15271189600E+03  0.29487811713E+01 -0.14188263676E+02  0.23121402491E+03  0.17300000000E+03 0. -1.
</event>
<event>
 4    1  0.5943823E+000  0.1000000E+03  0.7546771E-02  0.1280296E+00
         21   -1    0    0  501  502  0.00000000000E+00  0.00000000000E+00  0.14009813767E+03  0.14009813767E+03  0.00000000000E+00 0. -1.
         21   -1    0    0  502  503 -0.00000000000E+00 -0.00000000000E+00 -0.63414762344E+03  0.63414762344E+03  0.00000000000E+00 0. -1.
          6    1    1    2  501    0  0.79049253077E+02  0.10406186632E+02  0.50725447354E+02  0.19712722831E+03  0.17300000000E+03 0. -1.
         -6    1    1    2    0  503 -0.79049253077E+02 -0.10406186632E+02 -0.54477493313E+03  0.57711853280E+03  0.17300000000E+03 0. -1.
</event>
<event>
 4    1  0.5943823E+000  0.1000000E+03  0.7546771E-02  0.1280296E+00
         21   -1    0    0  501  502  0.00000000000E+00  0.00000000000E+00  0.57401381471E+03  0.57401381471E+03  0.00000000000E+00 0. -1.
         21   -1    0    0  502  503 -0.00000000000E+00 -0.00000000000E+00 -0.22004888530E+03  0.22004888530E+03  0.00000000000E+00 0. -1.
          6    1    1    2  501    0 -0.10162050813E+03  0.54746000832E+02  0.49893765007E+03  0.54054752884E+03  0.17300000000E+03 0. -1.
         -6    1    1    2    0  503  0.10162050813E+03 -0.54746000832E+02 -0.14497272066E+03  0.25351517117E+03  0.17300000000E+03 0. -1.
</event>
<event>
 4    1  0.5943823E+000  0.1000000E+03  0.7546771E-02  0.1280296E+00
         21   -1    0    0  503  502  0.00000000000E+00  0.00000000000E+00  0.35053153939E+03  0.35053153939E+03  0.00000000000E+00 0. -1.
         21   -1    0    0  501  503 -0.00000000000E+00 -0.00000000000E+00 -0.19697004462E+03  0.19697004462E+03  0.00000000000E+00 0. -1.
          6    1    1    2  501    0 -0.14575836317E+03  0.12170906935E+03  0.19182123210E+02  0.25759571395E+03  0.17300000000E+03 0. -1.
         -6    1    1    2    0  502  0.14575836317E+03 -0.12170906935E+03  0.13437937156E+03  0.28990587006E+03  0.17300000000E+03 0. -1.
</event>
<event>
 4    1  0.5943823E+000  0.1000000E+03  0.7546771E-02  0.1280296E+00
         21   -1    0    0  503  502  0.00000000000E+00  0.00000000000E+00  0.30487115771E+03  0.30487115771E+03  0.00000000000E+00 0. -1.
         21   -1    0    0  501  503 -0.00000000000E+00 -0.00000000000E+00 -0.11014514673E+03  0.11014514673E+03  0.00000000000E+00 0. -1.
          6    1    1    2  501    0  0.14115790453E+02 -0.85406317149E+01  0.31539542861E+02  0.17662372631E+03  0.17300000000E+03 0. -1.
         -6    1    1    2    0  502 -0.14115790453E+02  0.85406317149E+01  0.16318646813E+03  0.23839257813E+03  0.17300000000E+03 0. -1.
</event>
<event>
 4    1  0.5943823E+000  0.1000000E+03  0.7546771E-02  0.1280296E+00
         21   -1    0    0  501  502  0.00000000000E+00  0.00000000000E+00  0.76027973128E+02  0.76027973128E+02  0.00000000000E+00 0.  1.
         21   -1    0    0  502  503 -0.00000000000E+00 -0.00000000000E+00 -0.12682278499E+04  0.12682278499E+04  0.00000000000E+00 0.  1.
          6    1    1    2  501    0  0.77157677706E+02  0.31009608749E+01 -0.63565297376E+02  0.19983110423E+03  0.17300000000E+03 0.  1.
         -6    1    1    2    0  503 -0.77157677706E+02 -0.31009608749E+01 -0.11286345793E+04  0.11444247187E+04  0.17300000000E+03 0.  1.
</event>
<event>
 4    1  0.5943823E+000  0.1000000E+03  0.7546771E-02  0.1280296E+00
         21   -1    0    0  501  502  0.00000000000E+00  0.00000000000E+00  0.23604664539E+03  0.23604664539E+03  0.00000000000E+00 0.  1.
         21   -1    0    0  502  503 -0.00000000000E+00 -0.00000000000E+00 -0.47156944507E+03  0.47156944507E+03  0.00000000000E+00 0. -1.
          6    1    1    2  501    0  0.20081756754E+03 -0.91625273562E+01  0.96892188831E+02  0.28236278720E+03  0.17300000000E+03 0.  1.
         -6    1    1    2    0  503 -0.20081756754E+03  0.91625273562E+01 -0.33241498851E+03  0.42525330325E+03  0.17300000000E+03 0. -1.
</event>
<event>
 4    1  0.5943823E+000  0.1000000E+03  0.7546771E-02  0.1280296E+00
         21   -1    0    0  501  502  0.00000000000E+00  0.00000000000E+00  0.33437719482E+03  0.33437719482E+03  0.00000000000E+00 0.  1.
         21   -1    0    0  502  503 -0.00000000000E+00 -0.00000000000E+00 -0.27374313627E+03  0.27374313627E+03  0.00000000000E+00 0. -1.
          6    1    1    2  501    0 -0.18598004590E+03 -0.14842215373E+02  0.19483042662E+03  0.32046335823E+03  0.17300000000E+03 0.  1.
         -6    1    1    2    0  503  0.18598004590E+03  0.14842215373E+02 -0.13419636807E+03  0.28765697286E+03  0.17300000000E+03 0. -1.
</event>
<event>
 4    1  0.5943823E+000  0.1000000E+03  0.7546771E-02  0.1280296E+00
         21   -1    0    0  501  502  0.00000000000E+00  0.00000000000E+00  0.12814762119E+03  0.12814762119E+03  0.00000000000E+00 0.  1.
         21   -1    0    0  502  503 -0.00000000000E+00 -0.00000000000E+00 -0.80774987023E+03  0.80774987023E+03  0.00000000000E+00 0. -1.
          6    1    1    2  501    0  0.18189903517E+03 -0.19645907829E+03 -0.40317988088E+03  0.51397124899E+03  0.17300000000E+03 0.  1.
         -6    1    1    2    0  503 -0.18189903517E+03  0.19645907829E+03 -0.27642236816E+03  0.42192624244E+03  0.17300000000E+03 0.  1.
</event>
<event>
 4    1  0.5943823E+000  0.1000000E+03  0.7546771E-02  0.1280296E+00
         21   -1    0    0  501  502  0.00000000000E+00  0.00000000000E+00  0.61371302454E+03  0.61371302454E+03  0.00000000000E+00 0.  1.
         21   -1    0    0  502  503 -0.00000000000E+00 -0.00000000000E+00 -0.13074006905E+03  0.13074006905E+03  0.00000000000E+00 0. -1.
          6    1    1    2  501    0  0.33145078245E+02  0.76656230492E+02 -0.32059444074E+02  0.19476031895E+03  0.17300000000E+03 0.  1.
         -6    1    1    2    0  503 -0.33145078245E+02 -0.76656230492E+02  0.51503239956E+03  0.54969277463E+03  0.17300000000E+03 0.  1.
</event>
<event>
 4    1  0.5943823E+000  0.1000000E+03  0.7546771E-02  0.1280296E+00
         21   -1    0    0  503  502  0.00000000000E+00  0.00000000000E+00  0.16949555463E+04  0.16949555463E+04  0.00000000000E+00 0. -1.
         21   -1    0    0  501  503 -0.00000000000E+00 -0.00000000000E+00 -0.11827509459E+03  0.11827509459E+03  0.00000000000E+00 0. -1.
          6    1    1    2  501    0  0.39665970435E+03 -0.51072186361E+02  0.99676165139E+03  0.10878465328E+04  0.17300000000E+03 0. -1.
         -6    1    1    2    0  502 -0.39665970435E+03  0.51072186361E+02  0.57991880027E+03  0.72538410803E+03  0.17300000000E+03 0. -1.
</event>
<event>
 4    1  0.5943823E+000  0.1000000E+03  0.7546771E-02  0.1280296E+00
         21   -1    0    0  501  502  0.00000000000E+00  0.00000000000E+00  0.24934917462E+03  0.24934917462E+03  0.00000000000E+00 0.  1.
         21   -1    0    0  502  503 -0.00000000000E+00 -0.00000000000E+00 -0.55401877617E+03  0.55401877617E+03  0.00000000000E+00 0.  1.
          6    1    1    2  501    0 -0.34395078887E+02  0.19739233214E+02  0.20059098179E+03  0.26784025230E+03  0.17300000000E+03 0.  1.
         -6    1    1    2    0  503  0.34395078887E+02 -0.19739233214E+02 -0.50526058333E+03  0.53552769849E+03  0.17300000000E+03 0.  1.
</event>
<event>
 4    1  0.5943823E+000  0.1000000E+03  0.7546771E-02  0.1280296E+00
         21   -1    0    0  501  502  0.00000000000E+00  0.00000000000E+00  0.10363064195E+03  0.10363064195E+03  0.00000000000E+00 0.  1.
         21   -1    0    0  502  503 -0.00000000000E+00 -0.00000000000E+00 -0.63475778741E+03  0.63475778741E+03  0.00000000000E+00 0.  1.
          6    1    1    2  501    0  0.49348183979E+02  0.13956463266E+03 -0.95620170160E+02  0.24695292444E+03  0.17300000000E+03 0.  1.
         -6    1    1    2    0  503 -0.49348183979E+02 -0.13956463266E+03 -0.43550697530E+03  0.49143550491E+03  0.17300000000E+03 0.  1.
</event>
<event>
 4    1  0.5943823E+000  0.1000000E+03  0.7546771E-02  0.1280296E+00
         21   -1    0    0  501  502  0.00000000000E+00  0.00000000000E+00  0.18318350364E+03  0.18318350364E+03  0.00000000000E+00 0. -1.
         21   -1    0    0  502  503 -0.00000000000E+00 -0.00000000000E+00 -0.29432907761E+03  0.29432907761E+03  0.00000000000E+00 0.  1.
          6    1    1    2  501    0  0.14651601429E+02 -0.15128671417E+03 -0.86160026121E+02  0.24587576011E+03  0.17300000000E+03 0.  1.
         -6    1    1    2    0  503 -0.14651601429E+02  0.15128671417E+03 -0.24985547858E+02  0.23163682114E+03  0.17300000000E+03 0. -1.
</event>
<event>
 4    1  0.5943823E+000  0.1000000E+03  0.7546771E-02  0.1280296E+00
         21   -1    0    0  501  502  0.00000000000E+00  0.00000000000E+00  0.64450246550E+02  0.64450246550E+02  0.00000000000E+00 0. -1.
         21   -1    0    0  502  503 -0.00000000000E+00 -0.00000000000E+00 -0.63491707845E+03  0.63491707845E+03  0.00000000000E+00 0.  1.
          6    1    1    2  501    0 -0.58833070493E+02 -0.45788215242E+02 -0.15780941659E+03  0.24574519894E+03  0.17300000000E+03 0.  1.
         -6    1    1    2    0  503  0.58833070493E+02  0.45788215242E+02 -0.41265741531E+03  0.45362212606E+03  0.17300000000E+03 0. -1.
</event>
<event>
 4    1  0.5943823E+000  0.1000000E+03  0.7546771E-02  0.1280296E+00
         21   -1    0    0  501  502  0.00000000000E+00  0.00000000000E+00  0.10209810340E+03  0.10209810340E+03  0.00000000000E+00 0.  1.
         21   -1    0    0  502  503 -0.00000000000E+00 -0.00000000000E+00 -0.75972660944E+03  0.75972660944E+03  0.00000000000E+00 0.  1.
          6    1    1    2  501    0  0.24135643699E+02  0.20381529966E+03 -0.21391898054E+03  0.34323976446E+03  0.17300000000E+03 0.  1.
         -6    1    1    2    0  503 -0.24135643699E+02 -0.20381529966E+03 -0.44370952549E+03  0.51858494838E+03  0.17300000000E+03 0.  1.
</event>
<event>
 4    1  0.5943823E+000  0.1000000E+03  0.7546771E-02  0.1280296E+00
         21   -1    0    0  501  502  0.00000000000E+00  0.00000000000E+00  0.69490507234E+03  0.69490507234E+03  0.00000000000E+00 0.  1.
         21   -1    0    0  502  503 -0.00000000000E+00 -0.00000000000E+00 -0.37878004516E+03  0.37878004516E+03  0.00000000000E+00 0.  1.
          6    1    1    2  501    0  0.19008556897E+03 -0.19948780802E+03  0.57314729528E+03  0.65905593933E+03  0.17300000000E+03 0.  1.
         -6    1    1    2    0  503 -0.19008556897E+03  0.19948780802E+03 -0.25702226811E+03  0.41462917816E+03  0.17300000000E+03 0.  1.
</event>
<event>
 4    1  0.5943823E+000  0.1000000E+03  0.7546771E-02  0.1280296E+00
         21   -1    0    0  501  502  0.00000000000E+00  0.00000000000E+00  0.51290972715E+03  0.51290972715E+03  0.00000000000E+00 0.  1.
         21   -1    0    0  502  503 -0.00000000000E+00 -0.00000000000E+00 -0.23986748732E+03  0.23986748732E+03  0.00000000000E+00 0.  1.
          6    1    1    2  501    0  0.12280967523E+03 -0.88523301544E+01  0.43610104189E+03  0.48505020237E+03  0.17300000000E+03 0.  1.
         -6    1    1    2    0  503 -0.12280967523E+03  0.88523301544E+01 -0.16305880207E+03  0.26772701210E+03  0.17300000000E+03 0.  1.
</event>
<event>
 4    1  0.5943823E+000  0.1000000E+03  0.7546771E-02  0.1280296E+00
         21   -1    0    0  503  502  0.00000000000E+00  0.00000000000E+00  0.10919262181E+03  0.10919262181E+03  0.00000000000E+00 0. -1.
         21   -1    0    0  501  503 -0.00000000000E+00 -0.00000000000E+00 -0.41843362944E+03  0.41843362944E+03  0.00000000000E+00 0.  1.
          6    1    1    2  501    0  0.88240679795E+02 -0.82142046726E+02 -0.19785516293E+03  0.28915289884E+03  0.17300000000E+03 0. -1.
         -6    1    1    2    0  502 -0.88240679795E+02  0.82142046726E+02 -0.11138584470E+03  0.23847335241E+03  0.17300000000E+03 0.  1.
</event>
<event>
 4    1  0.5943823E+000  0.1000000E+03  0.7546771E-02  0.1280296E+00
         21   -1    0    0  503  502  0.00000000000E+00  0.00000000000E+00  0.15997206515E+04  0.15997206515E+04  0.00000000000E+00 0. -1.
         21   -1    0    0  501  503 -0.00000000000E+00 -0.00000000000E+00 -0.14184255916E+03  0.14184255916E+03  0.00000000000E+00 0.  1.
          6    1    1    2  501    0  0.54231609843E+02 -0.20768782953E+02 -0.75409882964E+02  0.19745394476E+03  0.17300000000E+03 0. -1.
         -6    1    1    2    0  502 -0.54231609843E+02  0.20768782953E+02  0.15332879753E+04  0.15441092659E+04  0.17300000000E+03 0.  1.
</event>
<event>
 4    1  0.5943823E+000  0.1000000E+03  0.7546771E-02  0.1280296E+00
         21   -1    0    0  503  502  0.00000000000E+00  0.00000000000E+00  0.90336940781E+02  0.90336940781E+02  0.00000000000E+00 0. -1.
         21   -1    0    0  501  503 -0.00000000000E+00 -0.00000000000E+00 -0.87508211919E+03  0.87508211919E+03  0.00000000000E+00 0.  1.
          6    1    1    2  501    0 -0.46115281212E+02  0.20334090247E+03 -0.52141082067E+03  0.58759883057E+03  0.17300000000E+03 0. -1.
         -6    1    1    2    0  502  0.46115281212E+02 -0.20334090247E+03 -0.26333435773E+03  0.37782022939E+03  0.17300000000E+03 0.  1.
</event>
<event>
 4    1  0.5943823E+000  0.1000000E+03  0.7546771E-02  0.1280296E+00
         21   -1    0    0  503  502  0.00000000000E+00  0.00000000000E+00  0.45360518603E+03  0.45360518603E+03  0.00000000000E+00 0. -1.
         21   -1    0    0  501  503 -0.00000000000E+00 -0.00000000000E+00 -0.13293410200E+03  0.13293410200E+03  0.00000000000E+00 0.  1.
          6    1    1    2  501    0  0.26266277441E+02 -0.14597859772E+03  0.26960448750E+03  0.35300884975E+03  0.17300000000E+03 0. -1.
         -6    1    1    2    0  502 -0.26266277441E+02  0.14597859772E+03  0.51066596536E+02  0.23353043828E+03  0.17300000000E+03 0.  1.
</event>
<event>
 4    1  0.5943823E+000  0.1000000E+03  0.7546771E-02  0.1280296E+00
         21   -1    0    0  501  502  0.00000000000E+00  0.00000000000E+00  0.26022089729E+03  0.26022089729E+03  0.00000000000E+00 0.  1.
         21   -1    0    0  502  503 -0.00000000000E+00 -0.00000000000E+00 -0.45654690974E+03  0.45654690974E+03  0.00000000000E+00 0.  1.
          6    1    1    2  501    0 -0.14502156657E+03 -0.25805890591E+03 -0.61425443786E+02  0.34832131551E+03  0.17300000000E+03 0.  1.
         -6    1    1    2    0  503  0.14502156657E+03  0.25805890591E+03 -0.13490056867E+03  0.36844649153E+03  0.17300000000E+03 0.  1.
</event>
<event>
 4    1  0.5943823E+000  0.1000000E+03  0.7546771E-02  0.1280296E+00
         21   -1    0    0  501  502  0.00000000000E+00  0.00000000000E+00  0.15491781459E+02  0.15491781459E+02  0.00000000000E+00 0.  1.
         21   -1    0    0  502  503 -0.00000000000E+00 -0.00000000000E+00 -0.24878261740E+04  0.24878261740E+04  0.00000000000E+00 0.  1.
          6    1    1    2  501    0  0.71137398557E+02  0.61314777361E+01 -0.85823854473E+03  0.87840794860E+03  0.17300000000E+03 0.  1.
         -6    1    1    2    0  503 -0.71137398557E+02 -0.61314777361E+01 -0.16140958478E+04  0.16249100069E+04  0.17300000000E+03 0.  1.
</event>
<event>
 4    1  0.5943823E+000  0.1000000E+03  0.7546771E-02  0.1280296E+00
         21   -1    0    0  501  502  0.00000000000E+00  0.00000000000E+00  0.11965447934E+03  0.11965447934E+03  0.00000000000E+00 0.  1.
         21   -1    0    0  502  503 -0.00000000000E+00 -0.00000000000E+00 -0.68601512661E+03  0.68601512661E+03  0.00000000000E+00 0.  1.
          6    1    1    2  501    0  0.11293410349E+03 -0.19736923681E+03 -0.31290905274E+03  0.42373317389E+03  0.17300000000E+03 0.  1.
         -6    1    1    2    0  503 -0.11293410349E+03  0.19736923681E+03 -0.25345159453E+03  0.38193643206E+03  0.17300000000E+03 0.  1.
</event>
<event>
 4    1  0.5943823E+000  0.1000000E+03  0.7546771E-02  0.1280296E+00
         21   -1    0    0  501  502  0.00000000000E+00  0.00000000000E+00  0.25805963056E+03  0.25805963056E+03  0.00000000000E+00 0.  1.
         21   -1    0    0  502  503 -0.00000000000E+00 -0.00000000000E+00 -0.39753818580E+03  0.39753818580E+03  0.00000000000E+00 0. -1.
          6    1    1    2  501    0  0.77544224506E+02 -0.24982038446E+03 -0.31280238727E+01  0.31362735177E+03  0.17300000000E+03 0.  1.
         -6    1    1    2    0  503 -0.77544224506E+02  0.24982038446E+03 -0.13635053137E+03  0.34197046459E+03  0.17300000000E+03 0. -1.
</event>
<event>
 4    1  0.5943823E+000  0.1000000E+03  0.7546771E-02  0.1280296E+00
         21   -1    0    0  501  502  0.00000000000E+00  0.00000000000E+00  0.78914627643E+02  0.78914627643E+02  0.00000000000E+00 0.  1.
         21   -1    0    0  502  503 -0.00000000000E+00 -0.00000000000E+00 -0.58835734703E+03  0.58835734703E+03  0.00000000000E+00 0. -1.
          6    1    1    2  501    0 -0.66637723064E+02 -0.79059985582E+02 -0.13670040485E+03  0.24353042550E+03  0.17300000000E+03 0.  1.
         -6    1    1    2    0  503  0.66637723064E+02  0.79059985582E+02 -0.37274231453E+03  0.42374154918E+03  0.17300000000E+03 0. -1.
</event>
<event>
 4    1  0.5943823E+000  0.1000000E+03  0.7546771E-02  0.1280296E+00
         21   -1    0    0  501  502  0.00000000000E+00  0.00000000000E+00  0.19490608900E+03  0.19490608900E+03  0.00000000000E+00 0.  1.
         21   -1    0    0  502  503 -0.00000000000E+00 -0.00000000000E+00 -0.20389183582E+03  0.20389183582E+03  0.00000000000E+00 0.  1.
          6    1    1    2  501    0  0.72811195629E+02  0.41355306135E+02  0.48426409640E+02  0.19820658088E+03  0.17300000000E+03 0.  1.
         -6    1    1    2    0  503 -0.72811195629E+02 -0.41355306135E+02 -0.57412156452E+02  0.20059134394E+03  0.17300000000E+03 0.  1.
</event>
<event>
 4    1  0.5943823E+000  0.1000000E+03  0.7546771E-02  0.1280296E+00
         21   -1    0    0  503  502  0.00000000000E+00  0.00000000000E+00  0.52949181552E+03  0.52949181552E+03  0.00000000000E+00 0.  1.
         21   -1    0    0  501  503 -0.00000000000E+00 -0.00000000000E+00 -0.41779701038E+03  0.41779701038E+03  0.00000000000E+00 0.  1.
          6    1    1    2  501    0 -0.22317908965E+03 -0.10827011433E+03 -0.30690489264E+03  0.43087229760E+03  0.17300000000E+03 0. -1.
         -6    1    1    2    0  502  0.22317908965E+03  0.10827011433E+03  0.41859969779E+03  0.51641652830E+03  0.17300000000E+03 0. -1.
</event>
<event>
 4    1  0.5943823E+000  0.1000000E+03  0.7546771E-02  0.1280296E+00
         21   -1    0    0  503  502  0.00000000000E+00  0.00000000000E+00  0.61298895832E+02  0.61298895832E+02  0.00000000000E+00 0.  1.
         21   -1    0    0  501  503 -0.00000000000E+00 -0.00000000000E+00 -0.15952656855E+04  0.15952656855E+04  0.00000000000E+00 0. -1.
          6    1    1    2  501    0 -0.16357998346E+03  0.20219394092E+03 -0.80611134875E+03  0.86451449225E+03  0.17300000000E+03 0.  1.
         -6    1    1    2    0  502  0.16357998346E+03 -0.20219394092E+03 -0.72785544091E+03  0.79205008907E+03  0.17300000000E+03 0. -1.
</event>
<event>
 4    1  0.5943823E+000  0.1000000E+03  0.7546771E-02  0.1280296E+00
         21   -1    0    0  501  502  0.00000000000E+00  0.00000000000E+00  0.15946014813E+03  0.15946014813E+03  0.00000000000E+00 0. -1.
         21   -1    0    0  502  503 -0.00000000000E+00 -0.00000000000E+00 -0.59291659706E+03  0.59291659706E+03  0.00000000000E+00 0. -1.
          6    1    1    2  501    0 -0.10512752254E+03  0.68884931559E+02  0.53595530062E+02  0.22045047207E+03  0.17300000000E+03 0.  1.
         -6    1    1    2    0  503  0.10512752254E+03 -0.68884931559E+02 -0.48705197900E+03  0.53192627312E+03  0.17300000000E+03 0.  1.
</event>
<event>
 4    1  0.5943823E+000  0.1000000E+03  0.7546771E-02  0.1280296E+00
         21   -1    0    0  501  502  0.00000000000E+00  0.00000000000E+00  0.83239336892E+02  0.83239336892E+02  0.00000000000E+00 0. -1.
         21   -1    0    0  502  503 -0.00000000000E+00 -0.00000000000E+00 -0.65094624600E+03  0.65094624600E+03  0.00000000000E+00 0. -1.
          6    1    1    2  501    0 -0.10382233804E+02 -0.13434598732E+01 -0.38800901855E+02  0.17760660362E+03  0.17300000000E+03 0.  1.
         -6    1    1    2    0  503  0.10382233804E+02  0.13434598732E+01 -0.52890600725E+03  0.55657897928E+03  0.17300000000E+03 0.  1.
</event>
<event>
 4    1  0.5943823E+000  0.1000000E+03  0.7546771E-02  0.1280296E+00
         21   -1    0    0  503  502  0.00000000000E+00  0.00000000000E+00  0.20641241389E+04  0.20641241389E+04  0.00000000000E+00 0. -1.
         21   -1    0    0  501  503 -0.00000000000E+00 -0.00000000000E+00 -0.73863181736E+02  0.73863181736E+02  0.00000000000E+00 0. -1.
          6    1    1    2  501    0  0.30781968681E+02 -0.96818775075E+02  0.78037035987E+02  0.21526770261E+03  0.17300000000E+03 0. -1.
         -6    1    1    2    0  502 -0.30781968681E+02  0.96818775075E+02  0.19122239212E+04  0.19227196180E+04  0.17300000000E+03 0. -1.
</event>
<event>
 4    1  0.5943823E+000  0.1000000E+03  0.7546771E-02  0.1280296E+00
         21   -1    0    0  503  502  0.00000000000E+00  0.00000000000E+00  0.53102214568E+02  0.53102214568E+02  0.00000000000E+00 0. -1.
         21   -1    0    0  501  503 -0.00000000000E+00 -0.00000000000E+00 -0.90261568903E+03  0.90261568903E+03  0.00000000000E+00 0.  1.
          6    1    1    2  501    0 -0.83421683837E+02 -0.92547905847E+02 -0.53340118766E+03  0.57443025617E+03  0.17300000000E+03 0. -1.
         -6    1    1    2    0  502  0.83421683837E+02  0.92547905847E+02 -0.31611228680E+03  0.38128764743E+03  0.17300000000E+03 0.  1.
</event>
<event>
 4    1  0.5943823E+000  0.1000000E+03  0.7546771E-02  0.1280296E+00
         21   -1    0    0  503  502  0.00000000000E+00  0.00000000000E+00  0.18714084130E+04  0.18714084130E+04  0.00000000000E+00 0. -1.
         21   -1    0    0  501  503 -0.00000000000E+00 -0.00000000000E+00 -0.12072542598E+03  0.12072542598E+03  0.00000000000E+00 0.  1.
          6    1    1    2  501    0 -0.41011237776E+03 -0.81024906950E+02  0.11807534218E+04  0.12644622735E+04  0.17300000000E+03 0. -1.
         -6    1    1    2    0  502  0.41011237776E+03  0.81024906950E+02  0.56992956524E+03  0.72767156552E+03  0.17300000000E+03 0.  1.
</event>
<event>
 4    1  0.5943823E+000  0.1000000E+03  0.7546771E-02  0.1280296E+00
         21   -1    0    0  503  502  0.00000000000E+00  0.00000000000E+00  0.84836083669E+03  0.84836083669E+03  0.00000000000E+00 0.  1.
         21   -1    0    0  501  503 -0.00000000000E+00 -0.00000000000E+00 -0.10904878953E+03  0.10904878953E+03  0.00000000000E+00 0.  1.
          6    1    1    2  501    0 -0.42068880212E+02 -0.45189426946E+02 -0.11894219468E+02  0.18407158240E+03  0.17300000000E+03 0.  1.
         -6    1    1    2    0  502  0.42068880212E+02  0.45189426946E+02  0.75120626663E+03  0.77333804382E+03  0.17300000000E+03 0.  1.
</event>
<event>
 4    1  0.5943823E+000  0.1000000E+03  0.7546771E-02  0.1280296E+00
         21   -1    0    0  503  502  0.00000000000E+00  0.00000000000E+00  0.72773309961E+03  0.72773309961E+03  0.00000000000E+00 0.  1.
         21   -1    0    0  501  503 -0.00000000000E+00 -0.00000000000E+00 -0.23686398056E+03  0.23686398056E+03  0.00000000000E+00 0.  1.
          6    1    1    2  501    0  0.33551152628E+02 -0.16822656896E+02 -0.19082552707E+03  0.26029226536E+03  0.17300000000E+03 0.  1.
         -6    1    1    2    0  502 -0.33551152628E+02  0.16822656896E+02  0.68169464611E+03  0.70430481481E+03  0.17300000000E+03 0.  1.
</event>
<event>
 4    1  0.5943823E+000  0.1000000E+03  0.7546771E-02  0.1280296E+00
         21   -1    0    0  503  502  0.00000000000E+00  0.00000000000E+00  0.93870372116E+02  0.93870372116E+02  0.00000000000E+00 0.  1.
         21   -1    0    0  501  503 -0.00000000000E+00 -0.00000000000E+00 -0.49938090037E+03  0.49938090037E+03  0.00000000000E+00 0.  1.
          6    1    1    2  501    0 -0.33500848045E+02  0.86060972244E+02 -0.32846408411E+03  0.38255254843E+03  0.17300000000E+03 0.  1.
         -6    1    1    2    0  502  0.33500848045E+02 -0.86060972244E+02 -0.77046444150E+02  0.21069872406E+03  0.17300000000E+03 0.  1.
</event>
<event>
 4    1  0.5943823E+000  0.1000000E+03  0.7546771E-02  0.1280296E+00
         21   -1    0    0  503  502  0.00000000000E+00  0.00000000000E+00  0.15220007654E+03  0.15220007654E+03  0.00000000000E+00 0. -1.
         21   -1    0    0  501  503 -0.00000000000E+00 -0.00000000000E+00 -0.40264073825E+03  0.40264073825E+03  0.00000000000E+00 0. -1.
          6    1    1    2  501    0 -0.15612981624E+03 -0.72787213836E+02 -0.79308276450E+02  0.25669690440E+03  0.17300000000E+03 0. -1.
         -6    1    1    2    0  502  0.15612981624E+03  0.72787213836E+02 -0.17113238526E+03  0.29814391039E+03  0.17300000000E+03 0. -1.
</event>
<event>
 4    1  0.5943823E+000  0.1000000E+03  0.7546771E-02  0.1280296E+00
         21   -1    0    0  503  502  0.00000000000E+00  0.00000000000E+00  0.22836130039E+03  0.22836130039E+03  0.00000000000E+00 0. -1.
         21   -1    0    0  501  503 -0.00000000000E+00 -0.00000000000E+00 -0.25395074542E+03  0.25395074542E+03  0.00000000000E+00 0. -1.
          6    1    1    2  501    0 -0.52169820017E+02  0.12134618267E+03 -0.11597857029E+03  0.24663052312E+03  0.17300000000E+03 0. -1.
         -6    1    1    2    0  502  0.52169820017E+02 -0.12134618267E+03  0.90389125265E+02  0.23568152269E+03  0.17300000000E+03 0. -1.
</event>
<event>
 4    1  0.5943823E+000  0.1000000E+03  0.7546771E-02  0.1280296E+00
         21   -1    0    0  503  502  0.00000000000E+00  0.00000000000E+00  0.15565888079E+03  0.15565888079E+03  0.00000000000E+00 0. -1.
         21   -1    0    0  501  503 -0.00000000000E+00 -0.00000000000E+00 -0.32681987017E+03  0.32681987017E+03  0.00000000000E+00 0. -1.
          6    1    1    2  501    0  0.19403281913E+02 -0.99616259145E+02 -0.19592477755E+03  0.28038438775E+03  0.17300000000E+03 0. -1.
         -6    1    1    2    0  502 -0.19403281913E+02  0.99616259145E+02  0.24763788178E+02  0.20209436321E+03  0.17300000000E+03 0. -1.
</event>
<event>
 4    1  0.5943823E+000  0.1000000E+03  0.7546771E-02  0.1280296E+00
         21   -1    0    0  501  502  0.00000000000E+00  0.00000000000E+00  0.89986193228E+03  0.89986193228E+03  0.00000000000E+00 0. -1.
         21   -1    0    0  502  503 -0.00000000000E+00 -0.00000000000E+00 -0.36477911020E+02  0.36477911020E+02  0.00000000000E+00 0. -1.
          6    1    1    2  501    0  0.23439318439E+01 -0.73402925053E+01  0.56932039973E+03  0.59507486207E+03  0.17300000000E+03 0. -1.
         -6    1    1    2    0  503 -0.23439318439E+01  0.73402925053E+01  0.29406362152E+03  0.34126498123E+03  0.17300000000E+03 0. -1.
</event>
<event>
 4    1  0.5943823E+000  0.1000000E+03  0.7546771E-02  0.1280296E+00
         21   -1    0    0  501  502  0.00000000000E+00  0.00000000000E+00  0.73194800826E+03  0.73194800826E+03  0.00000000000E+00 0.  1.
         21   -1    0    0  502  503 -0.00000000000E+00 -0.00000000000E+00 -0.42949078657E+02  0.42949078657E+02  0.00000000000E+00 0.  1.
          6    1    1    2  501    0  0.11358280571E+01 -0.32997490645E+02  0.29985613206E+03  0.34775397111E+03  0.17300000000E+03 0.  1.
         -6    1    1    2    0  503 -0.11358280571E+01  0.32997490645E+02  0.38914279755E+03  0.42714311580E+03  0.17300000000E+03 0.  1.
</event>
<event>
 4    1  0.5943823E+000  0.1000000E+03  0.7546771E-02  0.1280296E+00
         21   -1    0    0  501  502  0.00000000000E+00  0.00000000000E+00  0.42913776351E+03  0.42913776351E+03  0.00000000000E+00 0.  1.
         21   -1    0    0  502  503 -0.00000000000E+00 -0.00000000000E+00 -0.20219795220E+03  0.20219795220E+03  0.00000000000E+00 0.  1.
          6    1    1    2  501    0 -0.14711448749E+03 -0.10152960499E+03  0.28253869012E+03  0.37644128963E+03  0.17300000000E+03 0.  1.
         -6    1    1    2    0  503  0.14711448749E+03  0.10152960499E+03 -0.55598878811E+02  0.25489442608E+03  0.17300000000E+03 0.  1.
</event>
<event>
 4    1  0.5943823E+000  0.1000000E+03  0.7546771E-02  0.1280296E+00
         21   -1    0    0  501  502  0.00000000000E+00  0.00000000000E+00  0.31028838449E+03  0.31028838449E+03  0.00000000000E+00 0.  1.
         21   -1    0    0  502  503 -0.00000000000E+00 -0.00000000000E+00 -0.36775859968E+03  0.36775859968E+03  0.00000000000E+00 0.  1.
          6    1    1    2  501    0  0.64315191745E+02  0.10182268721E+03  0.23618394837E+03  0.31656936205E+03  0.17300000000E+03 0.  1.
         -6    1    1    2    0  503 -0.64315191745E+02 -0.10182268721E+03 -0.29365416356E+03  0.36147762212E+03  0.17300000000E+03 0.  1.
</event>
<event>
 4    1  0.5943823E+000  0.1000000E+03  0.7546771E-02  0.1280296E+00
         21   -1    0    0  501  502  0.00000000000E+00  0.00000000000E+00  0.41504432078E+03  0.41504432078E+03  0.00000000000E+00 0.  1.
         21   -1    0    0  502  503 -0.00000000000E+00 -0.00000000000E+00 -0.79539721317E+02  0.79539721317E+02  0.00000000000E+00 0.  1.
          6    1    1    2  501    0 -0.31708924985E+02  0.44625891935E+02  0.15508779272E+03  0.23870096272E+03  0.17300000000E+03 0.  1.
         -6    1    1    2    0  503  0.31708924985E+02 -0.44625891935E+02  0.18041680675E+03  0.25588307938E+03  0.17300000000E+03 0.  1.
</event>
<event>
 4    1  0.5943823E+000  0.1000000E+03  0.7546771E-02  0.1280296E+00
         21   -1    0    0  501  502  0.00000000000E+00  0.00000000000E+00  0.15216992596E+04  0.15216992596E+04  0.00000000000E+00 0.  1.
         21   -1    0    0  502  503 -0.00000000000E+00 -0.00000000000E+00 -0.19929307041E+02  0.19929307041E+02  0.00000000000E+00 0.  1.
          6    1    1    2  501    0  0.18127151042E+02  0.80185433481E+01  0.74147339555E+03  0.76164603784E+03  0.17300000000E+03 0. -1.
         -6    1    1    2    0  503 -0.18127151042E+02 -0.80185433481E+01  0.76029655706E+03  0.77998252885E+03  0.17300000000E+03 0. -1.
</event>
<event>
 4    1  0.5943823E+000  0.1000000E+03  0.7546771E-02  0.1280296E+00
         21   -1    0    0  501  502  0.00000000000E+00  0.00000000000E+00  0.14489642931E+03  0.14489642931E+03  0.00000000000E+00 0.  1.
         21   -1    0    0  502  503 -0.00000000000E+00 -0.00000000000E+00 -0.46242678464E+03  0.46242678464E+03  0.00000000000E+00 0.  1.
          6    1    1    2  501    0 -0.14570099518E+03  0.47769404256E+02 -0.22137668827E+02  0.23222784579E+03  0.17300000000E+03 0. -1.
         -6    1    1    2    0  503  0.14570099518E+03 -0.47769404256E+02 -0.29539268650E+03  0.37509536816E+03  0.17300000000E+03 0. -1.
</event>
<event>
 4    1  0.5943823E+000  0.1000000E+03  0.7546771E-02  0.1280296E+00
         21   -1    0    0  501  502  0.00000000000E+00  0.00000000000E+00  0.22506977715E+04  0.22506977715E+04  0.00000000000E+00 0.  1.
         21   -1    0    0  502  503 -0.00000000000E+00 -0.00000000000E+00 -0.52684618419E+02  0.52684618419E+02  0.00000000000E+00 0.  1.
          6    1    1    2  501    0 -0.26464643622E+03 -0.84389103604E+01  0.15543940217E+04  0.15862467419E+04  0.17300000000E+03 0. -1.
         -6    1    1    2    0  503  0.26464643622E+03  0.84389103604E+01  0.64361913132E+03  0.71713564799E+03  0.17300000000E+03 0. -1.
</event>
<event>
 4    1  0.5943823E+000  0.1000000E+03  0.7546771E-02  0.1280296E+00
         21   -1    0    0  501  502  0.00000000000E+00  0.00000000000E+00  0.17736927962E+03  0.17736927962E+03  0.00000000000E+00 0.  1.
         21   -1    0    0  502  503 -0.00000000000E+00 -0.00000000000E+00 -0.18201130320E+03  0.18201130320E+03  0.00000000000E+00 0.  1.
          6    1    1    2  501    0  0.39394305173E+02  0.53866564675E+01  0.25489335596E+02  0.17933107254E+03  0.17300000000E+03 0. -1.
         -6    1    1    2    0  503 -0.39394305173E+02 -0.53866564675E+01 -0.30131359179E+02  0.18004951029E+03  0.17300000000E+03 0. -1.
</event>
<event>
 4    1  0.5943823E+000  0.1000000E+03  0.7546771E-02  0.1280296E+00
         21   -1    0    0  503  502  0.00000000000E+00  0.00000000000E+00  0.59530035463E+03  0.59530035463E+03  0.00000000000E+00 0. -1.
         21   -1    0    0  501  503 -0.00000000000E+00 -0.00000000000E+00 -0.11197558904E+03  0.11197558904E+03  0.00000000000E+00 0.  1.
          6    1    1    2  501    0 -0.51548770486E+02 -0.46717071672E+02 -0.29389208931E+01  0.18648699091E+03  0.17300000000E+03 0.  1.
         -6    1    1    2    0  502  0.51548770486E+02  0.46717071672E+02  0.48626368648E+03  0.52078895276E+03  0.17300000000E+03 0. -1.
</event>
<event>
 4    1  0.5943823E+000  0.1000000E+03  0.7546771E-02  0.1280296E+00
         21   -1    0    0  503  502  0.00000000000E+00  0.00000000000E+00  0.11488808777E+04  0.11488808777E+04  0.00000000000E+00 0.  1.
         21   -1    0    0  501  503 -0.00000000000E+00 -0.00000000000E+00 -0.53744266722E+02  0.53744266722E+02  0.00000000000E+00 0.  1.
          6    1    1    2  501    0  0.64891502083E+02  0.90413545370E+02  0.21024448035E+03  0.29413816098E+03  0.17300000000E+03 0.  1.
         -6    1    1    2    0  502 -0.64891502083E+02 -0.90413545370E+02  0.88489213063E+03  0.90848698344E+03  0.17300000000E+03 0.  1.
</event>
<event>
 4    1  0.5943823E+000  0.1000000E+03  0.7546771E-02  0.1280296E+00
         21   -1    0    0  503  502  0.00000000000E+00  0.00000000000E+00  0.11513630061E+03  0.11513630061E+03  0.00000000000E+00 0.  1.
         21   -1    0    0  501  503 -0.00000000000E+00 -0.00000000000E+00 -0.41646282372E+03  0.41646282372E+03  0.00000000000E+00 0.  1.
          6    1    1    2  501    0  0.82501529503E+01  0.20751147598E+02 -0.31134100789E+03  0.35687658699E+03  0.17300000000E+03 0.  1.
         -6    1    1    2    0  502 -0.82501529503E+01 -0.20751147598E+02  0.10014484779E+02  0.17472253734E+03  0.17300000000E+03 0.  1.
</event>
<event>
 4    1  0.5943823E+000  0.1000000E+03  0.7546771E-02  0.1280296E+00
         21   -1    0    0  501  502  0.00000000000E+00  0.00000000000E+00  0.85308860280E+03  0.85308860280E+03  0.00000000000E+00 0. -1.
         21   -1    0    0  502  503 -0.00000000000E+00 -0.00000000000E+00 -0.10790782414E+03  0.10790782414E+03  0.00000000000E+00 0. -1.
          6    1    1    2  501    0  0.34812886439E+02 -0.47341985836E+02  0.75619728319E+03  0.77795663876E+03  0.17300000000E+03 0. -1.
         -6    1    1    2    0  503 -0.34812886439E+02  0.47341985836E+02 -0.11016504526E+02  0.18303978818E+03  0.17300000000E+03 0. -1.
</event>
<event>
 4    1  0.5943823E+000  0.1000000E+03  0.7546771E-02  0.1280296E+00
         21   -1    0    0  501  502  0.00000000000E+00  0.00000000000E+00  0.89585078003E+02  0.89585078003E+02  0.00000000000E+00 0. -1.
         21   -1    0    0  502  503 -0.00000000000E+00 -0.00000000000E+00 -0.69563339548E+03  0.69563339548E+03  0.00000000000E+00 0. -1.
          6    1    1    2  501    0 -0.14720279798E+03 -0.61140946236E+02 -0.17160529245E+03  0.29117736079E+03  0.17300000000E+03 0. -1.
         -6    1    1    2    0  503  0.14720279798E+03  0.61140946236E+02 -0.43444302502E+03  0.49404111269E+03  0.17300000000E+03 0. -1.
</event>
<event>
 4    1  0.5943823E+000  0.1000000E+03  0.7546771E-02  0.1280296E+00
         21   -1    0    0  501  502  0.00000000000E+00  0.00000000000E+00  0.11478161311E+03  0.11478161311E+03  0.00000000000E+00 0.  1.
         21   -1    0    0  502  503 -0.00000000000E+00 -0.00000000000E+00 -0.11582059662E+04  0.11582059662E+04  0.00000000000E+00 0.  1.
          6    1    1    2  501    0 -0.13114302379E+03  0.31028027530E+02 -0.13210535848E+02  0.21969239732E+03  0.17300000000E+03 0.  1.
         -6    1    1    2    0  503  0.13114302379E+03 -0.31028027530E+02 -0.10302138173E+04  0.10532951820E+04  0.17300000000E+03 0.  1.
</event>
<event>
 4    1  0.5943823E+000  0.1000000E+03  0.7546771E-02  0.1280296E+00
         21   -1    0    0  501  502  0.00000000000E+00  0.00000000000E+00  0.18983101960E+04  0.18983101960E+04  0.00000000000E+00 0. -1.
         21   -1    0    0  502  503 -0.00000000000E+00 -0.00000000000E+00 -0.21025231474E+02  0.21025231474E+02  0.00000000000E+00 0.  1.
          6    1    1    2  501    0  0.66670236471E+02 -0.28827787629E+02  0.12682216374E+04  0.12820261633E+04  0.17300000000E+03 0. -1.
         -6    1    1    2    0  503 -0.66670236471E+02  0.28827787629E+02  0.60906332706E+03  0.63730926412E+03  0.17300000000E+03 0.  1.
</event>
<event>
 4    1  0.5943823E+000  0.1000000E+03  0.7546771E-02  0.1280296E+00
         21   -1    0    0  501  502  0.00000000000E+00  0.00000000000E+00  0.36381205321E+03  0.36381205321E+03  0.00000000000E+00 0. -1.
         21   -1    0    0  502  503 -0.00000000000E+00 -0.00000000000E+00 -0.43648703881E+03  0.43648703881E+03  0.00000000000E+00 0.  1.
          6    1    1    2  501    0  0.64729052802E+02  0.23024490289E+03  0.23248139774E+03  0.37573816133E+03  0.17300000000E+03 0. -1.
         -6    1    1    2    0  503 -0.64729052802E+02 -0.23024490289E+03 -0.30515638334E+03  0.42456093070E+03  0.17300000000E+03 0.  1.
</event>
<event>
 4    1  0.5943823E+000  0.1000000E+03  0.7546771E-02  0.1280296E+00
         21   -1    0    0  501  502  0.00000000000E+00  0.00000000000E+00  0.82895062340E+03  0.82895062340E+03  0.00000000000E+00 0. -1.
         21   -1    0    0  502  503 -0.00000000000E+00 -0.00000000000E+00 -0.11423338734E+03  0.11423338734E+03  0.00000000000E+00 0.  1.
          6    1    1    2  501    0 -0.56644814913E+02  0.71966466344E+02  0.72123735040E+03  0.74732865792E+03  0.17300000000E+03 0. -1.
         -6    1    1    2    0  503  0.56644814913E+02 -0.71966466344E+02 -0.65201143434E+01  0.19585535281E+03  0.17300000000E+03 0.  1.
</event>
<event>
 4    1  0.5943823E+000  0.1000000E+03  0.7546771E-02  0.1280296E+00
         21   -1    0    0  501  502  0.00000000000E+00  0.00000000000E+00  0.27329884697E+04  0.27329884697E+04  0.00000000000E+00 0. -1.
         21   -1    0    0  502  503 -0.00000000000E+00 -0.00000000000E+00 -0.20604912156E+02  0.20604912156E+02  0.00000000000E+00 0.  1.
          6    1    1    2  501    0  0.15092087668E+03 -0.14332731954E+02  0.16945661950E+04  0.17101070515E+04  0.17300000000E+03 0. -1.
         -6    1    1    2    0  503 -0.15092087668E+03  0.14332731954E+02  0.10178173625E+04  0.10434863304E+04  0.17300000000E+03 0.  1.
</event>
<event>
 4    1  0.5943823E+000  0.1000000E+03  0.7546771E-02  0.1280296E+00
         21   -1    0    0  501  502  0.00000000000E+00  0.00000000000E+00  0.58263202753E+03  0.58263202753E+03  0.00000000000E+00 0. -1.
         21   -1    0    0  502  503 -0.00000000000E+00 -0.00000000000E+00 -0.31774912511E+03  0.31774912511E+03  0.00000000000E+00 0. -1.
          6    1    1    2  501    0  0.15709482578E+03 -0.23890365847E+03  0.41600294071E+03  0.53361145883E+03  0.17300000000E+03 0. -1.
         -6    1    1    2    0  503 -0.15709482578E+03  0.23890365847E+03 -0.15112003829E+03  0.36676969380E+03  0.17300000000E+03 0. -1.
</event>
<event>
 4    1  0.5943823E+000  0.1000000E+03  0.7546771E-02  0.1280296E+00
         21   -1    0    0  501  502  0.00000000000E+00  0.00000000000E+00  0.12811604632E+03  0.12811604632E+03  0.00000000000E+00 0. -1.
         21   -1    0    0  502  503 -0.00000000000E+00 -0.00000000000E+00 -0.41669943354E+03  0.41669943354E+03  0.00000000000E+00 0. -1.
          6    1    1    2  501    0  0.49779789406E+02  0.14454228875E+03 -0.15524943424E+03  0.27821194709E+03  0.17300000000E+03 0. -1.
         -6    1    1    2    0  503 -0.49779789406E+02 -0.14454228875E+03 -0.13333395298E+03  0.26660353278E+03  0.17300000000E+03 0. -1.
</event>
<event>
 4    1  0.5943823E+000  0.1000000E+03  0.7546771E-02  0.1280296E+00
         21   -1    0    0  501  502  0.00000000000E+00  0.00000000000E+00  0.23376482096E+03  0.23376482096E+03  0.00000000000E+00 0. -1.
         21   -1    0    0  502  503 -0.00000000000E+00 -0.00000000000E+00 -0.22944333146E+03  0.22944333146E+03  0.00000000000E+00 0. -1.
          6    1    1    2  501    0 -0.59481265376E+02 -0.42664068384E+02  0.13762340682E+03  0.23286787191E+03  0.17300000000E+03 0. -1.
         -6    1    1    2    0  503  0.59481265376E+02  0.42664068384E+02 -0.13330191732E+03  0.23034028051E+03  0.17300000000E+03 0. -1.
</event>
<event>
 4    1  0.5943823E+000  0.1000000E+03  0.7546771E-02  0.1280296E+00
         21   -1    0    0  501  502  0.00000000000E+00  0.00000000000E+00  0.76515046187E+03  0.76515046187E+03  0.00000000000E+00 0. -1.
         21   -1    0    0  502  503 -0.00000000000E+00 -0.00000000000E+00 -0.11745751207E+03  0.11745751207E+03  0.00000000000E+00 0. -1.
          6    1    1    2  501    0  0.75599655078E+01  0.22694179383E+03  0.45863349691E+03  0.54021608210E+03  0.17300000000E+03 0. -1.
         -6    1    1    2    0  503 -0.75599655078E+01 -0.22694179383E+03  0.18905945289E+03  0.34239189184E+03  0.17300000000E+03 0. -1.
</event>
<event>
 4    1  0.5943823E+000  0.1000000E+03  0.7546771E-02  0.1280296E+00
         21   -1    0    0  501  502  0.00000000000E+00  0.00000000000E+00  0.60827682206E+03  0.60827682206E+03  0.00000000000E+00 0. -1.
         21   -1    0    0  502  503 -0.00000000000E+00 -0.00000000000E+00 -0.78598217993E+03  0.78598217993E+03  0.00000000000E+00 0. -1.
          6    1    1    2  501    0  0.31052270859E+03 -0.90213840267E+02  0.50214375203E+03  0.62180401834E+03  0.17300000000E+03 0. -1.
         -6    1    1    2    0  503 -0.31052270859E+03  0.90213840267E+02 -0.67984910990E+03  0.77245498364E+03  0.17300000000E+03 0. -1.
</event>
<event>
 4    1  0.5943823E+000  0.1000000E+03  0.7546771E-02  0.1280296E+00
         21   -1    0    0  501  502  0.00000000000E+00  0.00000000000E+00  0.30960510763E+03  0.30960510763E+03  0.00000000000E+00 0. -1.
         21   -1    0    0  502  503 -0.00000000000E+00 -0.00000000000E+00 -0.32196660732E+03  0.32196660732E+03  0.00000000000E+00 0. -1.
          6    1    1    2  501    0  0.33072388163E+02 -0.53620111325E+02  0.25035349305E+03  0.31076481570E+03  0.17300000000E+03 0. -1.
         -6    1    1    2    0  503 -0.33072388163E+02  0.53620111325E+02 -0.26271499274E+03  0.32080689925E+03  0.17300000000E+03 0. -1.
</event>
<event>
 4    1  0.5943823E+000  0.1000000E+03  0.7546771E-02  0.1280296E+00
         21   -1    0    0  503  502  0.00000000000E+00  0.00000000000E+00  0.88132883675E+03  0.88132883675E+03  0.00000000000E+00 0.  1.
         21   -1    0    0  501  503 -0.00000000000E+00 -0.00000000000E+00 -0.71057456213E+02  0.71057456213E+02  0.00000000000E+00 0.  1.
          6    1    1    2  501    0 -0.88447566357E+02  0.32516020476E+02  0.11147812396E+03  0.22635510974E+03  0.17300000000E+03 0.  1.
         -6    1    1    2    0  502  0.88447566357E+02 -0.32516020476E+02  0.69879325658E+03  0.72603118323E+03  0.17300000000E+03 0.  1.
</event>
<event>
 4    1  0.5943823E+000  0.1000000E+03  0.7546771E-02  0.1280296E+00
         21   -1    0    0  501  502  0.00000000000E+00  0.00000000000E+00  0.41456181877E+03  0.41456181877E+03  0.00000000000E+00 0.  1.
         21   -1    0    0  502  503 -0.00000000000E+00 -0.00000000000E+00 -0.70619953115E+03  0.70619953115E+03  0.00000000000E+00 0. -1.
          6    1    1    2  501    0  0.12710625993E+03  0.20177906030E+03  0.32420510056E+03  0.43807389527E+03  0.17300000000E+03 0.  1.
         -6    1    1    2    0  503 -0.12710625993E+03 -0.20177906030E+03 -0.61584281294E+03  0.68268745465E+03  0.17300000000E+03 0. -1.
</event>
<event>
 4    1  0.5943823E+000  0.1000000E+03  0.7546771E-02  0.1280296E+00
         21   -1    0    0  503  502  0.00000000000E+00  0.00000000000E+00  0.83190248716E+03  0.83190248716E+03  0.00000000000E+00 0. -1.
         21   -1    0    0  501  503 -0.00000000000E+00 -0.00000000000E+00 -0.56197331548E+02  0.56197331548E+02  0.00000000000E+00 0.  1.
          6    1    1    2  501    0 -0.61783576457E+02  0.10680603380E+03  0.46992265523E+03  0.51573349811E+03  0.17300000000E+03 0.  1.
         -6    1    1    2    0  502  0.61783576457E+02 -0.10680603380E+03  0.30578250038E+03  0.37236632059E+03  0.17300000000E+03 0. -1.
</event>
<event>
 4    1  0.5943823E+000  0.1000000E+03  0.7546771E-02  0.1280296E+00
         21   -1    0    0  503  502  0.00000000000E+00  0.00000000000E+00  0.29419680936E+03  0.29419680936E+03  0.00000000000E+00 0. -1.
         21   -1    0    0  501  503 -0.00000000000E+00 -0.00000000000E+00 -0.34477242435E+03  0.34477242435E+03  0.00000000000E+00 0.  1.
          6    1    1    2  501    0 -0.26205581744E+02  0.21235017616E+03 -0.18617530255E+03  0.33221916427E+03  0.17300000000E+03 0.  1.
         -6    1    1    2    0  502  0.26205581744E+02 -0.21235017616E+03  0.13559968756E+03  0.30675006943E+03  0.17300000000E+03 0. -1.
</event>
<event>
 4    1  0.5943823E+000  0.1000000E+03  0.7546771E-02  0.1280296E+00
         21   -1    0    0  501  502  0.00000000000E+00  0.00000000000E+00  0.12299753879E+03  0.12299753879E+03  0.00000000000E+00 0.  1.
         21   -1    0    0  502  503 -0.00000000000E+00 -0.00000000000E+00 -0.35444033534E+03  0.35444033534E+03  0.00000000000E+00 0.  1.
          6    1    1    2  501    0  0.83280099976E+02 -0.36634704223E+02 -0.31793652081E+02  0.19803412059E+03  0.17300000000E+03 0.  1.
         -6    1    1    2    0  503 -0.83280099976E+02  0.36634704223E+02 -0.19964914447E+03  0.27940375354E+03  0.17300000000E+03 0.  1.
</event>
<event>
 4    1  0.5943823E+000  0.1000000E+03  0.7546771E-02  0.1280296E+00
         21   -1    0    0  501  502  0.00000000000E+00  0.00000000000E+00  0.21202805141E+03  0.21202805141E+03  0.00000000000E+00 0. -1.
         21   -1    0    0  502  503 -0.00000000000E+00 -0.00000000000E+00 -0.18154714063E+03  0.18154714063E+03  0.00000000000E+00 0.  1.
          6    1    1    2  501    0 -0.40952427371E+02  0.80839528263E+02  0.34057457539E+02  0.19824490170E+03  0.17300000000E+03 0. -1.
         -6    1    1    2    0  503  0.40952427371E+02 -0.80839528263E+02 -0.35765467520E+01  0.19533029034E+03  0.17300000000E+03 0.  1.
</event>
<event>
 4    1  0.5943823E+000  0.1000000E+03  0.7546771E-02  0.1280296E+00
         21   -1    0    0  501  502  0.00000000000E+00  0.00000000000E+00  0.40196532791E+03  0.40196532791E+03  0.00000000000E+00 0. -1.
         21   -1    0    0  502  503 -0.00000000000E+00 -0.00000000000E+00 -0.23490364258E+03  0.23490364258E+03  0.00000000000E+00 0.  1.
          6    1    1    2  501    0 -0.88696814475E+02  0.22248482317E+03  0.17101904277E+03  0.34138414496E+03  0.17300000000E+03 0. -1.
         -6    1    1    2    0  503  0.88696814475E+02 -0.22248482317E+03 -0.39573574368E+01  0.29548482553E+03  0.17300000000E+03 0.  1.
</event>
<event>
 4    1  0.5943823E+000  0.1000000E+03  0.7546771E-02  0.1280296E+00
         21   -1    0    0  501  502  0.00000000000E+00  0.00000000000E+00  0.82157025326E+02  0.82157025326E+02  0.00000000000E+00 0. -1.
         21   -1    0    0  502  503 -0.00000000000E+00 -0.00000000000E+00 -0.82105757244E+03  0.82105757244E+03  0.00000000000E+00 0.  1.
          6    1    1    2  501    0  0.11116958475E+02  0.14840205141E+03 -0.15381071269E+03  0.27519718561E+03  0.17300000000E+03 0. -1.
         -6    1    1    2    0  503 -0.11116958475E+02 -0.14840205141E+03 -0.58508983442E+03  0.62801741215E+03  0.17300000000E+03 0.  1.
</event>
<event>
 4    1  0.5943823E+000  0.1000000E+03  0.7546771E-02  0.1280296E+00
         21   -1    0    0  501  502  0.00000000000E+00  0.00000000000E+00  0.61905763418E+03  0.61905763418E+03  0.00000000000E+00 0.  1.
         21   -1    0    0  502  503 -0.00000000000E+00 -0.00000000000E+00 -0.60503767947E+02  0.60503767947E+02  0.00000000000E+00 0.  1.
          6    1    1    2  501    0 -0.46703450849E+02 -0.42900936281E+02  0.38321202970E+03  0.42520837522E+03  0.17300000000E+03 0. -1.
         -6    1    1    2    0  503  0.46703450849E+02  0.42900936281E+02  0.17534183653E+03  0.25435302690E+03  0.17300000000E+03 0. -1.
</event>
<event>
 4    1  0.5943823E+000  0.1000000E+03  0.7546771E-02  0.1280296E+00
         21   -1    0    0  501  502  0.00000000000E+00  0.00000000000E+00  0.18307489838E+03  0.18307489838E+03  0.00000000000E+00 0.  1.
         21   -1    0    0  502  503 -0.00000000000E+00 -0.00000000000E+00 -0.24485402669E+03  0.24485402669E+03  0.00000000000E+00 0.  1.
          6    1    1    2  501    0 -0.10771145396E+03  0.41544325564E+02  0.91523506841E+01  0.20818370211E+03  0.17300000000E+03 0. -1.
         -6    1    1    2    0  503  0.10771145396E+03 -0.41544325564E+02 -0.70931479000E+02  0.21974522296E+03  0.17300000000E+03 0. -1.
</event>
<event>
 4    1  0.5943823E+000  0.1000000E+03  0.7546771E-02  0.1280296E+00
         21   -1    0    0  501  502  0.00000000000E+00  0.00000000000E+00  0.61178588614E+03  0.61178588614E+03  0.00000000000E+00 0.  1.
         21   -1    0    0  502  503 -0.00000000000E+00 -0.00000000000E+00 -0.52806519648E+03  0.52806519648E+03  0.00000000000E+00 0.  1.
          6    1    1    2  501    0 -0.23717173411E+02  0.31364492722E+03  0.48373308426E+03  0.60238056201E+03  0.17300000000E+03 0. -1.
         -6    1    1    2    0  503  0.23717173411E+02 -0.31364492722E+03 -0.40001239460E+03  0.53747052060E+03  0.17300000000E+03 0. -1.
</event>
<event>
 4    1  0.5943823E+000  0.1000000E+03  0.7546771E-02  0.1280296E+00
         21   -1    0    0  501  502  0.00000000000E+00  0.00000000000E+00  0.18047365208E+04  0.18047365208E+04  0.00000000000E+00 0.  1.
         21   -1    0    0  502  503 -0.00000000000E+00 -0.00000000000E+00 -0.35741649779E+02  0.35741649779E+02  0.00000000000E+00 0.  1.
          6    1    1    2  501    0 -0.14688069472E+03 -0.27241068429E+02  0.12856765919E+04  0.13058366334E+04  0.17300000000E+03 0.  1.
         -6    1    1    2    0  503  0.14688069472E+03  0.27241068429E+02  0.48331827910E+03  0.53464153711E+03  0.17300000000E+03 0.  1.
</event>
<event>
 4    1  0.5943823E+000  0.1000000E+03  0.7546771E-02  0.1280296E+00
         21   -1    0    0  501  502  0.00000000000E+00  0.00000000000E+00  0.37820097610E+02  0.37820097610E+02  0.00000000000E+00 0.  1.
         21   -1    0    0  502  503 -0.00000000000E+00 -0.00000000000E+00 -0.10669727381E+04  0.10669727381E+04  0.00000000000E+00 0.  1.
          6    1    1    2  501    0  0.95912706412E+02  0.10540797004E+02 -0.42280886625E+03  0.46691186859E+03  0.17300000000E+03 0.  1.
         -6    1    1    2    0  503 -0.95912706412E+02 -0.10540797004E+02 -0.60634377427E+03  0.63788096715E+03  0.17300000000E+03 0.  1.
</event>
<event>
 4    1  0.5943823E+000  0.1000000E+03  0.7546771E-02  0.1280296E+00
         21   -1    0    0  501  502  0.00000000000E+00  0.00000000000E+00  0.77733139309E+02  0.77733139309E+02  0.00000000000E+00 0.  1.
         21   -1    0    0  502  503 -0.00000000000E+00 -0.00000000000E+00 -0.17890530630E+04  0.17890530630E+04  0.00000000000E+00 0.  1.
          6    1    1    2  501    0 -0.11886390306E+03 -0.18987020610E+03 -0.24790286373E+03  0.37625011955E+03  0.17300000000E+03 0.  1.
         -6    1    1    2    0  503  0.11886390306E+03  0.18987020610E+03 -0.14634170600E+04  0.14905360828E+04  0.17300000000E+03 0.  1.
</event>
<event>
 4    1  0.5943823E+000  0.1000000E+03  0.7546771E-02  0.1280296E+00
         21   -1    0    0  501  502  0.00000000000E+00  0.00000000000E+00  0.17552921354E+03  0.17552921354E+03  0.00000000000E+00 0.  1.
         21   -1    0    0  502  503 -0.00000000000E+00 -0.00000000000E+00 -0.29982510188E+03  0.29982510188E+03  0.00000000000E+00 0.  1.
          6    1    1    2  501    0  0.72539074535E+02 -0.12401527373E+03 -0.15154878840E+02  0.22538938707E+03  0.17300000000E+03 0.  1.
         -6    1    1    2    0  503 -0.72539074535E+02  0.12401527373E+03 -0.10914100950E+03  0.24996492836E+03  0.17300000000E+03 0.  1.
</event>
<event>
 4    1  0.5943823E+000  0.1000000E+03  0.7546771E-02  0.1280296E+00
         21   -1    0    0  501  502  0.00000000000E+00  0.00000000000E+00  0.47189379497E+02  0.47189379497E+02  0.00000000000E+00 0.  1.
         21   -1    0    0  502  503 -0.00000000000E+00 -0.00000000000E+00 -0.72378026861E+03  0.72378026861E+03  0.00000000000E+00 0.  1.
          6    1    1    2  501    0 -0.32612966425E+02 -0.39780675003E+02 -0.25539439474E+03  0.31273216104E+03  0.17300000000E+03 0.  1.
         -6    1    1    2    0  503  0.32612966425E+02  0.39780675003E+02 -0.42119649437E+03  0.45823748706E+03  0.17300000000E+03 0.  1.
</event>
<event>
 4    1  0.5943823E+000  0.1000000E+03  0.7546771E-02  0.1280296E+00
         21   -1    0    0  501  502  0.00000000000E+00  0.00000000000E+00  0.71900742042E+03  0.71900742042E+03  0.00000000000E+00 0.  1.
         21   -1    0    0  502  503 -0.00000000000E+00 -0.00000000000E+00 -0.89947899834E+02  0.89947899834E+02  0.00000000000E+00 0.  1.
          6    1    1    2  501    0  0.14688033232E+02 -0.28430491136E+02  0.60659324195E+03  0.63159195081E+03  0.17300000000E+03 0.  1.
         -6    1    1    2    0  503 -0.14688033232E+02  0.28430491136E+02  0.22466278639E+02  0.17736336945E+03  0.17300000000E+03 0.  1.
</event>
<event>
 4    1  0.5943823E+000  0.1000000E+03  0.7546771E-02  0.1280296E+00
         21   -1    0    0  503  502  0.00000000000E+00  0.00000000000E+00  0.56256044128E+03  0.56256044128E+03  0.00000000000E+00 0.  1.
         21   -1    0    0  501  503 -0.00000000000E+00 -0.00000000000E+00 -0.10885048298E+03  0.10885048298E+03  0.00000000000E+00 0.  1.
          6    1    1    2  501    0  0.43523747687E+02 -0.10582296994E+03  0.43770612534E+02  0.21198510349E+03  0.17300000000E+03 0. -1.
         -6    1    1    2    0  502 -0.43523747687E+02  0.10582296994E+03  0.40993934577E+03  0.45942582077E+03  0.17300000000E+03 0. -1.
</event>
<event>
 4    1  0.5943823E+000  0.1000000E+03  0.7546771E-02  0.1280296E+00
         21   -1    0    0  503  502  0.00000000000E+00  0.00000000000E+00  0.24392490082E+03  0.24392490082E+03  0.00000000000E+00 0.  1.
         21   -1    0    0  501  503 -0.00000000000E+00 -0.00000000000E+00 -0.14021518785E+03  0.14021518785E+03  0.00000000000E+00 0. -1.
          6    1    1    2  501    0 -0.55659992422E+02 -0.33090291519E+02  0.61142541333E+02  0.19457752314E+03  0.17300000000E+03 0. -1.
         -6    1    1    2    0  502  0.55659992422E+02  0.33090291519E+02  0.42567171639E+02  0.18956256553E+03  0.17300000000E+03 0.  1.
</event>
<event>
 4    1  0.5943823E+000  0.1000000E+03  0.7546771E-02  0.1280296E+00
         21   -1    0    0  503  502  0.00000000000E+00  0.00000000000E+00  0.12955049267E+03  0.12955049267E+03  0.00000000000E+00 0.  1.
         21   -1    0    0  501  503 -0.00000000000E+00 -0.00000000000E+00 -0.29013562105E+03  0.29013562105E+03  0.00000000000E+00 0. -1.
          6    1    1    2  501    0 -0.57293300629E+02 -0.19116122989E+02 -0.14883523705E+03  0.23606964278E+03  0.17300000000E+03 0. -1.
         -6    1    1    2    0  502  0.57293300629E+02  0.19116122989E+02 -0.11749891340E+02  0.18361647094E+03  0.17300000000E+03 0.  1.
</event>
<event>
 4    1  0.5943823E+000  0.1000000E+03  0.7546771E-02  0.1280296E+00
         21   -1    0    0  503  502  0.00000000000E+00  0.00000000000E+00  0.20576490010E+03  0.20576490010E+03  0.00000000000E+00 0.  1.
         21   -1    0    0  501  503 -0.00000000000E+00 -0.00000000000E+00 -0.50506964804E+03  0.50506964804E+03  0.00000000000E+00 0. -1.
          6    1    1    2  501    0 -0.68189760367E+02  0.27784877557E+02 -0.43836076518E+03  0.47698113515E+03  0.17300000000E+03 0. -1.
         -6    1    1    2    0  502  0.68189760367E+02 -0.27784877557E+02  0.13905601724E+03  0.23385341300E+03  0.17300000000E+03 0.  1.
</event>
<event>
 4    1  0.5943823E+000  0.1000000E+03  0.7546771E-02  0.1280296E+00
         21   -1    0    0  503  502  0.00000000000E+00  0.00000000000E+00  0.27952246318E+03  0.27952246318E+03  0.00000000000E+00 0.  1.
         21   -1    0    0  501  503 -0.00000000000E+00 -0.00000000000E+00 -0.18240661572E+03  0.18240661572E+03  0.00000000000E+00 0.  1.
          6    1    1    2  501    0 -0.11068841625E+03  0.42839189743E+02 -0.36841022498E+02  0.21301028756E+03  0.17300000000E+03 0.  1.
         -6    1    1    2    0  502  0.11068841625E+03 -0.42839189743E+02  0.13395686997E+03  0.24891879134E+03  0.17300000000E+03 0.  1.
</event>
<event>
 4    1  0.5943823E+000  0.1000000E+03  0.7546771E-02  0.1280296E+00
         21   -1    0    0  503  502  0.00000000000E+00  0.00000000000E+00  0.56164166291E+03  0.56164166291E+03  0.00000000000E+00 0.  1.
         21   -1    0    0  501  503 -0.00000000000E+00 -0.00000000000E+00 -0.52449432176E+03  0.52449432176E+03  0.00000000000E+00 0.  1.
          6    1    1    2  501    0 -0.15034317086E+03 -0.31179331776E+03 -0.36221542175E+03  0.53004448283E+03  0.17300000000E+03 0.  1.
         -6    1    1    2    0  502  0.15034317086E+03  0.31179331776E+03  0.39936276290E+03  0.55609150184E+03  0.17300000000E+03 0.  1.
</event>
<event>
 4    1  0.5943823E+000  0.1000000E+03  0.7546771E-02  0.1280296E+00
         21   -1    0    0  501  502  0.00000000000E+00  0.00000000000E+00  0.10091547731E+04  0.10091547731E+04  0.00000000000E+00 0. -1.
         21   -1    0    0  502  503 -0.00000000000E+00 -0.00000000000E+00 -0.57231488684E+02  0.57231488684E+02  0.00000000000E+00 0.  1.
          6    1    1    2  501    0 -0.75790717295E+02  0.38073179455E+02  0.79464943751E+03  0.81767385207E+03  0.17300000000E+03 0. -1.
         -6    1    1    2    0  503  0.75790717295E+02 -0.38073179455E+02  0.15727384688E+03  0.24871240969E+03  0.17300000000E+03 0.  1.
</event>
<event>
 4    1  0.5943823E+000  0.1000000E+03  0.7546771E-02  0.1280296E+00
         21   -1    0    0  501  502  0.00000000000E+00  0.00000000000E+00  0.90906737060E+02  0.90906737060E+02  0.00000000000E+00 0. -1.
         21   -1    0    0  502  503 -0.00000000000E+00 -0.00000000000E+00 -0.51549501494E+03  0.51549501494E+03  0.00000000000E+00 0.  1.
          6    1    1    2  501    0 -0.82706418650E+02  0.63463007535E+02 -0.32137232406E+03  0.37957486177E+03  0.17300000000E+03 0. -1.
         -6    1    1    2    0  503  0.82706418650E+02 -0.63463007535E+02 -0.10321595382E+03  0.22682689024E+03  0.17300000000E+03 0.  1.
</event>
<event>
 4    1  0.5943823E+000  0.1000000E+03  0.7546771E-02  0.1280296E+00
         21   -1    0    0  501  502  0.00000000000E+00  0.00000000000E+00  0.42304590709E+02  0.42304590709E+02  0.00000000000E+00 0. -1.
         21   -1    0    0  502  503 -0.00000000000E+00 -0.00000000000E+00 -0.11312365273E+04  0.11312365273E+04  0.00000000000E+00 0.  1.
          6    1    1    2  501    0 -0.28439682610E+02 -0.10834221083E+03 -0.34771578269E+03  0.40420553649E+03  0.17300000000E+03 0. -1.
         -6    1    1    2    0  503  0.28439682610E+02  0.10834221083E+03 -0.74121615390E+03  0.76933558153E+03  0.17300000000E+03 0.  1.
</event>
<event>
 4    1  0.5943823E+000  0.1000000E+03  0.7546771E-02  0.1280296E+00
         21   -1    0    0  503  502  0.00000000000E+00  0.00000000000E+00  0.64314870069E+03  0.64314870069E+03  0.00000000000E+00 0. -1.
         21   -1    0    0  501  503 -0.00000000000E+00 -0.00000000000E+00 -0.83076767475E+02  0.83076767475E+02  0.00000000000E+00 0.  1.
          6    1    1    2  501    0 -0.13688827380E+03 -0.42922822098E+02  0.36493599144E+03  0.42858843429E+03  0.17300000000E+03 0.  1.
         -6    1    1    2    0  502  0.13688827380E+03  0.42922822098E+02  0.19513594177E+03  0.29763703387E+03  0.17300000000E+03 0. -1.
</event>
<event>
 4    1  0.5943823E+000  0.1000000E+03  0.7546771E-02  0.1280296E+00
         21   -1    0    0  503  502  0.00000000000E+00  0.00000000000E+00  0.33297267115E+03  0.33297267115E+03  0.00000000000E+00 0.  1.
         21   -1    0    0  501  503 -0.00000000000E+00 -0.00000000000E+00 -0.20385124309E+03  0.20385124309E+03  0.00000000000E+00 0.  1.
          6    1    1    2  501    0  0.30163539987E+02  0.31188757704E+02 -0.13109194183E+03  0.22135192560E+03  0.17300000000E+03 0.  1.
         -6    1    1    2    0  502 -0.30163539987E+02 -0.31188757704E+02  0.26021336989E+03  0.31547198865E+03  0.17300000000E+03 0.  1.
</event>
<event>
 4    1  0.5943823E+000  0.1000000E+03  0.7546771E-02  0.1280296E+00
         21   -1    0    0  503  502  0.00000000000E+00  0.00000000000E+00  0.51471292016E+03  0.51471292016E+03  0.00000000000E+00 0.  1.
         21   -1    0    0  501  503 -0.00000000000E+00 -0.00000000000E+00 -0.19042114353E+03  0.19042114353E+03  0.00000000000E+00 0.  1.
          6    1    1    2  501    0  0.32164287798E+02  0.11297637801E+03 -0.10024066755E+03  0.23189522382E+03  0.17300000000E+03 0.  1.
         -6    1    1    2    0  502 -0.32164287798E+02 -0.11297637801E+03  0.42453244418E+03  0.47323883987E+03  0.17300000000E+03 0.  1.
</event>
<event>
 4    1  0.5943823E+000  0.1000000E+03  0.7546771E-02  0.1280296E+00
         21   -1    0    0  501  502  0.00000000000E+00  0.00000000000E+00  0.48565059235E+02  0.48565059235E+02  0.00000000000E+00 0. -1.
         21   -1    0    0  502  503 -0.00000000000E+00 -0.00000000000E+00 -0.92182382421E+03  0.92182382421E+03  0.00000000000E+00 0. -1.
          6    1    1    2  501    0 -0.59954542484E+02 -0.10162878029E+03 -0.36720858385E+03  0.42272224947E+03  0.17300000000E+03 0. -1.
         -6    1    1    2    0  503  0.59954542484E+02  0.10162878029E+03 -0.50605018113E+03  0.54766663397E+03  0.17300000000E+03 0. -1.
</event>
<event>
 4    1  0.5943823E+000  0.1000000E+03  0.7546771E-02  0.1280296E+00
         21   -1    0    0  501  502  0.00000000000E+00  0.00000000000E+00  0.58466330153E+02  0.58466330153E+02  0.00000000000E+00 0.  1.
         21   -1    0    0  502  503 -0.00000000000E+00 -0.00000000000E+00 -0.14088066188E+04  0.14088066188E+04  0.00000000000E+00 0. -1.
          6    1    1    2  501    0 -0.15587417439E+03 -0.10485805501E+03 -0.34044091974E+03  0.42558311735E+03  0.17300000000E+03 0.  1.
         -6    1    1    2    0  503  0.15587417439E+03  0.10485805501E+03 -0.10098993689E+04  0.10416898316E+04  0.17300000000E+03 0. -1.
</event>
<event>
 4    1  0.5943823E+000  0.1000000E+03  0.7546771E-02  0.1280296E+00
         21   -1    0    0  501  502  0.00000000000E+00  0.00000000000E+00  0.37425585026E+03  0.37425585026E+03  0.00000000000E+00 0.  1.
         21   -1    0    0  502  503 -0.00000000000E+00 -0.00000000000E+00 -0.19290263258E+03  0.19290263258E+03  0.00000000000E+00 0. -1.
          6    1    1    2  501    0 -0.23998403759E+02  0.19790833655E+03  0.14368198516E+03  0.30052811169E+03  0.17300000000E+03 0.  1.
         -6    1    1    2    0  503  0.23998403759E+02 -0.19790833655E+03  0.37671232516E+02  0.26663037115E+03  0.17300000000E+03 0. -1.
</event>
<event>
 4    1  0.5943823E+000  0.1000000E+03  0.7546771E-02  0.1280296E+00
         21   -1    0    0  501  502  0.00000000000E+00  0.00000000000E+00  0.22216482837E+03  0.22216482837E+03  0.00000000000E+00 0.  1.
         21   -1    0    0  502  503 -0.00000000000E+00 -0.00000000000E+00 -0.20991616367E+03  0.20991616367E+03  0.00000000000E+00 0. -1.
          6    1    1    2  501    0 -0.10236128265E+03 -0.69382666134E+02  0.43758626809E+02  0.21710735585E+03  0.17300000000E+03 0.  1.
         -6    1    1    2    0  503  0.10236128265E+03  0.69382666134E+02 -0.31509962110E+02  0.21497363619E+03  0.17300000000E+03 0. -1.
</event>
<event>
 4    1  0.5943823E+000  0.1000000E+03  0.7546771E-02  0.1280296E+00
         21   -1    0    0  501  502  0.00000000000E+00  0.00000000000E+00  0.16922010684E+03  0.16922010684E+03  0.00000000000E+00 0.  1.
         21   -1    0    0  502  503 -0.00000000000E+00 -0.00000000000E+00 -0.36622168594E+03  0.36622168594E+03  0.00000000000E+00 0. -1.
          6    1    1    2  501    0  0.40312962328E+02  0.12202691421E+03  0.35507977496E+02  0.21841593163E+03  0.17300000000E+03 0.  1.
         -6    1    1    2    0  503 -0.40312962328E+02 -0.12202691421E+03 -0.23250955660E+03  0.31702586114E+03  0.17300000000E+03 0. -1.
</event>
<event>
 4    1  0.5943823E+000  0.1000000E+03  0.7546771E-02  0.1280296E+00
         21   -1    0    0  503  502  0.00000000000E+00  0.00000000000E+00  0.10951010259E+04  0.10951010259E+04  0.00000000000E+00 0. -1.
         21   -1    0    0  501  503 -0.00000000000E+00 -0.00000000000E+00 -0.40681188678E+02  0.40681188678E+02  0.00000000000E+00 0. -1.
          6    1    1    2  501    0  0.15955724865E+02 -0.39069589259E+02  0.22233369254E+03  0.28485485567E+03  0.17300000000E+03 0. -1.
         -6    1    1    2    0  502 -0.15955724865E+02  0.39069589259E+02  0.83208614466E+03  0.85092735888E+03  0.17300000000E+03 0. -1.
</event>
<event>
 4    1  0.5943823E+000  0.1000000E+03  0.7546771E-02  0.1280296E+00
         21   -1    0    0  503  502  0.00000000000E+00  0.00000000000E+00  0.93377342153E+03  0.93377342153E+03  0.00000000000E+00 0. -1.
         21   -1    0    0  501  503 -0.00000000000E+00 -0.00000000000E+00 -0.48863544458E+02  0.48863544458E+02  0.00000000000E+00 0. -1.
          6    1    1    2  501    0 -0.98246909569E+02 -0.28504774704E+02  0.27605772530E+03  0.34147012332E+03  0.17300000000E+03 0. -1.
         -6    1    1    2    0  502  0.98246909569E+02  0.28504774704E+02  0.60885215177E+03  0.64116684267E+03  0.17300000000E+03 0. -1.
</event>
<event>
 4    1  0.5943823E+000  0.1000000E+03  0.7546771E-02  0.1280296E+00
         21   -1    0    0  501  502  0.00000000000E+00  0.00000000000E+00  0.55136259641E+03  0.55136259641E+03  0.00000000000E+00 0.  1.
         21   -1    0    0  502  503 -0.00000000000E+00 -0.00000000000E+00 -0.11319436589E+03  0.11319436589E+03  0.00000000000E+00 0. -1.
          6    1    1    2  501    0 -0.64631388995E+02 -0.22648243833E+02  0.44081740767E+03  0.47847585759E+03  0.17300000000E+03 0. -1.
         -6    1    1    2    0  503  0.64631388995E+02  0.22648243833E+02 -0.26491771444E+01  0.18608110471E+03  0.17300000000E+03 0.  1.
</event>
<event>
 4    1  0.5943823E+000  0.1000000E+03  0.7546771E-02  0.1280296E+00
         21   -1    0    0  501  502  0.00000000000E+00  0.00000000000E+00  0.47329477550E+03  0.47329477550E+03  0.00000000000E+00 0.  1.
         21   -1    0    0  502  503 -0.00000000000E+00 -0.00000000000E+00 -0.72377024425E+02  0.72377024425E+02  0.00000000000E+00 0. -1.
          6    1    1    2  501    0 -0.63362485113E+02  0.15323333359E+02  0.18751854218E+03  0.26332833635E+03  0.17300000000E+03 0. -1.
         -6    1    1    2    0  503  0.63362485113E+02 -0.15323333359E+02  0.21339920890E+03  0.28234346357E+03  0.17300000000E+03 0.  1.
</event>
<event>
 4    1  0.5943823E+000  0.1000000E+03  0.7546771E-02  0.1280296E+00
         21   -1    0    0  501  502  0.00000000000E+00  0.00000000000E+00  0.42454207288E+03  0.42454207288E+03  0.00000000000E+00 0.  1.
         21   -1    0    0  502  503 -0.00000000000E+00 -0.00000000000E+00 -0.20738136781E+03  0.20738136781E+03  0.00000000000E+00 0.  1.
          6    1    1    2  501    0 -0.52810206004E+02  0.16274202969E+03  0.28941475789E+03  0.37810552518E+03  0.17300000000E+03 0.  1.
         -6    1    1    2    0  503  0.52810206004E+02 -0.16274202969E+03 -0.72254052818E+02  0.25381791551E+03  0.17300000000E+03 0.  1.
</event>
<event>
 4    1  0.5943823E+000  0.1000000E+03  0.7546771E-02  0.1280296E+00
         21   -1    0    0  501  502  0.00000000000E+00  0.00000000000E+00  0.15683665595E+03  0.15683665595E+03  0.00000000000E+00 0.  1.
         21   -1    0    0  502  503 -0.00000000000E+00 -0.00000000000E+00 -0.30496726091E+03  0.30496726091E+03  0.00000000000E+00 0.  1.
          6    1    1    2  501    0  0.28193483290E+02  0.77415371019E+02  0.37234277668E+02  0.19520093136E+03  0.17300000000E+03 0.  1.
         -6    1    1    2    0  503 -0.28193483290E+02 -0.77415371019E+02 -0.18536488263E+03  0.26660298551E+03  0.17300000000E+03 0.  1.
</event>
<event>
 4    1  0.5943823E+000  0.1000000E+03  0.7546771E-02  0.1280296E+00
         21   -1    0    0  501  502  0.00000000000E+00  0.00000000000E+00  0.52044770413E+02  0.52044770413E+02  0.00000000000E+00 0.  1.
         21   -1    0    0  502  503 -0.00000000000E+00 -0.00000000000E+00 -0.13381196373E+04  0.13381196373E+04  0.00000000000E+00 0.  1.
          6    1    1    2  501    0  0.51542685862E+02  0.16237192151E+02 -0.13781599396E+03  0.22768957611E+03  0.17300000000E+03 0.  1.
         -6    1    1    2    0  503 -0.51542685862E+02 -0.16237192151E+02 -0.11482588729E+04  0.11624748316E+04  0.17300000000E+03 0.  1.
</event>
<event>
 4    1  0.5943823E+000  0.1000000E+03  0.7546771E-02  0.1280296E+00
         21   -1    0    0  501  502  0.00000000000E+00  0.00000000000E+00  0.63630725573E+03  0.63630725573E+03  0.00000000000E+00 0. -1.
         21   -1    0    0  502  503 -0.00000000000E+00 -0.00000000000E+00 -0.99862647315E+02  0.99862647315E+02  0.00000000000E+00 0.  1.
          6    1    1    2  501    0 -0.77521924521E+02  0.40677413743E+01  0.51075719977E+03  0.54481933925E+03  0.17300000000E+03 0. -1.
         -6    1    1    2    0  503  0.77521924521E+02 -0.40677413743E+01  0.25687408641E+02  0.19135056379E+03  0.17300000000E+03 0.  1.
</event>
<event>
 4    1  0.5943823E+000  0.1000000E+03  0.7546771E-02  0.1280296E+00
         21   -1    0    0  501  502  0.00000000000E+00  0.00000000000E+00  0.67356371009E+03  0.67356371009E+03  0.00000000000E+00 0.  1.
         21   -1    0    0  502  503 -0.00000000000E+00 -0.00000000000E+00 -0.77736028091E+02  0.77736028091E+02  0.00000000000E+00 0.  1.
          6    1    1    2  501    0 -0.49128520098E+02 -0.51878213535E+02  0.51400374530E+03  0.54702267842E+03  0.17300000000E+03 0.  1.
         -6    1    1    2    0  503  0.49128520098E+02  0.51878213535E+02  0.81823936699E+02  0.20427705976E+03  0.17300000000E+03 0.  1.
</event>
<event>
 4    1  0.5943823E+000  0.1000000E+03  0.7546771E-02  0.1280296E+00
         21   -1    0    0  501  502  0.00000000000E+00  0.00000000000E+00  0.77301803261E+03  0.77301803261E+03  0.00000000000E+00 0. -1.
         21   -1    0    0  502  503 -0.00000000000E+00 -0.00000000000E+00 -0.71330475459E+02  0.71330475459E+02  0.00000000000E+00 0.  1.
          6    1    1    2  501    0  0.86194909431E+02 -0.10693982609E+03  0.49405500627E+03  0.54118854204E+03  0.17300000000E+03 0. -1.
         -6    1    1    2    0  503 -0.86194909431E+02  0.10693982609E+03  0.20763255089E+03  0.30315996603E+03  0.17300000000E+03 0.  1.
</event>
<event>
 4    1  0.5943823E+000  0.1000000E+03  0.7546771E-02  0.1280296E+00
         21   -1    0    0  503  502  0.00000000000E+00  0.00000000000E+00  0.41951162750E+03  0.41951162750E+03  0.00000000000E+00 0. -1.
         21   -1    0    0  501  503 -0.00000000000E+00 -0.00000000000E+00 -0.95609595260E+02  0.95609595260E+02  0.00000000000E+00 0.  1.
          6    1    1    2  501    0 -0.64211035384E+02 -0.55716034505E+02  0.92065258811E+02  0.21361728733E+03  0.17300000000E+03 0.  1.
         -6    1    1    2    0  502  0.64211035384E+02  0.55716034505E+02  0.23183677343E+03  0.30150393543E+03  0.17300000000E+03 0.  1.
</event>
<event>
 4    1  0.5943823E+000  0.1000000E+03  0.7546771E-02  0.1280296E+00
         21   -1    0    0  501  502  0.00000000000E+00  0.00000000000E+00  0.19965938088E+03  0.19965938088E+03  0.00000000000E+00 0. -1.
         21   -1    0    0  502  503 -0.00000000000E+00 -0.00000000000E+00 -0.21291341946E+03  0.21291341946E+03  0.00000000000E+00 0. -1.
          6    1    1    2  501    0 -0.21233325540E+02  0.10259086240E+03 -0.46715433018E+02  0.20757425381E+03  0.17300000000E+03 0. -1.
         -6    1    1    2    0  503  0.21233325540E+02 -0.10259086240E+03  0.33461394436E+02  0.20499854653E+03  0.17300000000E+03 0. -1.
</event>
<event>
 4    1  0.5943823E+000  0.1000000E+03  0.7546771E-02  0.1280296E+00
         21   -1    0    0  503  502  0.00000000000E+00  0.00000000000E+00  0.56340710326E+03  0.56340710326E+03  0.00000000000E+00 0.  1.
         21   -1    0    0  501  503 -0.00000000000E+00 -0.00000000000E+00 -0.17266437400E+03  0.17266437400E+03  0.00000000000E+00 0.  1.
          6    1    1    2  501    0  0.12141933365E+03 -0.21428021848E+03  0.98838073771E+02  0.31679114799E+03  0.17300000000E+03 0. -1.
         -6    1    1    2    0  502 -0.12141933365E+03  0.21428021848E+03  0.29190465550E+03  0.41928032927E+03  0.17300000000E+03 0. -1.
</event>
<event>
 4    1  0.5943823E+000  0.1000000E+03  0.7546771E-02  0.1280296E+00
         21   -1    0    0  501  502  0.00000000000E+00  0.00000000000E+00  0.24727684920E+03  0.24727684920E+03  0.00000000000E+00 0. -1.
         21   -1    0    0  502  503 -0.00000000000E+00 -0.00000000000E+00 -0.21070680628E+03  0.21070680628E+03  0.00000000000E+00 0. -1.
          6    1    1    2  501    0  0.33803590225E+02 -0.17832275370E+02 -0.12609696610E+03  0.21746291090E+03  0.17300000000E+03 0. -1.
         -6    1    1    2    0  503 -0.33803590225E+02  0.17832275370E+02  0.16266700901E+03  0.24052074459E+03  0.17300000000E+03 0. -1.
</event>
<event>
 4    1  0.5943823E+000  0.1000000E+03  0.7546771E-02  0.1280296E+00
         21   -1    0    0  501  502  0.00000000000E+00  0.00000000000E+00  0.12959159759E+04  0.12959159759E+04  0.00000000000E+00 0. -1.
         21   -1    0    0  502  503 -0.00000000000E+00 -0.00000000000E+00 -0.24967018645E+03  0.24967018645E+03  0.00000000000E+00 0. -1.
          6    1    1    2  501    0  0.51503148513E+03 -0.46953947567E+02  0.74286552068E+03  0.92154234069E+03  0.17300000000E+03 0. -1.
         -6    1    1    2    0  503 -0.51503148513E+03  0.46953947567E+02  0.30338026877E+03  0.62404382166E+03  0.17300000000E+03 0. -1.
</event>
<event>
 4    1  0.5943823E+000  0.1000000E+03  0.7546771E-02  0.1280296E+00
         21   -1    0    0  503  502  0.00000000000E+00  0.00000000000E+00  0.34869929589E+02  0.34869929589E+02  0.00000000000E+00 0. -1.
         21   -1    0    0  501  503 -0.00000000000E+00 -0.00000000000E+00 -0.14968123955E+04  0.14968123955E+04  0.00000000000E+00 0.  1.
          6    1    1    2  501    0  0.13972456558E+03  0.46058687755E+02 -0.81446622772E+03  0.84553450139E+03  0.17300000000E+03 0.  1.
         -6    1    1    2    0  502 -0.13972456558E+03 -0.46058687755E+02 -0.64747623815E+03  0.68614782366E+03  0.17300000000E+03 0. -1.
</event>
<event>
 4    1  0.5943823E+000  0.1000000E+03  0.7546771E-02  0.1280296E+00
         21   -1    0    0  503  502  0.00000000000E+00  0.00000000000E+00  0.43775178495E+02  0.43775178495E+02  0.00000000000E+00 0. -1.
         21   -1    0    0  501  503 -0.00000000000E+00 -0.00000000000E+00 -0.12017797171E+04  0.12017797171E+04  0.00000000000E+00 0.  1.
          6    1    1    2  501    0  0.70735283526E+02 -0.12916557620E+02 -0.93828365585E+03  0.95680485817E+03  0.17300000000E+03 0.  1.
         -6    1    1    2    0  502 -0.70735283526E+02  0.12916557620E+02 -0.21972088280E+03  0.28875003746E+03  0.17300000000E+03 0. -1.
</event>
<event>
 4    1  0.5943823E+000  0.1000000E+03  0.7546771E-02  0.1280296E+00
         21   -1    0    0  501  502  0.00000000000E+00  0.00000000000E+00  0.29051295017E+03  0.29051295017E+03  0.00000000000E+00 0.  1.
         21   -1    0    0  502  503 -0.00000000000E+00 -0.00000000000E+00 -0.29518761185E+03  0.29518761185E+03  0.00000000000E+00 0.  1.
          6    1    1    2  501    0  0.11996447161E+03  0.20328342588E+03 -0.12882726623E+02  0.29293444715E+03  0.17300000000E+03 0.  1.
         -6    1    1    2    0  503 -0.11996447161E+03 -0.20328342588E+03  0.82080649382E+01  0.29276611487E+03  0.17300000000E+03 0.  1.
</event>
<event>
 4    1  0.5943823E+000  0.1000000E+03  0.7546771E-02  0.1280296E+00
         21   -1    0    0  501  502  0.00000000000E+00  0.00000000000E+00  0.11813030663E+04  0.11813030663E+04  0.00000000000E+00 0.  1.
         21   -1    0    0  502  503 -0.00000000000E+00 -0.00000000000E+00 -0.15219945397E+03  0.15219945397E+03  0.00000000000E+00 0.  1.
          6    1    1    2  501    0 -0.35596403697E+03 -0.12722713177E+03  0.38329662346E+03  0.56545772630E+03  0.17300000000E+03 0.  1.
         -6    1    1    2    0  503  0.35596403697E+03  0.12722713177E+03  0.64580698890E+03  0.76804479400E+03  0.17300000000E+03 0.  1.
</event>
<event>
 4    1  0.5943823E+000  0.1000000E+03  0.7546771E-02  0.1280296E+00
         21   -1    0    0  501  502  0.00000000000E+00  0.00000000000E+00  0.55960309680E+03  0.55960309680E+03  0.00000000000E+00 0.  1.
         21   -1    0    0  502  503 -0.00000000000E+00 -0.00000000000E+00 -0.93298151536E+02  0.93298151536E+02  0.00000000000E+00 0.  1.
          6    1    1    2  501    0  0.14689020767E+03 -0.26257902270E+02  0.23863465654E+03  0.33036602404E+03  0.17300000000E+03 0.  1.
         -6    1    1    2    0  503 -0.14689020767E+03  0.26257902270E+02  0.22767028873E+03  0.32253522430E+03  0.17300000000E+03 0.  1.
</event>
<event>
 4    1  0.5943823E+000  0.1000000E+03  0.7546771E-02  0.1280296E+00
         21   -1    0    0  501  502  0.00000000000E+00  0.00000000000E+00  0.19018954033E+04  0.19018954033E+04  0.00000000000E+00 0.  1.
         21   -1    0    0  502  503 -0.00000000000E+00 -0.00000000000E+00 -0.26256243459E+02  0.26256243459E+02  0.00000000000E+00 0.  1.
          6    1    1    2  501    0 -0.33832205787E+02  0.19944975519E+02  0.15240639576E+04  0.15343540553E+04  0.17300000000E+03 0.  1.
         -6    1    1    2    0  503  0.33832205787E+02 -0.19944975519E+02  0.35157520222E+03  0.39379759143E+03  0.17300000000E+03 0.  1.
</event>
<event>
 4    1  0.5943823E+000  0.1000000E+03  0.7546771E-02  0.1280296E+00
         21   -1    0    0  501  502  0.00000000000E+00  0.00000000000E+00  0.51273508623E+03  0.51273508623E+03  0.00000000000E+00 0.  1.
         21   -1    0    0  502  503 -0.00000000000E+00 -0.00000000000E+00 -0.96144136511E+02  0.96144136511E+02  0.00000000000E+00 0.  1.
          6    1    1    2  501    0  0.10906778375E+03  0.85243292165E+02  0.18865020952E+03  0.29099845681E+03  0.17300000000E+03 0.  1.
         -6    1    1    2    0  503 -0.10906778375E+03 -0.85243292165E+02  0.22794074020E+03  0.31788076594E+03  0.17300000000E+03 0.  1.
</event>
<event>
 4    1  0.5943823E+000  0.1000000E+03  0.7546771E-02  0.1280296E+00
         21   -1    0    0  501  502  0.00000000000E+00  0.00000000000E+00  0.11499912874E+04  0.11499912874E+04  0.00000000000E+00 0.  1.
         21   -1    0    0  502  503 -0.00000000000E+00 -0.00000000000E+00 -0.11477031324E+03  0.11477031324E+03  0.00000000000E+00 0.  1.
          6    1    1    2  501    0 -0.67361738324E+02  0.31204090248E+03  0.53883894023E+03  0.64975651757E+03  0.17300000000E+03 0.  1.
         -6    1    1    2    0  503  0.67361738324E+02 -0.31204090248E+03  0.49638203398E+03  0.61500508312E+03  0.17300000000E+03 0.  1.
</event>
<event>
 4    1  0.5943823E+000  0.1000000E+03  0.7546771E-02  0.1280296E+00
         21   -1    0    0  501  502  0.00000000000E+00  0.00000000000E+00  0.93428445823E+02  0.93428445823E+02  0.00000000000E+00 0.  1.
         21   -1    0    0  502  503 -0.00000000000E+00 -0.00000000000E+00 -0.11396756679E+04  0.11396756679E+04  0.00000000000E+00 0.  1.
          6    1    1    2  501    0 -0.20497448606E+03 -0.21237688525E+02 -0.17429512492E+03  0.32058285968E+03  0.17300000000E+03 0.  1.
         -6    1    1    2    0  503  0.20497448606E+03  0.21237688525E+02 -0.87195209718E+03  0.91252125406E+03  0.17300000000E+03 0.  1.
</event>
<event>
 4    1  0.5943823E+000  0.1000000E+03  0.7546771E-02  0.1280296E+00
         21   -1    0    0  501  502  0.00000000000E+00  0.00000000000E+00  0.23336397375E+03  0.23336397375E+03  0.00000000000E+00 0.  1.
         21   -1    0    0  502  503 -0.00000000000E+00 -0.00000000000E+00 -0.52331073263E+03  0.52331073263E+03  0.00000000000E+00 0.  1.
          6    1    1    2  501    0  0.16356821010E+03 -0.25965851892E+02  0.13054439345E+03  0.27276294375E+03  0.17300000000E+03 0.  1.
         -6    1    1    2    0  503 -0.16356821010E+03  0.25965851892E+02 -0.42049115233E+03  0.48391176263E+03  0.17300000000E+03 0.  1.
</event>
<event>
 4    1  0.5943823E+000  0.1000000E+03  0.7546771E-02  0.1280296E+00
         21   -1    0    0  503  502  0.00000000000E+00  0.00000000000E+00  0.48870883349E+03  0.48870883349E+03  0.00000000000E+00 0. -1.
         21   -1    0    0  501  503 -0.00000000000E+00 -0.00000000000E+00 -0.15717213009E+03  0.15717213009E+03  0.00000000000E+00 0. -1.
          6    1    1    2  501    0  0.21498171493E+03 -0.14920812431E+02  0.14125318037E+03  0.31035661643E+03  0.17300000000E+03 0. -1.
         -6    1    1    2    0  502 -0.21498171493E+03  0.14920812431E+02  0.19028352303E+03  0.33552434716E+03  0.17300000000E+03 0. -1.
</event>
<event>
 4    1  0.5943823E+000  0.1000000E+03  0.7546771E-02  0.1280296E+00
         21   -1    0    0  501  502  0.00000000000E+00  0.00000000000E+00  0.32288206473E+03  0.32288206473E+03  0.00000000000E+00 0.  1.
         21   -1    0    0  502  503 -0.00000000000E+00 -0.00000000000E+00 -0.19290323292E+03  0.19290323292E+03  0.00000000000E+00 0. -1.
          6    1    1    2  501    0 -0.14091148627E+03 -0.98385582337E+02  0.11986625387E+03  0.27172171167E+03  0.17300000000E+03 0.  1.
         -6    1    1    2    0  503  0.14091148627E+03  0.98385582337E+02  0.10112577935E+02  0.24406358599E+03  0.17300000000E+03 0. -1.
</event>
<event>
 4    1  0.5943823E+000  0.1000000E+03  0.7546771E-02  0.1280296E+00
         21   -1    0    0  501  502  0.00000000000E+00  0.00000000000E+00  0.47425310629E+02  0.47425310629E+02  0.00000000000E+00 0.  1.
         21   -1    0    0  502  503 -0.00000000000E+00 -0.00000000000E+00 -0.87699622659E+03  0.87699622659E+03  0.00000000000E+00 0. -1.
          6    1    1    2  501    0  0.35221399683E+02  0.90733789454E+02 -0.30873231415E+03  0.36703924769E+03  0.17300000000E+03 0.  1.
         -6    1    1    2    0  503 -0.35221399683E+02 -0.90733789454E+02 -0.52083860181E+03  0.55738228953E+03  0.17300000000E+03 0. -1.
</event>
<event>
 4    1  0.5943823E+000  0.1000000E+03  0.7546771E-02  0.1280296E+00
         21   -1    0    0  501  502  0.00000000000E+00  0.00000000000E+00  0.35119205731E+02  0.35119205731E+02  0.00000000000E+00 0.  1.
         21   -1    0    0  502  503 -0.00000000000E+00 -0.00000000000E+00 -0.11160083767E+04  0.11160083767E+04  0.00000000000E+00 0. -1.
          6    1    1    2  501    0  0.79850042981E+02  0.25507908283E+02 -0.40291916185E+03  0.44642976349E+03  0.17300000000E+03 0.  1.
         -6    1    1    2    0  503 -0.79850042981E+02 -0.25507908283E+02 -0.67797000916E+03  0.70469781897E+03  0.17300000000E+03 0. -1.
</event>
<event>
 4    1  0.5943823E+000  0.1000000E+03  0.7546771E-02  0.1280296E+00
         21   -1    0    0  501  502  0.00000000000E+00  0.00000000000E+00  0.13165241197E+03  0.13165241197E+03  0.00000000000E+00 0.  1.
         21   -1    0    0  502  503 -0.00000000000E+00 -0.00000000000E+00 -0.30622962259E+03  0.30622962259E+03  0.00000000000E+00 0. -1.
          6    1    1    2  501    0  0.15184654108E+02 -0.91579085791E+02 -0.41419267045E+02  0.20065357798E+03  0.17300000000E+03 0.  1.
         -6    1    1    2    0  503 -0.15184654108E+02  0.91579085791E+02 -0.13315794358E+03  0.23722845658E+03  0.17300000000E+03 0. -1.
</event>
<event>
 4    1  0.5943823E+000  0.1000000E+03  0.7546771E-02  0.1280296E+00
         21   -1    0    0  503  502  0.00000000000E+00  0.00000000000E+00  0.24203951730E+03  0.24203951730E+03  0.00000000000E+00 0.  1.
         21   -1    0    0  501  503 -0.00000000000E+00 -0.00000000000E+00 -0.29923819207E+03  0.29923819207E+03  0.00000000000E+00 0.  1.
          6    1    1    2  501    0 -0.16140159276E+03 -0.23709709582E+01 -0.15754915448E+03  0.28426542478E+03  0.17300000000E+03 0.  1.
         -6    1    1    2    0  502  0.16140159276E+03  0.23709709582E+01  0.10035047971E+03  0.25701228459E+03  0.17300000000E+03 0.  1.
</event>
<event>
 4    1  0.5943823E+000  0.1000000E+03  0.7546771E-02  0.1280296E+00
         21   -1    0    0  501  502  0.00000000000E+00  0.00000000000E+00  0.68205979019E+03  0.68205979019E+03  0.00000000000E+00 0. -1.
         21   -1    0    0  502  503 -0.00000000000E+00 -0.00000000000E+00 -0.65217135527E+02  0.65217135527E+02  0.00000000000E+00 0. -1.
          6    1    1    2  501    0 -0.97601337302E+02 -0.16488852200E+02  0.43058399862E+03  0.47447811663E+03  0.17300000000E+03 0. -1.
         -6    1    1    2    0  503  0.97601337302E+02  0.16488852200E+02  0.18625865604E+03  0.27279880909E+03  0.17300000000E+03 0. -1.
</event>
