<LesHouchesEvents version="3.0">
<header>
<!--
#*********************************************************************
#                                                                    *
#                        MadGraph5_aMC@NLO                           *
#                                                                    *
#                           Going Beyond                             *
#                                                                    *
#                   http://madgraph.hep.uiuc.edu                     *
#                   http://madgraph.phys.ucl.ac.be                   *
#                   http://amcatnlo.cern.ch                          *
#                                                                    *
#                     The MadGraph5_aMC@NLO team                     *
#                                                                    *
#....................................................................*
#                                                                    *
# This file contains all the information necessary to reproduce      *
# the events generated:                                              *
#                                                                    *
# 1. software version                                                *
# 2. proc_card          : code generation info including model       *
# 3. param_card         : model primary parameters in the LH format  *
# 4. run_card           : running parameters (collider and cuts)     *
# 5. pythia_card        : present only if pythia has been run        *
# 6. pgs_card           : present only if pgs has been run           *
# 7. delphes_cards      : present only if delphes has been run       *
#                                                                    *
#                                                                    *
#*********************************************************************
-->
<MGVersion>
#3.5.0_lo_vect
</MGVersion>
<MG5ProcCard>
<![CDATA[
#************************************************************
#*                     MadGraph5_aMC@NLO                    *
#*                                                          *
#*                *                       *                 *
#*                  *        * *        *                   *
#*                    * * * * 5 * * * *                     *
#*                  *        * *        *                   *
#*                *                       *                 *
#*                                                          *
#*                                                          *
#*         VERSION 3.5.0_lo_vect         2023-06-09         *
[1;31m#*                                                          *[1;0m
[1;31m#*          WARNING: UNKNOWN DEVELOPMENT VERSION.           *[1;0m
[1;31m#*            WARNING: DO NOT USE FOR PRODUCTION            *[1;0m
[1;31m#*                                                          *[1;0m
#*                                                          *
#*    The MadGraph5_aMC@NLO Development Team - Find us at   *
#*    https://server06.fynu.ucl.ac.be/projects/madgraph     *
#*                                                          *
#************************************************************
#*                                                          *
#*               Command File for MadGraph5_aMC@NLO         *
#*                                                          *
#*     run as ./bin/mg5_aMC  filename                       *
#*                                                          *
#************************************************************
set group_subprocesses Auto
set ignore_six_quark_processes False
set low_mem_multicore_nlo_generation False
set complex_mass_scheme False
set include_lepton_initiated_processes False
set gauge unitary
set loop_optimized_output True
set loop_color_flows False
set max_npoint_for_channel 0
set default_unset_couplings 99
set max_t_for_channel 99
set nlo_mixed_expansion True
set stdout_level DEBUG
set zerowidth_tchannel F
generate g g > t t~ g g g
define p = g u c d s u~ c~ d~ s~
define j = g u c d s u~ c~ d~ s~
define l+ = e+ mu+
define l- = e- mu-
define vl = ve vm vt
define vl~ = ve~ vm~ vt~
output madevent CODEGEN_mad_gg_ttggg --hel_recycling=False --vector_si\
ze=16384 --me_exporter=standalone_cudacpp
]]>
</MG5ProcCard>
<MGProcCard>
#*********************************************************************
#                        MadGraph/MadEvent                           *
#                   http://madgraph.hep.uiuc.edu                     *
#                                                                    *
#                          proc_card.dat                             *
#*********************************************************************
#                                                                    *
#            This Files is generated by MADGRAPH 5                   *
#                                                                    *
# WARNING: This Files is generated for MADEVENT (compatibility issue)*
#          This files is NOT a valid MG4 proc_card.dat               *
#          Running this in MG4 will NEVER reproduce the result of MG5*
#                                                                    *
#*********************************************************************
#*********************************************************************
# Process(es) requested : mg2 input                                  *
#*********************************************************************
# Begin PROCESS # This is TAG. Do not modify this line
g g > t t~ g g g           #Process
# Be carefull the coupling are here in MG5 convention
          
end_coup           # End the couplings input

done               # this tells MG there are no more procs
# End PROCESS  # This is TAG. Do not modify this line
#*********************************************************************
# Model information                                                  *
#*********************************************************************
# Begin MODEL  # This is TAG. Do not modify this line
sm
# End   MODEL  # This is TAG. Do not modify this line
#*********************************************************************
# Start multiparticle definitions                                    *
#*********************************************************************
# Begin MULTIPARTICLES # This is TAG. Do not modify this line

# End  MULTIPARTICLES # This is TAG. Do not modify this line
</MGProcCard>
<MGRunCard>
<![CDATA[
#*********************************************************************
#                       MadGraph5_aMC@NLO                            *
#                                                                    *
#                     run_card.dat MadEvent                          *
#                                                                    *
#  This file is used to set the parameters of the run.               *
#                                                                    *
#  Some notation/conventions:                                        *
#                                                                    *
#   Lines starting with a '# ' are info or comments                  *
#                                                                    *
#   mind the format:   value    = variable     ! comment             *
#                                                                    *
#   To display more options, you can type the command:               *
#      update to_full                                                *
#*********************************************************************
#                                                                    
#*********************************************************************
# Tag name for the run (one word)                                    *
#*********************************************************************
  tag_1     = run_tag ! name of the run 
#*********************************************************************
# Number of events and rnd seed                                      *
# Warning: Do not generate more than 1M events in a single run       *
#*********************************************************************
  10 = nevents ! Number of unweighted events requested 
 21 = iseed   ! rnd seed (0=assigned automatically=default))
#*********************************************************************
# Collider type and energy                                           *
# lpp: 0=No PDF, 1=proton, -1=antiproton,                            *
#                2=elastic photon of proton/ion beam                 *
#             +/-3=PDF of electron/positron beam                     *
#             +/-4=PDF of muon/antimuon beam                         *
#*********************************************************************
     1        = lpp1    ! beam 1 type 
     1        = lpp2    ! beam 2 type
     6500.0     = ebeam1  ! beam 1 total energy in GeV
     6500.0     = ebeam2  ! beam 2 total energy in GeV
# To see polarised beam options: type "update beam_pol"

#*********************************************************************
# PDF CHOICE: this automatically fixes alpha_s and its evol.         *
# pdlabel: lhapdf=LHAPDF (installation needed) [1412.7420]           *
#          iww=Improved Weizsaecker-Williams Approx.[hep-ph/9310350] *
#          eva=Effective W/Z/A Approx.       [2111.02442]            *
#          edff=EDFF in gamma-UPC            [eq.(11) in 2207.03012] *
#          chff=ChFF in gamma-UPC            [eq.(13) in 2207.03012] *
#          none=No PDF, same as lhapdf with lppx=0                   *
#*********************************************************************
     nn23lo1    = pdlabel     ! PDF set 
     230000    = lhaid     ! if pdlabel=lhapdf, this is the lhapdf number
# To see heavy ion options: type "update ion_pdf"
#*********************************************************************
# Renormalization and factorization scales                           *
#*********************************************************************
 False = fixed_ren_scale  ! if .true. use fixed ren scale
     False = fixed_fac_scale  ! if .true. use fixed fac scale
 91.188  = scale            ! fixed ren scale
 91.188  = dsqrt_q2fact1    ! fixed fact scale for pdf1
 91.188  = dsqrt_q2fact2    ! fixed fact scale for pdf2
 -1 = dynamical_scale_choice ! Choose one of the preselected dynamical choices
 1.0  = scalefact        ! scale factor for event-by-event scales

 
#*********************************************************************
# Type and output format
#*********************************************************************
  False     = gridpack  !True = setting up the grid pack
  -1.0 = time_of_flight ! threshold (in mm) below which the invariant livetime is not written (-1 means not written)
  average =  event_norm       ! average/sum. Normalization of the weight in the LHEF
# To see MLM/CKKW  merging options: type "update MLM" or "update CKKW"

#*********************************************************************
#
#*********************************************************************
# Phase-Space Optimization strategy (basic options)
#*********************************************************************
   0  = nhel          ! using helicities importance sampling or not.
                             ! 0: sum over helicity, 1: importance sampling
   1  = sde_strategy  ! default integration strategy (hep-ph/2021.00773)
                             ! 1 is old strategy (using amp square)
			     ! 2 is new strategy (using only the denominator)
# To see advanced option for Phase-Space optimization: type "update psoptim"			     
#*********************************************************************
# Customization (custom cuts/scale/bias/...)                         *
# list of files containing fortran function that overwrite default   *
#*********************************************************************
  = custom_fcts ! List of files containing user hook function
#*******************************                                                 
# Parton level cuts definition *
#*******************************
  0.0  = dsqrt_shat ! minimal shat for full process
#                                                                    
#
#*********************************************************************
# BW cutoff (M+/-bwcutoff*Gamma) ! Define on/off-shell for "$" and decay  
#*********************************************************************
  15.0  = bwcutoff      ! (M+/-bwcutoff*Gamma)
#*********************************************************************
# Standard Cuts                                                      *
#*********************************************************************
# Minimum and maximum pt's (for max, -1 means no cut)                *
#*********************************************************************
 20.0  = ptj       ! minimum pt for the jets 
 -1.0  = ptjmax    ! maximum pt for the jets
 {} = pt_min_pdg ! pt cut for other particles (use pdg code). Applied on particle and anti-particle
 {}	= pt_max_pdg ! pt cut for other particles (syntax e.g. {6: 100, 25: 50}) 
#
# For display option for energy cut in the partonic center of mass frame type 'update ecut'
#
#*********************************************************************
# Maximum and minimum absolute rapidity (for max, -1 means no cut)   *
#*********************************************************************
 5.0 = etaj    ! max rap for the jets 
 {} = eta_min_pdg ! rap cut for other particles (use pdg code). Applied on particle and anti-particle
 {} = eta_max_pdg ! rap cut for other particles (syntax e.g. {6: 2.5, 23: 5})
#*********************************************************************
# Minimum and maximum DeltaR distance                                *
#*********************************************************************
 0.4 = drjj    ! min distance between jets 
 -1.0  = drjjmax ! max distance between jets
#*********************************************************************
# Minimum and maximum invariant mass for pairs                       *
#*********************************************************************
 0.0   = mmjj    ! min invariant mass of a jet pair 
 -1.0  = mmjjmax ! max invariant mass of a jet pair
 {} = mxx_min_pdg ! min invariant mass of a pair of particles X/X~ (e.g. {6:250})
 {'default': False} = mxx_only_part_antipart ! if True the invariant mass is applied only 
                       ! to pairs of particle/antiparticle and not to pairs of the same pdg codes.  
#*********************************************************************
# Inclusive cuts                                                     *
#*********************************************************************
 0.0  = ptheavy   ! minimum pt for at least one heavy final state
 0.0  = xptj ! minimum pt for at least one jet  
 #*********************************************************************
 # Control the pt's of the jets sorted by pt                          *
 #*********************************************************************
 0.0   = ptj1min ! minimum pt for the leading jet in pt
 0.0   = ptj2min ! minimum pt for the second jet in pt
 0.0   = ptj3min ! minimum pt for the third jet in pt
 -1.0  = ptj1max ! maximum pt for the leading jet in pt 
 -1.0  = ptj2max ! maximum pt for the second jet in pt
 -1.0  = ptj3max ! maximum pt for the third jet in pt
 0   = cutuse  ! reject event if fails any (0) / all (1) jet pt cuts
 #*********************************************************************
 # Control the Ht(k)=Sum of k leading jets                            *
 #*********************************************************************
 0.0   = htjmin ! minimum jet HT=Sum(jet pt)
 -1.0  = htjmax ! maximum jet HT=Sum(jet pt)
 0.0   = ihtmin  !inclusive Ht for all partons (including b)
 -1.0  = ihtmax  !inclusive Ht for all partons (including b)
 0.0   = ht2min ! minimum Ht for the two leading jets
 0.0   = ht3min ! minimum Ht for the three leading jets
 -1.0  = ht2max ! maximum Ht for the two leading jets
 -1.0  = ht3max ! maximum Ht for the three leading jets
 #*********************************************************************
 # WBF cuts                                                           *
 #*********************************************************************
 0.0   = xetamin ! minimum rapidity for two jets in the WBF case  
 0.0   = deltaeta ! minimum rapidity for two jets in the WBF case 
#*********************************************************************
# maximal pdg code for quark to be considered as a light jet         *
# (otherwise b cuts are applied)                                     *
#*********************************************************************
 4 = maxjetflavor    ! Maximum jet pdg code
#*********************************************************************
#
#*********************************************************************
# Store info for systematics studies                                 *
# WARNING: Do not use for interference type of computation           *
#*********************************************************************
   True  = use_syst      ! Enable systematics studies
#
systematics = systematics_program ! none, systematics [python], SysCalc [depreceted, C++]
['--mur=0.5,1,2', '--muf=0.5,1,2', '--pdf=errorset'] = systematics_arguments ! see: https://cp3.irmp.ucl.ac.be/projects/madgraph/wiki/Systematics#Systematicspythonmodule

#*********************************************************************
# Options for the cudacpp plugin
#*********************************************************************

# Set cudacpp-specific values of non-cudacpp-specific options
-O3 -ffast-math -fbounds-check = global_flag ! build flags for Fortran code (for a fair comparison to cudacpp)

# New cudacpp-specific options (default values are defined in banner.py)
CUDA = cudacpp_backend ! valid backends are FORTRAN, CPP, CUDA
]]>
</MGRunCard>
<slha>
######################################################################
## PARAM_CARD AUTOMATICALY GENERATED BY MG5 FOLLOWING UFO MODEL   ####
######################################################################
##                                                                  ##
##  Width set on Auto will be computed following the information    ##
##        present in the decay.py files of the model.               ##
##        See  arXiv:1402.1178 for more details.                    ##
##                                                                  ##
######################################################################

###################################
## INFORMATION FOR MASS
###################################
Block mass 
    5 4.700000e+00 # MB 
    6 1.730000e+02 # MT 
   15 1.777000e+00 # MTA 
   23 9.118800e+01 # MZ 
   25 1.250000e+02 # MH 
## Dependent parameters, given by model restrictions.
## Those values should be edited following the 
## analytical expression. MG5 ignores those values 
## but they are important for interfacing the output of MG5
## to external program such as Pythia.
  1 0.000000e+00 # d : 0.0 
  2 0.000000e+00 # u : 0.0 
  3 0.000000e+00 # s : 0.0 
  4 0.000000e+00 # c : 0.0 
  11 0.000000e+00 # e- : 0.0 
  12 0.000000e+00 # ve : 0.0 
  13 0.000000e+00 # mu- : 0.0 
  14 0.000000e+00 # vm : 0.0 
  16 0.000000e+00 # vt : 0.0 
  21 0.000000e+00 # g : 0.0 
  22 0.000000e+00 # a : 0.0 
  24 8.041900e+01 # w+ : cmath.sqrt(MZ__exp__2/2. + cmath.sqrt(MZ__exp__4/4. - (aEW*cmath.pi*MZ__exp__2)/(Gf*sqrt__2))) 

###################################
## INFORMATION FOR SMINPUTS
###################################
Block sminputs 
    1 1.325070e+02 # aEWM1 
    2 1.166390e-05 # Gf 
    3 1.180000e-01 # aS (Note that Parameter not used if you use a PDF set) 

###################################
## INFORMATION FOR YUKAWA
###################################
Block yukawa 
    5 4.700000e+00 # ymb 
    6 1.730000e+02 # ymt 
   15 1.777000e+00 # ymtau 

###################################
## INFORMATION FOR DECAY
###################################
DECAY   6 1.491500e+00 # WT 
DECAY  23 2.441404e+00 # WZ 
DECAY  24 2.047600e+00 # WW 
DECAY  25 6.382339e-03 # WH 
## Dependent parameters, given by model restrictions.
## Those values should be edited following the 
## analytical expression. MG5 ignores those values 
## but they are important for interfacing the output of MG5
## to external program such as Pythia.
DECAY  1 0.000000e+00 # d : 0.0 
DECAY  2 0.000000e+00 # u : 0.0 
DECAY  3 0.000000e+00 # s : 0.0 
DECAY  4 0.000000e+00 # c : 0.0 
DECAY  5 0.000000e+00 # b : 0.0 
DECAY  11 0.000000e+00 # e- : 0.0 
DECAY  12 0.000000e+00 # ve : 0.0 
DECAY  13 0.000000e+00 # mu- : 0.0 
DECAY  14 0.000000e+00 # vm : 0.0 
DECAY  15 0.000000e+00 # ta- : 0.0 
DECAY  16 0.000000e+00 # vt : 0.0 
DECAY  21 0.000000e+00 # g : 0.0 
DECAY  22 0.000000e+00 # a : 0.0
</slha>
<MGGenerationInfo>
#  Number of Events        :       10
#  Integrated weight (pb)  :       126.15412908409999
</MGGenerationInfo>
</header>
<init>
2212 2212 6.500000e+03 6.500000e+03 0 0 247000 247000 -4 1
1.261541e+02 3.117367e-01 1.261541e+02 1
<generator name='MadGraph5_aMC@NLO' version='3.5.0_lo_vect'>please cite 1405.0301 </generator>
</init>
<event>
 7      1 +1.2615413e+02 2.42113000e+02 7.54677100e-03 9.91481900e-02
       21 -1    0    0  501  502 +0.0000000000e+00 +0.0000000000e+00 +1.5504520879e+03 1.5504520879e+03 0.0000000000e+00 0.0000e+00 -1.0000e+00
       21 -1    0    0  505  503 -0.0000000000e+00 -0.0000000000e+00 -1.6244231717e+02 1.6244231717e+02 0.0000000000e+00 0.0000e+00 -1.0000e+00
        6  1    1    2  501    0 -1.2326850276e+01 -2.0874558173e+01 +9.3291707061e+02 9.4913168688e+02 1.7300000000e+02 0.0000e+00 -1.0000e+00
       -6  1    1    2    0  506 +1.0841843203e+01 -1.9084989338e+02 +2.5819258250e+02 3.6487482377e+02 1.7300000000e+02 0.0000e+00 -1.0000e+00
       21  1    1    2  504  502 +6.9441992726e+01 +5.3229545739e+01 +5.6675298313e+01 1.0424809030e+02 0.0000000000e+00 0.0000e+00 -1.0000e+00
       21  1    1    2  505  504 -4.0838716913e+01 +1.5544957383e+02 +1.8321411753e+02 2.4372070832e+02 0.0000000000e+00 0.0000e+00 -1.0000e+00
       21  1    1    2  506  503 -2.7118268739e+01 +3.0453319885e+00 -4.2989298260e+01 5.0919095742e+01 0.0000000000e+00 0.0000e+00 -1.0000e+00
<mgrwt>
<rscale>  5 0.22290210E+03</rscale>
<asrwt>0</asrwt>
<pdfrwt beam="1">  1       21 0.23853108E+00 0.24211304E+03</pdfrwt>
<pdfrwt beam="2">  1       21 0.24991127E-01 0.24211304E+03</pdfrwt>
<totfact> 0.11171112E+03</totfact>
</mgrwt>
</event>
<event>
 7      1 +1.2615413e+02 3.50417600e+02 7.54677100e-03 1.10770100e-01
       21 -1    0    0  501  502 +0.0000000000e+00 +0.0000000000e+00 +7.1275872799e+02 7.1275872799e+02 0.0000000000e+00 0.0000e+00 -1.0000e+00
       21 -1    0    0  506  503 -0.0000000000e+00 -0.0000000000e+00 -1.0738745553e+03 1.0738745553e+03 0.0000000000e+00 0.0000e+00 -1.0000e+00
        6  1    1    2  501    0 +1.6220349568e+02 -3.1456466822e+01 +1.9902364710e+02 3.1118948475e+02 1.7300000000e+02 0.0000e+00 -1.0000e+00
       -6  1    1    2    0  505 -2.8750035687e+01 +3.5729664431e+02 +2.8029393989e+02 4.8680709662e+02 1.7300000000e+02 0.0000e+00 1.0000e+00
       21  1    1    2  504  502 -9.4555199077e+01 -4.1939254558e+01 -4.5780110091e+02 4.6934149054e+02 0.0000000000e+00 0.0000e+00 -1.0000e+00
       21  1    1    2  505  503 -2.0760947638e+01 -2.5745321627e+02 -4.0488951900e+02 4.8025899066e+02 0.0000000000e+00 0.0000e+00 -1.0000e+00
       21  1    1    2  506  504 -1.8137313279e+01 -2.6447706660e+01 +2.2257205662e+01 3.9036220673e+01 0.0000000000e+00 0.0000e+00 1.0000e+00
<mgrwt>
<rscale>  5 0.31579549E+03</rscale>
<asrwt>0</asrwt>
<pdfrwt beam="1">  1       21 0.10965519E+00 0.35041761E+03</pdfrwt>
<pdfrwt beam="2">  1       21 0.16521147E+00 0.35041761E+03</pdfrwt>
<totfact> 0.13009004E+02</totfact>
</mgrwt>
</event>
<event>
 7      1 +1.2615413e+02 2.19943400e+02 7.54677100e-03 1.17191400e-01
       21 -1    0    0  505  502 +0.0000000000e+00 +0.0000000000e+00 +1.1685304855e+03 1.1685304855e+03 0.0000000000e+00 0.0000e+00 1.0000e+00
       21 -1    0    0  501  503 -0.0000000000e+00 -0.0000000000e+00 -1.6659455280e+03 1.6659455280e+03 0.0000000000e+00 0.0000e+00 -1.0000e+00
        6  1    1    2  501    0 +1.5398858614e+02 -2.2668100780e+01 -8.7783779997e+02 9.0815996967e+02 1.7300000000e+02 0.0000e+00 -1.0000e+00
       -6  1    1    2    0  502 -1.2160266270e+02 +6.9346563316e+01 -1.1955781035e+02 2.5262466909e+02 1.7300000000e+02 0.0000e+00 -1.0000e+00
       21  1    1    2  504  506 -6.0661385823e+00 +2.0884556087e+01 +6.5805626691e+01 6.9306155747e+01 0.0000000000e+00 0.0000e+00 -1.0000e+00
       21  1    1    2  505  504 +1.3874598355e+01 -2.3991167496e+01 +1.0175894498e+03 1.0179667818e+03 0.0000000000e+00 0.0000e+00 1.0000e+00
       21  1    1    2  506  503 -4.0194383209e+01 -4.3571851127e+01 -5.8341450860e+02 5.8641843721e+02 0.0000000000e+00 0.0000e+00 -1.0000e+00
<mgrwt>
<rscale>  5 0.21994340E+03</rscale>
<asrwt>0</asrwt>
<pdfrwt beam="1">  1       21 0.17977392E+00 0.21994340E+03</pdfrwt>
<pdfrwt beam="2">  1       21 0.25629931E+00 0.21994340E+03</pdfrwt>
<totfact> 0.10610287E+01</totfact>
</mgrwt>
</event>
<event>
 7      1 +1.2615413e+02 1.81940800e+02 7.54677100e-03 1.07499700e-01
       21 -1    0    0  505  502 +0.0000000000e+00 +0.0000000000e+00 +4.6400992006e+02 4.6400992006e+02 0.0000000000e+00 0.0000e+00 -1.0000e+00
       21 -1    0    0  501  503 -0.0000000000e+00 -0.0000000000e+00 -7.6449097059e+02 7.6449097059e+02 0.0000000000e+00 0.0000e+00 -1.0000e+00
        6  1    1    2  501    0 -3.1147043810e+01 +1.3321835558e+01 +2.1325778499e+02 2.7668663231e+02 1.7300000000e+02 0.0000e+00 -1.0000e+00
       -6  1    1    2    0  506 +4.6573261298e+01 -7.5201740837e+01 -3.6791689802e+02 4.1607236671e+02 1.7300000000e+02 0.0000e+00 -1.0000e+00
       21  1    1    2  504  503 +9.3759376690e+00 +2.9787235554e+01 -2.5825281068e+02 2.6013400746e+02 0.0000000000e+00 0.0000e+00 1.0000e+00
       21  1    1    2  505  504 +2.2972266404e+00 +3.6929299822e+01 -7.6343296358e+01 8.4837193108e+01 0.0000000000e+00 0.0000e+00 -1.0000e+00
       21  1    1    2  506  502 -2.7099381798e+01 -4.8366300968e+00 +1.8877416953e+02 1.9077069106e+02 0.0000000000e+00 0.0000e+00 1.0000e+00
<mgrwt>
<rscale>  5 0.18194079E+03</rscale>
<asrwt>0</asrwt>
<pdfrwt beam="1">  1       21 0.71386143E-01 0.18194079E+03</pdfrwt>
<pdfrwt beam="2">  1       21 0.11761399E+00 0.18194079E+03</pdfrwt>
<totfact> 0.99572696E+02</totfact>
</mgrwt>
</event>
<event>
 7      1 +1.2615413e+02 2.71435800e+02 7.54677100e-03 1.17127400e-01
       21 -1    0    0  504  502 +0.0000000000e+00 +0.0000000000e+00 +4.9908450958e+02 4.9908450958e+02 0.0000000000e+00 0.0000e+00 1.0000e+00
       21 -1    0    0  501  503 -0.0000000000e+00 -0.0000000000e+00 -8.6244325007e+02 8.6244325007e+02 0.0000000000e+00 0.0000e+00 -1.0000e+00
        6  1    1    2  501    0 +1.2644144419e+02 +5.6661040768e+01 -1.3009131648e+02 2.5700323533e+02 1.7300000000e+02 0.0000e+00 1.0000e+00
       -6  1    1    2    0  502 -1.9149123508e+02 -1.2145288783e+02 +3.8161782483e+02 4.7642508467e+02 1.7300000000e+02 0.0000e+00 1.0000e+00
       21  1    1    2  504  505 -1.8636374434e+00 +2.5645202183e+01 -2.6120402200e+02 2.6246655148e+02 0.0000000000e+00 0.0000e+00 -1.0000e+00
       21  1    1    2  505  506 +3.0170911375e+01 +4.4585338268e+01 -2.4277984293e+02 2.4867687551e+02 0.0000000000e+00 0.0000e+00 -1.0000e+00
       21  1    1    2  506  503 +3.6742516963e+01 -5.4386933855e+00 -1.1090138391e+02 1.1695601264e+02 0.0000000000e+00 0.0000e+00 1.0000e+00
<mgrwt>
<rscale>  5 0.27143583E+03</rscale>
<asrwt>0</asrwt>
<pdfrwt beam="1">  1       21 0.76782233E-01 0.27143583E+03</pdfrwt>
<pdfrwt beam="2">  1       21 0.13268358E+00 0.27143583E+03</pdfrwt>
<totfact> 0.57517500E+02</totfact>
</mgrwt>
</event>
<event>
 7      1 +1.2615413e+02 2.19839300e+02 7.54677100e-03 1.09359600e-01
       21 -1    0    0  505  502 +0.0000000000e+00 +0.0000000000e+00 +1.3865463669e+02 1.3865463669e+02 0.0000000000e+00 0.0000e+00 1.0000e+00
       21 -1    0    0  506  503 -0.0000000000e+00 -0.0000000000e+00 -9.7793872410e+02 9.7793872410e+02 0.0000000000e+00 0.0000e+00 1.0000e+00
        6  1    1    2  501    0 +4.5798681191e+01 +1.3499427602e+02 -3.0662601233e+02 3.7982823117e+02 1.7300000000e+02 0.0000e+00 1.0000e+00
       -6  1    1    2    0  504 -6.1692851250e+01 -1.4174668971e+02 -2.4025640799e+02 3.3399142731e+02 1.7300000000e+02 0.0000e+00 1.0000e+00
       21  1    1    2  504  503 -1.5226671368e+01 -6.6252370640e+01 -3.1078788427e+02 3.1813572127e+02 0.0000000000e+00 0.0000e+00 1.0000e+00
       21  1    1    2  505  501 +2.3676829739e+01 +5.1560594875e+01 +2.3430713218e+01 6.1384733707e+01 0.0000000000e+00 0.0000e+00 -1.0000e+00
       21  1    1    2  506  502 +7.4440116885e+00 +2.1444189455e+01 -5.0444960393e+00 2.3253247337e+01 0.0000000000e+00 0.0000e+00 -1.0000e+00
<mgrwt>
<rscale>  5 0.21983928E+03</rscale>
<asrwt>0</asrwt>
<pdfrwt beam="1">  1       21 0.21331483E-01 0.21983928E+03</pdfrwt>
<pdfrwt beam="2">  1       21 0.15045211E+00 0.21983928E+03</pdfrwt>
<totfact> 0.59373362E+03</totfact>
</mgrwt>
</event>
<event>
 7      1 +1.2615413e+02 2.52287800e+02 7.54677100e-03 1.10035100e-01
       21 -1    0    0  504  502 +0.0000000000e+00 +0.0000000000e+00 +1.9325173662e+02 1.9325173662e+02 0.0000000000e+00 0.0000e+00 -1.0000e+00
       21 -1    0    0  501  503 -0.0000000000e+00 -0.0000000000e+00 -9.0310690699e+02 9.0310690699e+02 0.0000000000e+00 0.0000e+00 1.0000e+00
        6  1    1    2  501    0 +1.5196493527e+02 +8.5220099801e+01 +1.6436637094e+01 2.4607919457e+02 1.7300000000e+02 0.0000e+00 -1.0000e+00
       -6  1    1    2    0  502 +1.2966064194e+00 +3.4214276029e+01 -1.3777203679e+02 2.2379104538e+02 1.7300000000e+02 0.0000e+00 1.0000e+00
       21  1    1    2  504  505 -1.1015696648e+02 -8.3847220594e+01 -3.9691404319e+02 4.2036373696e+02 0.0000000000e+00 0.0000e+00 1.0000e+00
       21  1    1    2  505  506 -3.5208656045e+01 -4.7647436449e+00 -1.4763157646e+02 1.5184674712e+02 0.0000000000e+00 0.0000e+00 1.0000e+00
       21  1    1    2  506  503 -7.8959191613e+00 -3.0822411591e+01 -4.3974151018e+01 5.4277919576e+01 0.0000000000e+00 0.0000e+00 -1.0000e+00
<mgrwt>
<rscale>  5 0.23030702E+03</rscale>
<asrwt>0</asrwt>
<pdfrwt beam="1">  1       21 0.29731036E-01 0.25228783E+03</pdfrwt>
<pdfrwt beam="2">  1       21 0.13893952E+00 0.25228783E+03</pdfrwt>
<totfact> 0.37797460E+03</totfact>
</mgrwt>
</event>
<event>
 7      1 +1.2615413e+02 2.63047000e+02 7.54677100e-03 1.17141900e-01
       21 -1    0    0  506  502 +0.0000000000e+00 +0.0000000000e+00 +2.9337242098e+02 2.9337242098e+02 0.0000000000e+00 0.0000e+00 1.0000e+00
       21 -1    0    0  501  503 -0.0000000000e+00 -0.0000000000e+00 -5.3929652018e+02 5.3929652018e+02 0.0000000000e+00 0.0000e+00 -1.0000e+00
        6  1    1    2  501    0 -6.4785397644e+01 -1.3066887399e+02 -3.6321690374e+01 2.2917191706e+02 1.7300000000e+02 0.0000e+00 1.0000e+00
       -6  1    1    2    0  504 +1.6133023362e+02 +1.6897820339e+02 -2.9266473007e+02 4.1250784444e+02 1.7300000000e+02 0.0000e+00 -1.0000e+00
       21  1    1    2  504  505 -4.5305031165e+01 -6.0036255424e-01 +1.1718370211e+01 4.6799855603e+01 0.0000000000e+00 0.0000e+00 1.0000e+00
       21  1    1    2  505  502 -2.3617896915e+01 -6.0377836868e+01 +8.4152051223e+01 1.0623020270e+02 0.0000000000e+00 0.0000e+00 1.0000e+00
       21  1    1    2  506  503 -2.7621907893e+01 +2.2668870024e+01 -1.2808100191e+01 3.7959121358e+01 0.0000000000e+00 0.0000e+00 -1.0000e+00
<mgrwt>
<rscale>  5 0.26304699E+03</rscale>
<asrwt>0</asrwt>
<pdfrwt beam="1">  1       21 0.45134219E-01 0.26304699E+03</pdfrwt>
<pdfrwt beam="2">  1       21 0.82968695E-01 0.26304699E+03</pdfrwt>
<totfact> 0.56883733E+03</totfact>
</mgrwt>
</event>
<event>
 7      1 +1.2615413e+02 1.97865800e+02 7.54677100e-03 1.06502400e-01
       21 -1    0    0  501  502 +0.0000000000e+00 +0.0000000000e+00 +2.7380330866e+02 2.7380330866e+02 0.0000000000e+00 0.0000e+00 -1.0000e+00
       21 -1    0    0  504  503 -0.0000000000e+00 -0.0000000000e+00 -4.5389758259e+02 4.5389758259e+02 0.0000000000e+00 0.0000e+00 -1.0000e+00
        6  1    1    2  501    0 -1.0834283891e+02 -7.8338770905e+01 -1.6044293315e+01 2.1922945312e+02 1.7300000000e+02 0.0000e+00 -1.0000e+00
       -6  1    1    2    0  506 +7.0281389189e+01 -2.2037746621e+01 -6.6986869113e+01 1.9960304751e+02 1.7300000000e+02 0.0000e+00 -1.0000e+00
       21  1    1    2  504  502 -1.5339405159e+01 +2.1526307381e+01 +5.4070003297e+01 6.0185085500e+01 0.0000000000e+00 0.0000e+00 1.0000e+00
       21  1    1    2  505  503 -2.6779950046e+01 +1.5112817460e+00 -1.3316824992e+02 1.3584267549e+02 0.0000000000e+00 0.0000e+00 -1.0000e+00
       21  1    1    2  506  505 +8.0180804921e+01 +7.7338928398e+01 -1.7964864877e+01 1.1284062962e+02 0.0000000000e+00 0.0000e+00 -1.0000e+00
<mgrwt>
<rscale>  5 0.19786580E+03</rscale>
<asrwt>0</asrwt>
<pdfrwt beam="1">  1       21 0.42123586E-01 0.19786580E+03</pdfrwt>
<pdfrwt beam="2">  1       21 0.69830397E-01 0.19786580E+03</pdfrwt>
<totfact> 0.10067242E+04</totfact>
</mgrwt>
</event>
<event>
 7      1 +1.2615413e+02 2.26142000e+02 7.54677100e-03 1.08953100e-01
       21 -1    0    0  506  502 +0.0000000000e+00 +0.0000000000e+00 +8.2210657453e+02 8.2210657453e+02 0.0000000000e+00 0.0000e+00 -1.0000e+00
       21 -1    0    0  501  503 -0.0000000000e+00 -0.0000000000e+00 -1.2907867319e+03 1.2907867319e+03 0.0000000000e+00 0.0000e+00 1.0000e+00
        6  1    1    2  501    0 +2.3894671858e+01 -1.2790151534e+02 +8.1301917958e+01 2.3123311794e+02 1.7300000000e+02 0.0000e+00 1.0000e+00
       -6  1    1    2    0  502 -6.5474233276e+01 +1.2654887986e+02 +4.4584680416e+02 4.9900888469e+02 1.7300000000e+02 0.0000e+00 -1.0000e+00
       21  1    1    2  504  505 +1.0520245428e+02 -2.8446814176e+01 -3.9280575752e+02 4.0764339902e+02 0.0000000000e+00 0.0000e+00 1.0000e+00
       21  1    1    2  505  503 -4.5235950715e+01 +1.9473343966e+01 -7.8764617409e+02 7.8918438778e+02 0.0000000000e+00 0.0000e+00 1.0000e+00
       21  1    1    2  506  504 -1.8386942144e+01 +1.0326105692e+01 +1.8462305212e+02 1.8582351701e+02 0.0000000000e+00 0.0000e+00 -1.0000e+00
<mgrwt>
<rscale>  5 0.22614203E+03</rscale>
<asrwt>0</asrwt>
<pdfrwt beam="1">  1       21 0.12647794E+00 0.22614203E+03</pdfrwt>
<pdfrwt beam="2">  1       21 0.19858257E+00 0.22614203E+03</pdfrwt>
<totfact> 0.60553565E+01</totfact>
</mgrwt>
</event>
</LesHouchesEvents>
