<event>
 4    1  0.6031777E+000  0.1000000E+03  0.7546771E-02  0.1280296E+00
         21   -1    0    0  501  502  0.00000000000E+00  0.00000000000E+00  0.14731121280E+03  0.14731121280E+03  0.00000000000E+00 0.  1.
         21   -1    0    0  502  503 -0.00000000000E+00 -0.00000000000E+00 -0.54005674284E+03  0.54005674284E+03  0.00000000000E+00 0.  1.
          6    1    1    2  501    0 -0.44955769024E+02  0.14791448564E+03 -0.92885250426E+00  0.23201202339E+03  0.17300000000E+03 0.  1.
         -6    1    1    2    0  503  0.44955769024E+02 -0.14791448564E+03 -0.39181667754E+03  0.45535593224E+03  0.17300000000E+03 0.  1.
</event>
<event>
 4    1  0.6031777E+000  0.1000000E+03  0.7546771E-02  0.1280296E+00
         21   -1    0    0  501  502  0.00000000000E+00  0.00000000000E+00  0.25966275963E+03  0.25966275963E+03  0.00000000000E+00 0.  1.
         21   -1    0    0  502  503 -0.00000000000E+00 -0.00000000000E+00 -0.32724197648E+03  0.32724197648E+03  0.00000000000E+00 0.  1.
          6    1    1    2  501    0 -0.76775266639E+02  0.70340610388E+02  0.17785921533E+03  0.26908203863E+03  0.17300000000E+03 0.  1.
         -6    1    1    2    0  503  0.76775266639E+02 -0.70340610388E+02 -0.24543843218E+03  0.31782269747E+03  0.17300000000E+03 0.  1.
</event>
<event>
 4    1  0.6031777E+000  0.1000000E+03  0.7546771E-02  0.1280296E+00
         21   -1    0    0  501  502  0.00000000000E+00  0.00000000000E+00  0.18261837597E+04  0.18261837597E+04  0.00000000000E+00 0. -1.
         21   -1    0    0  502  503 -0.00000000000E+00 -0.00000000000E+00 -0.18348417499E+02  0.18348417499E+02  0.00000000000E+00 0. -1.
          6    1    1    2  501    0  0.38347397731E+02 -0.38870050918E+02  0.10270399650E+04  0.10429388733E+04  0.17300000000E+03 0. -1.
         -6    1    1    2    0  503 -0.38347397731E+02  0.38870050918E+02  0.78079537730E+03  0.80159330397E+03  0.17300000000E+03 0. -1.
</event>
<event>
 4    1  0.6031777E+000  0.1000000E+03  0.7546771E-02  0.1280296E+00
         21   -1    0    0  501  502  0.00000000000E+00  0.00000000000E+00  0.84988997883E+03  0.84988997883E+03  0.00000000000E+00 0. -1.
         21   -1    0    0  502  503 -0.00000000000E+00 -0.00000000000E+00 -0.14690297630E+03  0.14690297630E+03  0.00000000000E+00 0. -1.
          6    1    1    2  501    0  0.29520485033E+03 -0.55924855662E+02  0.44766629085E+03  0.56622221883E+03  0.17300000000E+03 0. -1.
         -6    1    1    2    0  503 -0.29520485033E+03  0.55924855662E+02  0.25532071169E+03  0.43057073629E+03  0.17300000000E+03 0. -1.
</event>
<event>
 4    1  0.6031777E+000  0.1000000E+03  0.7546771E-02  0.1280296E+00
         21   -1    0    0  503  502  0.00000000000E+00  0.00000000000E+00  0.33532447491E+03  0.33532447491E+03  0.00000000000E+00 0. -1.
         21   -1    0    0  501  503 -0.00000000000E+00 -0.00000000000E+00 -0.12546220533E+03  0.12546220533E+03  0.00000000000E+00 0. -1.
          6    1    1    2  501    0  0.73321933145E+02  0.46503859150E+02  0.28724381344E+02  0.19568547437E+03  0.17300000000E+03 0. -1.
         -6    1    1    2    0  502 -0.73321933145E+02 -0.46503859150E+02  0.18113788823E+03  0.26510120586E+03  0.17300000000E+03 0. -1.
</event>
<event>
 4    1  0.6031777E+000  0.1000000E+03  0.7546771E-02  0.1280296E+00
         21   -1    0    0  503  502  0.00000000000E+00  0.00000000000E+00  0.55653755550E+03  0.55653755550E+03  0.00000000000E+00 0. -1.
         21   -1    0    0  501  503 -0.00000000000E+00 -0.00000000000E+00 -0.82154797136E+02  0.82154797136E+02  0.00000000000E+00 0. -1.
          6    1    1    2  501    0  0.44088544253E+02  0.11228405485E+03  0.28981855659E+03  0.35843451905E+03  0.17300000000E+03 0. -1.
         -6    1    1    2    0  502 -0.44088544253E+02 -0.11228405485E+03  0.18456420178E+03  0.28025783359E+03  0.17300000000E+03 0. -1.
</event>
<event>
 4    1  0.6031777E+000  0.1000000E+03  0.7546771E-02  0.1280296E+00
         21   -1    0    0  503  502  0.00000000000E+00  0.00000000000E+00  0.32303197756E+03  0.32303197756E+03  0.00000000000E+00 0. -1.
         21   -1    0    0  501  503 -0.00000000000E+00 -0.00000000000E+00 -0.39417403796E+03  0.39417403796E+03  0.00000000000E+00 0. -1.
          6    1    1    2  501    0  0.25389835811E+03  0.12234803712E+03 -0.17028166161E+03  0.37196540527E+03  0.17300000000E+03 0. -1.
         -6    1    1    2    0  502 -0.25389835811E+03 -0.12234803712E+03  0.99139601200E+02  0.34524061025E+03  0.17300000000E+03 0. -1.
</event>
<event>
 4    1  0.6031777E+000  0.1000000E+03  0.7546771E-02  0.1280296E+00
         21   -1    0    0  501  502  0.00000000000E+00  0.00000000000E+00  0.46038895320E+03  0.46038895320E+03  0.00000000000E+00 0. -1.
         21   -1    0    0  502  503 -0.00000000000E+00 -0.00000000000E+00 -0.30791911040E+03  0.30791911040E+03  0.00000000000E+00 0. -1.
          6    1    1    2  501    0 -0.81308663863E+02 -0.27710851274E+03  0.24827850946E+03  0.41829588202E+03  0.17300000000E+03 0. -1.
         -6    1    1    2    0  503  0.81308663863E+02  0.27710851274E+03 -0.95808666660E+02  0.35001218159E+03  0.17300000000E+03 0. -1.
</event>
<event>
 4    1  0.6031777E+000  0.1000000E+03  0.7546771E-02  0.1280296E+00
         21   -1    0    0  501  502  0.00000000000E+00  0.00000000000E+00  0.12804698157E+04  0.12804698157E+04  0.00000000000E+00 0.  1.
         21   -1    0    0  502  503 -0.00000000000E+00 -0.00000000000E+00 -0.44337869725E+02  0.44337869725E+02  0.00000000000E+00 0.  1.
          6    1    1    2  501    0  0.50141009723E+02  0.16602520605E+01  0.10516755285E+04  0.10669898287E+04  0.17300000000E+03 0.  1.
         -6    1    1    2    0  503 -0.50141009723E+02 -0.16602520605E+01  0.18445641742E+03  0.25781785667E+03  0.17300000000E+03 0.  1.
</event>
<event>
 4    1  0.6031777E+000  0.1000000E+03  0.7546771E-02  0.1280296E+00
         21   -1    0    0  503  502  0.00000000000E+00  0.00000000000E+00  0.31299400523E+03  0.31299400523E+03  0.00000000000E+00 0.  1.
         21   -1    0    0  501  503 -0.00000000000E+00 -0.00000000000E+00 -0.14181589826E+03  0.14181589826E+03  0.00000000000E+00 0.  1.
          6    1    1    2  501    0  0.13521193834E+02  0.10576904110E+03  0.25602872485E+02  0.20482778087E+03  0.17300000000E+03 0.  1.
         -6    1    1    2    0  502 -0.13521193834E+02 -0.10576904110E+03  0.14557523448E+03  0.24998212262E+03  0.17300000000E+03 0.  1.
</event>
<event>
 4    1  0.6031777E+000  0.1000000E+03  0.7546771E-02  0.1280296E+00
         21   -1    0    0  501  502  0.00000000000E+00  0.00000000000E+00  0.10133406825E+03  0.10133406825E+03  0.00000000000E+00 0.  1.
         21   -1    0    0  502  503 -0.00000000000E+00 -0.00000000000E+00 -0.46003914143E+03  0.46003914143E+03  0.00000000000E+00 0.  1.
          6    1    1    2  501    0 -0.10194800365E+03 -0.75037199029E+02 -0.14583696149E+03  0.25927089313E+03  0.17300000000E+03 0. -1.
         -6    1    1    2    0  503  0.10194800365E+03  0.75037199029E+02 -0.21286811170E+03  0.30210231655E+03  0.17300000000E+03 0. -1.
</event>
<event>
 4    1  0.6031777E+000  0.1000000E+03  0.7546771E-02  0.1280296E+00
         21   -1    0    0  501  502  0.00000000000E+00  0.00000000000E+00  0.20509342286E+03  0.20509342286E+03  0.00000000000E+00 0.  1.
         21   -1    0    0  502  503 -0.00000000000E+00 -0.00000000000E+00 -0.24031982011E+03  0.24031982011E+03  0.00000000000E+00 0.  1.
          6    1    1    2  501    0 -0.83823590442E+02 -0.61499582491E+02  0.75145838237E+02  0.21537058751E+03  0.17300000000E+03 0. -1.
         -6    1    1    2    0  503  0.83823590442E+02  0.61499582491E+02 -0.11037223549E+03  0.23004265546E+03  0.17300000000E+03 0. -1.
</event>
<event>
 4    1  0.6031777E+000  0.1000000E+03  0.7546771E-02  0.1280296E+00
         21   -1    0    0  501  502  0.00000000000E+00  0.00000000000E+00  0.99522871345E+03  0.99522871345E+03  0.00000000000E+00 0.  1.
         21   -1    0    0  502  503 -0.00000000000E+00 -0.00000000000E+00 -0.52138491848E+02  0.52138491848E+02  0.00000000000E+00 0.  1.
          6    1    1    2  501    0 -0.15693512932E+02  0.11376603980E+03  0.68685839401E+03  0.71756006828E+03  0.17300000000E+03 0. -1.
         -6    1    1    2    0  503  0.15693512932E+02 -0.11376603980E+03  0.25623182759E+03  0.32980713702E+03  0.17300000000E+03 0. -1.
</event>
<event>
 4    1  0.6031777E+000  0.1000000E+03  0.7546771E-02  0.1280296E+00
         21   -1    0    0  501  502  0.00000000000E+00  0.00000000000E+00  0.48115651890E+03  0.48115651890E+03  0.00000000000E+00 0. -1.
         21   -1    0    0  502  503 -0.00000000000E+00 -0.00000000000E+00 -0.12915902639E+03  0.12915902639E+03  0.00000000000E+00 0. -1.
          6    1    1    2  501    0 -0.54409503103E+02 -0.69579088586E+01  0.38520229241E+03  0.42581523294E+03  0.17300000000E+03 0. -1.
         -6    1    1    2    0  503  0.54409503103E+02  0.69579088586E+01 -0.33204799899E+02  0.18450031236E+03  0.17300000000E+03 0. -1.
</event>
<event>
 4    1  0.6031777E+000  0.1000000E+03  0.7546771E-02  0.1280296E+00
         21   -1    0    0  501  502  0.00000000000E+00  0.00000000000E+00  0.15946641967E+03  0.15946641967E+03  0.00000000000E+00 0.  1.
         21   -1    0    0  502  503 -0.00000000000E+00 -0.00000000000E+00 -0.28361284621E+03  0.28361284621E+03  0.00000000000E+00 0. -1.
          6    1    1    2  501    0 -0.21987847824E+02  0.12162031387E+03 -0.57103514629E+02  0.22014717255E+03  0.17300000000E+03 0. -1.
         -6    1    1    2    0  503  0.21987847824E+02 -0.12162031387E+03 -0.67042911911E+02  0.22293209333E+03  0.17300000000E+03 0.  1.
</event>
<event>
 4    1  0.6031777E+000  0.1000000E+03  0.7546771E-02  0.1280296E+00
         21   -1    0    0  503  502  0.00000000000E+00  0.00000000000E+00  0.98609104587E+02  0.98609104587E+02  0.00000000000E+00 0.  1.
         21   -1    0    0  501  503 -0.00000000000E+00 -0.00000000000E+00 -0.44653083965E+03  0.44653083965E+03  0.00000000000E+00 0. -1.
          6    1    1    2  501    0 -0.76652153301E+02 -0.43379370257E+02 -0.27743528497E+03  0.33860989311E+03  0.17300000000E+03 0.  1.
         -6    1    1    2    0  502  0.76652153301E+02  0.43379370257E+02 -0.70486450094E+02  0.20653005112E+03  0.17300000000E+03 0. -1.
</event>
<event>
 4    1  0.6031777E+000  0.1000000E+03  0.7546771E-02  0.1280296E+00
         21   -1    0    0  503  502  0.00000000000E+00  0.00000000000E+00  0.13327949365E+04  0.13327949365E+04  0.00000000000E+00 0.  1.
         21   -1    0    0  501  503 -0.00000000000E+00 -0.00000000000E+00 -0.12931644580E+03  0.12931644580E+03  0.00000000000E+00 0. -1.
          6    1    1    2  501    0 -0.26133906863E+03 -0.20938988928E+03  0.90816659258E+03  0.98327910300E+03  0.17300000000E+03 0.  1.
         -6    1    1    2    0  502  0.26133906863E+03  0.20938988928E+03  0.29531189812E+03  0.47883227930E+03  0.17300000000E+03 0. -1.
</event>
<event>
 4    1  0.6031777E+000  0.1000000E+03  0.7546771E-02  0.1280296E+00
         21   -1    0    0  503  502  0.00000000000E+00  0.00000000000E+00  0.98043887940E+02  0.98043887940E+02  0.00000000000E+00 0.  1.
         21   -1    0    0  501  503 -0.00000000000E+00 -0.00000000000E+00 -0.67153799756E+03  0.67153799756E+03  0.00000000000E+00 0. -1.
          6    1    1    2  501    0  0.57181737492E+02 -0.62271365642E+02 -0.54107953415E+03  0.57432006439E+03  0.17300000000E+03 0.  1.
         -6    1    1    2    0  502 -0.57181737492E+02  0.62271365642E+02 -0.32414575470E+02  0.19526182111E+03  0.17300000000E+03 0. -1.
</event>
<event>
 4    1  0.6031777E+000  0.1000000E+03  0.7546771E-02  0.1280296E+00
         21   -1    0    0  501  502  0.00000000000E+00  0.00000000000E+00  0.68360477023E+02  0.68360477023E+02  0.00000000000E+00 0. -1.
         21   -1    0    0  502  503 -0.00000000000E+00 -0.00000000000E+00 -0.93284616640E+03  0.93284616640E+03  0.00000000000E+00 0.  1.
          6    1    1    2  501    0  0.27137654377E+02  0.13200167027E+03 -0.18401069363E+03  0.28626880481E+03  0.17300000000E+03 0. -1.
         -6    1    1    2    0  503 -0.27137654377E+02 -0.13200167027E+03 -0.68047499575E+03  0.71493783861E+03  0.17300000000E+03 0.  1.
</event>
<event>
 4    1  0.6031777E+000  0.1000000E+03  0.7546771E-02  0.1280296E+00
         21   -1    0    0  501  502  0.00000000000E+00  0.00000000000E+00  0.14358485514E+04  0.14358485514E+04  0.00000000000E+00 0. -1.
         21   -1    0    0  502  503 -0.00000000000E+00 -0.00000000000E+00 -0.24632416526E+02  0.24632416526E+02  0.00000000000E+00 0.  1.
          6    1    1    2  501    0  0.13200011805E+01 -0.64379792904E+02  0.84522683922E+03  0.86514964594E+03  0.17300000000E+03 0. -1.
         -6    1    1    2    0  503 -0.13200011805E+01  0.64379792904E+02  0.56598929562E+03  0.59533132194E+03  0.17300000000E+03 0.  1.
</event>
<event>
 4    1  0.6031777E+000  0.1000000E+03  0.7546771E-02  0.1280296E+00
         21   -1    0    0  501  502  0.00000000000E+00  0.00000000000E+00  0.88917832828E+03  0.88917832828E+03  0.00000000000E+00 0. -1.
         21   -1    0    0  502  503 -0.00000000000E+00 -0.00000000000E+00 -0.50684207879E+02  0.50684207879E+02  0.00000000000E+00 0.  1.
          6    1    1    2  501    0 -0.10489269607E+03  0.42609787634E+02  0.31261964898E+03  0.37480410433E+03  0.17300000000E+03 0. -1.
         -6    1    1    2    0  503  0.10489269607E+03 -0.42609787634E+02  0.52587447142E+03  0.56505843183E+03  0.17300000000E+03 0.  1.
</event>
<event>
 4    1  0.6031777E+000  0.1000000E+03  0.7546771E-02  0.1280296E+00
         21   -1    0    0  501  502  0.00000000000E+00  0.00000000000E+00  0.10097318974E+03  0.10097318974E+03  0.00000000000E+00 0. -1.
         21   -1    0    0  502  503 -0.00000000000E+00 -0.00000000000E+00 -0.71146164352E+03  0.71146164352E+03  0.00000000000E+00 0. -1.
          6    1    1    2  501    0  0.13816827428E+03  0.30176051495E+02 -0.80914961685E+02  0.23764952583E+03  0.17300000000E+03 0. -1.
         -6    1    1    2    0  503 -0.13816827428E+03 -0.30176051495E+02 -0.52957349210E+03  0.57478530743E+03  0.17300000000E+03 0. -1.
</event>
<event>
 4    1  0.6031777E+000  0.1000000E+03  0.7546771E-02  0.1280296E+00
         21   -1    0    0  501  502  0.00000000000E+00  0.00000000000E+00  0.86803324241E+03  0.86803324241E+03  0.00000000000E+00 0. -1.
         21   -1    0    0  502  503 -0.00000000000E+00 -0.00000000000E+00 -0.84650507972E+02  0.84650507972E+02  0.00000000000E+00 0. -1.
          6    1    1    2  501    0  0.18744195060E+03 -0.76004192381E+02  0.48196956415E+03  0.55057677291E+03  0.17300000000E+03 0. -1.
         -6    1    1    2    0  503 -0.18744195060E+03  0.76004192381E+02  0.30141317029E+03  0.40210697747E+03  0.17300000000E+03 0. -1.
</event>
<event>
 4    1  0.6031777E+000  0.1000000E+03  0.7546771E-02  0.1280296E+00
         21   -1    0    0  501  502  0.00000000000E+00  0.00000000000E+00  0.71179448081E+03  0.71179448081E+03  0.00000000000E+00 0. -1.
         21   -1    0    0  502  503 -0.00000000000E+00 -0.00000000000E+00 -0.18506257289E+03  0.18506257289E+03  0.00000000000E+00 0. -1.
          6    1    1    2  501    0 -0.17954415127E+02 -0.16369187860E+03  0.60101003983E+03  0.64672982004E+03  0.17300000000E+03 0. -1.
         -6    1    1    2    0  503  0.17954415127E+02  0.16369187860E+03 -0.74278131914E+02  0.25012723367E+03  0.17300000000E+03 0. -1.
</event>
<event>
 4    1  0.6031777E+000  0.1000000E+03  0.7546771E-02  0.1280296E+00
         21   -1    0    0  501  502  0.00000000000E+00  0.00000000000E+00  0.17621764181E+02  0.17621764181E+02  0.00000000000E+00 0. -1.
         21   -1    0    0  502  503 -0.00000000000E+00 -0.00000000000E+00 -0.24943674734E+04  0.24943674734E+04  0.00000000000E+00 0. -1.
          6    1    1    2  501    0  0.86134773419E+02 -0.45866781970E+02 -0.83635696185E+03  0.85961906011E+03  0.17300000000E+03 0. -1.
         -6    1    1    2    0  503 -0.86134773419E+02  0.45866781970E+02 -0.16403887473E+04  0.16523701774E+04  0.17300000000E+03 0. -1.
</event>
<event>
 4    1  0.6031777E+000  0.1000000E+03  0.7546771E-02  0.1280296E+00
         21   -1    0    0  503  502  0.00000000000E+00  0.00000000000E+00  0.24627567527E+03  0.24627567527E+03  0.00000000000E+00 0.  1.
         21   -1    0    0  501  503 -0.00000000000E+00 -0.00000000000E+00 -0.55235954125E+03  0.55235954125E+03  0.00000000000E+00 0.  1.
          6    1    1    2  501    0  0.20464546405E+03 -0.24064405082E+03 -0.23907444536E+03  0.43229031400E+03  0.17300000000E+03 0.  1.
         -6    1    1    2    0  502 -0.20464546405E+03  0.24064405082E+03 -0.67009420619E+02  0.36634490252E+03  0.17300000000E+03 0.  1.
</event>
<event>
 4    1  0.6031777E+000  0.1000000E+03  0.7546771E-02  0.1280296E+00
         21   -1    0    0  503  502  0.00000000000E+00  0.00000000000E+00  0.44799718341E+03  0.44799718341E+03  0.00000000000E+00 0.  1.
         21   -1    0    0  501  503 -0.00000000000E+00 -0.00000000000E+00 -0.27119076303E+03  0.27119076303E+03  0.00000000000E+00 0.  1.
          6    1    1    2  501    0 -0.14876573070E+03  0.35265595185E+02 -0.18099444923E+03  0.29336478229E+03  0.17300000000E+03 0.  1.
         -6    1    1    2    0  502  0.14876573070E+03 -0.35265595185E+02  0.35780086961E+03  0.42582316415E+03  0.17300000000E+03 0.  1.
</event>
<event>
 4    1  0.6031777E+000  0.1000000E+03  0.7546771E-02  0.1280296E+00
         21   -1    0    0  501  502  0.00000000000E+00  0.00000000000E+00  0.14394591957E+04  0.14394591957E+04  0.00000000000E+00 0. -1.
         21   -1    0    0  502  503 -0.00000000000E+00 -0.00000000000E+00 -0.49508776908E+02  0.49508776908E+02  0.00000000000E+00 0.  1.
          6    1    1    2  501    0  0.92021037795E+02  0.87950906752E+02  0.11370972830E+04  0.11572045905E+04  0.17300000000E+03 0. -1.
         -6    1    1    2    0  503 -0.92021037795E+02 -0.87950906752E+02  0.25285313582E+03  0.33176338208E+03  0.17300000000E+03 0.  1.
</event>
<event>
 4    1  0.6031777E+000  0.1000000E+03  0.7546771E-02  0.1280296E+00
         21   -1    0    0  501  502  0.00000000000E+00  0.00000000000E+00  0.68407776413E+03  0.68407776413E+03  0.00000000000E+00 0. -1.
         21   -1    0    0  502  503 -0.00000000000E+00 -0.00000000000E+00 -0.63810900813E+02  0.63810900813E+02  0.00000000000E+00 0.  1.
          6    1    1    2  501    0  0.81713376695E+00  0.11891708608E+02  0.51870987944E+03  0.54692871516E+03  0.17300000000E+03 0. -1.
         -6    1    1    2    0  503 -0.81713376695E+00 -0.11891708608E+02  0.10155698388E+03  0.20095994978E+03  0.17300000000E+03 0.  1.
</event>
<event>
 4    1  0.6031777E+000  0.1000000E+03  0.7546771E-02  0.1280296E+00
         21   -1    0    0  503  502  0.00000000000E+00  0.00000000000E+00  0.56974042480E+03  0.56974042480E+03  0.00000000000E+00 0. -1.
         21   -1    0    0  501  503 -0.00000000000E+00 -0.00000000000E+00 -0.12042012554E+03  0.12042012554E+03  0.00000000000E+00 0.  1.
          6    1    1    2  501    0 -0.80044272700E+02  0.75233488075E+01 -0.11803670347E+02  0.19113349524E+03  0.17300000000E+03 0.  1.
         -6    1    1    2    0  502  0.80044272700E+02 -0.75233488075E+01  0.46112396961E+03  0.49902705510E+03  0.17300000000E+03 0. -1.
</event>
<event>
 4    1  0.6031777E+000  0.1000000E+03  0.7546771E-02  0.1280296E+00
         21   -1    0    0  503  502  0.00000000000E+00  0.00000000000E+00  0.57672503405E+02  0.57672503405E+02  0.00000000000E+00 0. -1.
         21   -1    0    0  501  503 -0.00000000000E+00 -0.00000000000E+00 -0.10815161640E+04  0.10815161640E+04  0.00000000000E+00 0.  1.
          6    1    1    2  501    0  0.13867791861E+03 -0.18750814624E+02 -0.77057155624E+03  0.80205528578E+03  0.17300000000E+03 0. -1.
         -6    1    1    2    0  502 -0.13867791861E+03  0.18750814624E+02 -0.25327210434E+03  0.33713338161E+03  0.17300000000E+03 0.  1.
</event>
<event>
 4    1  0.6031777E+000  0.1000000E+03  0.7546771E-02  0.1280296E+00
         21   -1    0    0  503  502  0.00000000000E+00  0.00000000000E+00  0.98012634037E+03  0.98012634037E+03  0.00000000000E+00 0. -1.
         21   -1    0    0  501  503 -0.00000000000E+00 -0.00000000000E+00 -0.73620403617E+02  0.73620403617E+02  0.00000000000E+00 0.  1.
          6    1    1    2  501    0 -0.16862122908E+03 -0.18100053469E+02  0.22563283267E+03  0.33105876519E+03  0.17300000000E+03 0. -1.
         -6    1    1    2    0  502  0.16862122908E+03  0.18100053469E+02  0.68087310409E+03  0.72268797880E+03  0.17300000000E+03 0.  1.
</event>
<event>
 4    1  0.6031777E+000  0.1000000E+03  0.7546771E-02  0.1280296E+00
         21   -1    0    0  503  502  0.00000000000E+00  0.00000000000E+00  0.17119023111E+04  0.17119023111E+04  0.00000000000E+00 0.  1.
         21   -1    0    0  501  503 -0.00000000000E+00 -0.00000000000E+00 -0.63762662757E+02  0.63762662757E+02  0.00000000000E+00 0.  1.
          6    1    1    2  501    0  0.15641301210E+03 -0.11622754164E+03  0.27826940172E+03  0.38123054931E+03  0.17300000000E+03 0.  1.
         -6    1    1    2    0  502 -0.15641301210E+03  0.11622754164E+03  0.13698702466E+04  0.13944344246E+04  0.17300000000E+03 0.  1.
</event>
<event>
 4    1  0.6031777E+000  0.1000000E+03  0.7546771E-02  0.1280296E+00
         21   -1    0    0  503  502  0.00000000000E+00  0.00000000000E+00  0.85656807939E+03  0.85656807939E+03  0.00000000000E+00 0.  1.
         21   -1    0    0  501  503 -0.00000000000E+00 -0.00000000000E+00 -0.15859486854E+03  0.15859486854E+03  0.00000000000E+00 0.  1.
          6    1    1    2  501    0 -0.15179146359E+02  0.78806464265E+01 -0.98587797271E+02  0.19985260780E+03  0.17300000000E+03 0.  1.
         -6    1    1    2    0  502  0.15179146359E+02 -0.78806464265E+01  0.79656100812E+03  0.81531034013E+03  0.17300000000E+03 0.  1.
</event>
<event>
 4    1  0.6031777E+000  0.1000000E+03  0.7546771E-02  0.1280296E+00
         21   -1    0    0  503  502  0.00000000000E+00  0.00000000000E+00  0.13723289046E+03  0.13723289046E+03  0.00000000000E+00 0.  1.
         21   -1    0    0  501  503 -0.00000000000E+00 -0.00000000000E+00 -0.55723048517E+03  0.55723048517E+03  0.00000000000E+00 0.  1.
          6    1    1    2  501    0 -0.23803205507E+02  0.12626263040E+03 -0.42760366007E+03  0.47883476747E+03  0.17300000000E+03 0.  1.
         -6    1    1    2    0  502  0.23803205507E+02 -0.12626263040E+03  0.76060653580E+01  0.21562860816E+03  0.17300000000E+03 0.  1.
</event>
<event>
 4    1  0.6031777E+000  0.1000000E+03  0.7546771E-02  0.1280296E+00
         21   -1    0    0  503  502  0.00000000000E+00  0.00000000000E+00  0.29221839524E+03  0.29221839524E+03  0.00000000000E+00 0.  1.
         21   -1    0    0  501  503 -0.00000000000E+00 -0.00000000000E+00 -0.19424155734E+03  0.19424155734E+03  0.00000000000E+00 0.  1.
          6    1    1    2  501    0  0.53694873919E+01  0.12091142677E+03 -0.63699977909E+02  0.22053365209E+03  0.17300000000E+03 0.  1.
         -6    1    1    2    0  502 -0.53694873919E+01 -0.12091142677E+03  0.16167681581E+03  0.26592630048E+03  0.17300000000E+03 0.  1.
</event>
<event>
 4    1  0.6031777E+000  0.1000000E+03  0.7546771E-02  0.1280296E+00
         21   -1    0    0  501  502  0.00000000000E+00  0.00000000000E+00  0.85492098728E+02  0.85492098728E+02  0.00000000000E+00 0. -1.
         21   -1    0    0  502  503 -0.00000000000E+00 -0.00000000000E+00 -0.46084464473E+03  0.46084464473E+03  0.00000000000E+00 0. -1.
          6    1    1    2  501    0 -0.16084510429E+01 -0.84538142900E+02 -0.12138423151E+03  0.22762340912E+03  0.17300000000E+03 0. -1.
         -6    1    1    2    0  503  0.16084510429E+01  0.84538142900E+02 -0.25396831450E+03  0.31871333435E+03  0.17300000000E+03 0. -1.
</event>
<event>
 4    1  0.6031777E+000  0.1000000E+03  0.7546771E-02  0.1280296E+00
         21   -1    0    0  501  502  0.00000000000E+00  0.00000000000E+00  0.26019995551E+04  0.26019995551E+04  0.00000000000E+00 0.  1.
         21   -1    0    0  502  503 -0.00000000000E+00 -0.00000000000E+00 -0.33263425574E+02  0.33263425574E+02  0.00000000000E+00 0.  1.
          6    1    1    2  501    0 -0.92104905983E+02 -0.49534584934E+02  0.22416629261E+04  0.22507595747E+04  0.17300000000E+03 0.  1.
         -6    1    1    2    0  503  0.92104905983E+02  0.49534584934E+02  0.32707320341E+03  0.38450340596E+03  0.17300000000E+03 0.  1.
</event>
<event>
 4    1  0.6031777E+000  0.1000000E+03  0.7546771E-02  0.1280296E+00
         21   -1    0    0  501  502  0.00000000000E+00  0.00000000000E+00  0.35556734232E+03  0.35556734232E+03  0.00000000000E+00 0.  1.
         21   -1    0    0  502  503 -0.00000000000E+00 -0.00000000000E+00 -0.18850158653E+03  0.18850158653E+03  0.00000000000E+00 0.  1.
          6    1    1    2  501    0 -0.10166919017E+03 -0.51846815629E+02  0.24655824558E+03  0.32209421756E+03  0.17300000000E+03 0.  1.
         -6    1    1    2    0  503  0.10166919017E+03  0.51846815629E+02 -0.79492489792E+02  0.22197471129E+03  0.17300000000E+03 0.  1.
</event>
<event>
 4    1  0.6031777E+000  0.1000000E+03  0.7546771E-02  0.1280296E+00
         21   -1    0    0  501  502  0.00000000000E+00  0.00000000000E+00  0.11573239409E+03  0.11573239409E+03  0.00000000000E+00 0. -1.
         21   -1    0    0  502  503 -0.00000000000E+00 -0.00000000000E+00 -0.32479393094E+03  0.32479393094E+03  0.00000000000E+00 0. -1.
          6    1    1    2  501    0 -0.17991952781E+02 -0.31659229902E+02 -0.14112740029E+02  0.17735328199E+03  0.17300000000E+03 0. -1.
         -6    1    1    2    0  503  0.17991952781E+02  0.31659229902E+02 -0.19494879682E+03  0.26317304304E+03  0.17300000000E+03 0. -1.
</event>
<event>
 4    1  0.6031777E+000  0.1000000E+03  0.7546771E-02  0.1280296E+00
         21   -1    0    0  501  502  0.00000000000E+00  0.00000000000E+00  0.92121644563E+03  0.92121644563E+03  0.00000000000E+00 0. -1.
         21   -1    0    0  502  503 -0.00000000000E+00 -0.00000000000E+00 -0.88156440601E+02  0.88156440601E+02  0.00000000000E+00 0. -1.
          6    1    1    2  501    0 -0.92034549179E+02 -0.19202555772E+03  0.55299884196E+03  0.61731749714E+03  0.17300000000E+03 0. -1.
         -6    1    1    2    0  503  0.92034549179E+02  0.19202555772E+03  0.28006116307E+03  0.39205538909E+03  0.17300000000E+03 0. -1.
</event>
<event>
 4    1  0.6031777E+000  0.1000000E+03  0.7546771E-02  0.1280296E+00
         21   -1    0    0  501  502  0.00000000000E+00  0.00000000000E+00  0.13252675163E+04  0.13252675163E+04  0.00000000000E+00 0. -1.
         21   -1    0    0  502  503 -0.00000000000E+00 -0.00000000000E+00 -0.51214008383E+02  0.51214008383E+02  0.00000000000E+00 0.  1.
          6    1    1    2  501    0 -0.26490859630E+02 -0.98515684578E+02  0.10754018625E+04  0.10939950967E+04  0.17300000000E+03 0.  1.
         -6    1    1    2    0  503  0.26490859630E+02  0.98515684578E+02  0.19865164534E+03  0.28248642790E+03  0.17300000000E+03 0. -1.
</event>
<event>
 4    1  0.6031777E+000  0.1000000E+03  0.7546771E-02  0.1280296E+00
         21   -1    0    0  501  502  0.00000000000E+00  0.00000000000E+00  0.36045040831E+02  0.36045040831E+02  0.00000000000E+00 0. -1.
         21   -1    0    0  502  503 -0.00000000000E+00 -0.00000000000E+00 -0.13790597172E+04  0.13790597172E+04  0.00000000000E+00 0.  1.
          6    1    1    2  501    0 -0.11610674361E+02  0.11677026463E+03 -0.42549820483E+03  0.47407575848E+03  0.17300000000E+03 0.  1.
         -6    1    1    2    0  503  0.11610674361E+02 -0.11677026463E+03 -0.91751647155E+03  0.94102899957E+03  0.17300000000E+03 0. -1.
</event>
<event>
 4    1  0.6031777E+000  0.1000000E+03  0.7546771E-02  0.1280296E+00
         21   -1    0    0  501  502  0.00000000000E+00  0.00000000000E+00  0.88286582435E+02  0.88286582435E+02  0.00000000000E+00 0.  1.
         21   -1    0    0  502  503 -0.00000000000E+00 -0.00000000000E+00 -0.96574465819E+03  0.96574465819E+03  0.00000000000E+00 0.  1.
          6    1    1    2  501    0 -0.62654092444E+01 -0.63312980682E+02 -0.29993591826E+02  0.18675225414E+03  0.17300000000E+03 0.  1.
         -6    1    1    2    0  503  0.62654092444E+01  0.63312980682E+02 -0.84746448393E+03  0.86727898649E+03  0.17300000000E+03 0.  1.
</event>
<event>
 4    1  0.6031777E+000  0.1000000E+03  0.7546771E-02  0.1280296E+00
         21   -1    0    0  503  502  0.00000000000E+00  0.00000000000E+00  0.10741992490E+03  0.10741992490E+03  0.00000000000E+00 0. -1.
         21   -1    0    0  501  503 -0.00000000000E+00 -0.00000000000E+00 -0.54193113641E+03  0.54193113641E+03  0.00000000000E+00 0. -1.
          6    1    1    2  501    0  0.77258545122E+02  0.19284007867E+02 -0.41659695695E+03  0.45806416613E+03  0.17300000000E+03 0. -1.
         -6    1    1    2    0  502 -0.77258545122E+02 -0.19284007867E+02 -0.17914254565E+02  0.19128689519E+03  0.17300000000E+03 0. -1.
</event>
<event>
 4    1  0.6031777E+000  0.1000000E+03  0.7546771E-02  0.1280296E+00
         21   -1    0    0  503  502  0.00000000000E+00  0.00000000000E+00  0.80638562332E+02  0.80638562332E+02  0.00000000000E+00 0.  1.
         21   -1    0    0  501  503 -0.00000000000E+00 -0.00000000000E+00 -0.65415163034E+03  0.65415163034E+03  0.00000000000E+00 0. -1.
          6    1    1    2  501    0 -0.85937295752E+02  0.12424020308E+03 -0.28673656737E+03  0.36737951212E+03  0.17300000000E+03 0. -1.
         -6    1    1    2    0  502  0.85937295752E+02 -0.12424020308E+03 -0.28677650064E+03  0.36741068055E+03  0.17300000000E+03 0.  1.
</event>
<event>
 4    1  0.6031777E+000  0.1000000E+03  0.7546771E-02  0.1280296E+00
         21   -1    0    0  503  502  0.00000000000E+00  0.00000000000E+00  0.15059658986E+03  0.15059658986E+03  0.00000000000E+00 0.  1.
         21   -1    0    0  501  503 -0.00000000000E+00 -0.00000000000E+00 -0.11708543479E+04  0.11708543479E+04  0.00000000000E+00 0. -1.
          6    1    1    2  501    0  0.12665036873E+02 -0.27671156797E+03 -0.92544485966E+03  0.98138009114E+03  0.17300000000E+03 0.  1.
         -6    1    1    2    0  502 -0.12665036873E+02  0.27671156797E+03 -0.94812898347E+02  0.34007084659E+03  0.17300000000E+03 0. -1.
</event>
<event>
 4    1  0.6031777E+000  0.1000000E+03  0.7546771E-02  0.1280296E+00
         21   -1    0    0  503  502  0.00000000000E+00  0.00000000000E+00  0.23883033668E+03  0.23883033668E+03  0.00000000000E+00 0.  1.
         21   -1    0    0  501  503 -0.00000000000E+00 -0.00000000000E+00 -0.19499181903E+03  0.19499181903E+03  0.00000000000E+00 0. -1.
          6    1    1    2  501    0  0.93429925138E+02 -0.83624670347E+02  0.52385694644E+02  0.21998976659E+03  0.17300000000E+03 0.  1.
         -6    1    1    2    0  502 -0.93429925138E+02  0.83624670347E+02 -0.85471769984E+01  0.21383238912E+03  0.17300000000E+03 0. -1.
</event>
<event>
 4    1  0.6031777E+000  0.1000000E+03  0.7546771E-02  0.1280296E+00
         21   -1    0    0  503  502  0.00000000000E+00  0.00000000000E+00  0.30525074249E+03  0.30525074249E+03  0.00000000000E+00 0. -1.
         21   -1    0    0  501  503 -0.00000000000E+00 -0.00000000000E+00 -0.15316322183E+03  0.15316322183E+03  0.00000000000E+00 0.  1.
          6    1    1    2  501    0 -0.23463900821E+01  0.20955219990E+02 -0.59622968279E+02  0.18419697375E+03  0.17300000000E+03 0. -1.
         -6    1    1    2    0  502  0.23463900821E+01 -0.20955219990E+02  0.21171048894E+03  0.27421699058E+03  0.17300000000E+03 0.  1.
</event>
<event>
 4    1  0.6031777E+000  0.1000000E+03  0.7546771E-02  0.1280296E+00
         21   -1    0    0  503  502  0.00000000000E+00  0.00000000000E+00  0.47028151242E+03  0.47028151242E+03  0.00000000000E+00 0. -1.
         21   -1    0    0  501  503 -0.00000000000E+00 -0.00000000000E+00 -0.16467370445E+03  0.16467370445E+03  0.00000000000E+00 0.  1.
          6    1    1    2  501    0 -0.15623048078E+03 -0.14797421066E+03  0.11312540546E+03  0.29838010575E+03  0.17300000000E+03 0. -1.
         -6    1    1    2    0  502  0.15623048078E+03  0.14797421066E+03  0.19248240250E+03  0.33657511111E+03  0.17300000000E+03 0.  1.
</event>
<event>
 4    1  0.6031777E+000  0.1000000E+03  0.7546771E-02  0.1280296E+00
         21   -1    0    0  503  502  0.00000000000E+00  0.00000000000E+00  0.41406514835E+03  0.41406514835E+03  0.00000000000E+00 0. -1.
         21   -1    0    0  501  503 -0.00000000000E+00 -0.00000000000E+00 -0.12622286764E+04  0.12622286764E+04  0.00000000000E+00 0.  1.
          6    1    1    2  501    0  0.10985621239E+03 -0.17201299122E+03 -0.12027159878E+04  0.12321167168E+04  0.17300000000E+03 0.  1.
         -6    1    1    2    0  502 -0.10985621239E+03  0.17201299122E+03  0.35455245972E+03  0.44417710796E+03  0.17300000000E+03 0. -1.
</event>
<event>
 4    1  0.6031777E+000  0.1000000E+03  0.7546771E-02  0.1280296E+00
         21   -1    0    0  503  502  0.00000000000E+00  0.00000000000E+00  0.10933442718E+03  0.10933442718E+03  0.00000000000E+00 0. -1.
         21   -1    0    0  501  503 -0.00000000000E+00 -0.00000000000E+00 -0.47972622795E+03  0.47972622795E+03  0.00000000000E+00 0.  1.
          6    1    1    2  501    0  0.37234441280E+02  0.12858390166E+03 -0.97959376723E+02  0.23967741419E+03  0.17300000000E+03 0.  1.
         -6    1    1    2    0  502 -0.37234441280E+02 -0.12858390166E+03 -0.27243242404E+03  0.34938324095E+03  0.17300000000E+03 0. -1.
</event>
<event>
 4    1  0.6031777E+000  0.1000000E+03  0.7546771E-02  0.1280296E+00
         21   -1    0    0  503  502  0.00000000000E+00  0.00000000000E+00  0.22552657044E+02  0.22552657044E+02  0.00000000000E+00 0. -1.
         21   -1    0    0  501  503 -0.00000000000E+00 -0.00000000000E+00 -0.16469280902E+04  0.16469280902E+04  0.00000000000E+00 0.  1.
          6    1    1    2  501    0 -0.33744798938E+02  0.71556719692E+02 -0.94600424619E+03  0.96494150569E+03  0.17300000000E+03 0.  1.
         -6    1    1    2    0  502  0.33744798938E+02 -0.71556719692E+02 -0.67837118699E+03  0.70453924158E+03  0.17300000000E+03 0. -1.
</event>
<event>
 4    1  0.6031777E+000  0.1000000E+03  0.7546771E-02  0.1280296E+00
         21   -1    0    0  501  502  0.00000000000E+00  0.00000000000E+00  0.79971806266E+02  0.79971806266E+02  0.00000000000E+00 0.  1.
         21   -1    0    0  502  503 -0.00000000000E+00 -0.00000000000E+00 -0.66141666805E+03  0.66141666805E+03  0.00000000000E+00 0.  1.
          6    1    1    2  501    0  0.40812166732E+02  0.14318855822E+03 -0.24521698728E+03  0.33500592086E+03  0.17300000000E+03 0.  1.
         -6    1    1    2    0  503 -0.40812166732E+02 -0.14318855822E+03 -0.33622787450E+03  0.40638255345E+03  0.17300000000E+03 0.  1.
</event>
<event>
 4    1  0.6031777E+000  0.1000000E+03  0.7546771E-02  0.1280296E+00
         21   -1    0    0  501  502  0.00000000000E+00  0.00000000000E+00  0.34604488250E+03  0.34604488250E+03  0.00000000000E+00 0.  1.
         21   -1    0    0  502  503 -0.00000000000E+00 -0.00000000000E+00 -0.13432525502E+03  0.13432525502E+03  0.00000000000E+00 0.  1.
          6    1    1    2  501    0 -0.10661491596E+03 -0.31215055817E+02  0.17816478905E+03  0.27205295821E+03  0.17300000000E+03 0.  1.
         -6    1    1    2    0  503  0.10661491596E+03  0.31215055817E+02  0.33554838425E+02  0.20831717931E+03  0.17300000000E+03 0.  1.
</event>
<event>
 4    1  0.6031777E+000  0.1000000E+03  0.7546771E-02  0.1280296E+00
         21   -1    0    0  503  502  0.00000000000E+00  0.00000000000E+00  0.46553609215E+03  0.46553609215E+03  0.00000000000E+00 0. -1.
         21   -1    0    0  501  503 -0.00000000000E+00 -0.00000000000E+00 -0.21592704926E+03  0.21592704926E+03  0.00000000000E+00 0.  1.
          6    1    1    2  501    0  0.86157969418E+02  0.15717237329E+03 -0.85972575330E+02  0.26352729333E+03  0.17300000000E+03 0. -1.
         -6    1    1    2    0  502 -0.86157969418E+02 -0.15717237329E+03  0.33558161823E+03  0.41793584808E+03  0.17300000000E+03 0.  1.
</event>
<event>
 4    1  0.6031777E+000  0.1000000E+03  0.7546771E-02  0.1280296E+00
         21   -1    0    0  501  502  0.00000000000E+00  0.00000000000E+00  0.54617102319E+02  0.54617102319E+02  0.00000000000E+00 0. -1.
         21   -1    0    0  502  503 -0.00000000000E+00 -0.00000000000E+00 -0.28337735346E+04  0.28337735346E+04  0.00000000000E+00 0.  1.
          6    1    1    2  501    0  0.18777611522E+02  0.61274546599E+02 -0.11402664759E+03  0.21688302173E+03  0.17300000000E+03 0. -1.
         -6    1    1    2    0  503 -0.18777611522E+02 -0.61274546599E+02 -0.26651297847E+04  0.26715076152E+04  0.17300000000E+03 0.  1.
</event>
<event>
 4    1  0.6031777E+000  0.1000000E+03  0.7546771E-02  0.1280296E+00
         21   -1    0    0  501  502  0.00000000000E+00  0.00000000000E+00  0.86552332408E+02  0.86552332408E+02  0.00000000000E+00 0. -1.
         21   -1    0    0  502  503 -0.00000000000E+00 -0.00000000000E+00 -0.51676946051E+03  0.51676946051E+03  0.00000000000E+00 0.  1.
          6    1    1    2  501    0 -0.63201488275E+02  0.10242534360E+03 -0.18986457244E+03  0.28365989318E+03  0.17300000000E+03 0. -1.
         -6    1    1    2    0  503  0.63201488275E+02 -0.10242534360E+03 -0.24035255566E+03  0.31966189973E+03  0.17300000000E+03 0.  1.
</event>
<event>
 4    1  0.6031777E+000  0.1000000E+03  0.7546771E-02  0.1280296E+00
         21   -1    0    0  503  502  0.00000000000E+00  0.00000000000E+00  0.10103920394E+03  0.10103920394E+03  0.00000000000E+00 0. -1.
         21   -1    0    0  501  503 -0.00000000000E+00 -0.00000000000E+00 -0.44484065870E+03  0.44484065870E+03  0.00000000000E+00 0.  1.
          6    1    1    2  501    0 -0.60701870613E+01  0.11299173313E+03 -0.23246919811E+03  0.31108665513E+03  0.17300000000E+03 0. -1.
         -6    1    1    2    0  502  0.60701870613E+01 -0.11299173313E+03 -0.11133225664E+03  0.23479320752E+03  0.17300000000E+03 0. -1.
</event>
<event>
 4    1  0.6031777E+000  0.1000000E+03  0.7546771E-02  0.1280296E+00
         21   -1    0    0  503  502  0.00000000000E+00  0.00000000000E+00  0.34702891564E+03  0.34702891564E+03  0.00000000000E+00 0. -1.
         21   -1    0    0  501  503 -0.00000000000E+00 -0.00000000000E+00 -0.59415297860E+03  0.59415297860E+03  0.00000000000E+00 0.  1.
          6    1    1    2  501    0  0.19552992181E+03  0.37080942796E+03 -0.99755418404E+02  0.46434009701E+03  0.17300000000E+03 0. -1.
         -6    1    1    2    0  502 -0.19552992181E+03 -0.37080942796E+03 -0.14736864455E+03  0.47684179723E+03  0.17300000000E+03 0. -1.
</event>
<event>
 4    1  0.6031777E+000  0.1000000E+03  0.7546771E-02  0.1280296E+00
         21   -1    0    0  503  502  0.00000000000E+00  0.00000000000E+00  0.75599785540E+03  0.75599785540E+03  0.00000000000E+00 0. -1.
         21   -1    0    0  501  503 -0.00000000000E+00 -0.00000000000E+00 -0.82499742016E+02  0.82499742016E+02  0.00000000000E+00 0.  1.
          6    1    1    2  501    0  0.71283214080E+02  0.15847552004E+03  0.25721043879E+03  0.35536178310E+03  0.17300000000E+03 0. -1.
         -6    1    1    2    0  502 -0.71283214080E+02 -0.15847552004E+03  0.41628767459E+03  0.48313581432E+03  0.17300000000E+03 0. -1.
</event>
<event>
 4    1  0.6031777E+000  0.1000000E+03  0.7546771E-02  0.1280296E+00
         21   -1    0    0  503  502  0.00000000000E+00  0.00000000000E+00  0.12058242597E+03  0.12058242597E+03  0.00000000000E+00 0. -1.
         21   -1    0    0  501  503 -0.00000000000E+00 -0.00000000000E+00 -0.32565481323E+03  0.32565481323E+03  0.00000000000E+00 0.  1.
          6    1    1    2  501    0  0.10086998165E+02  0.92749663389E+02 -0.74163415902E+02  0.21007965120E+03  0.17300000000E+03 0. -1.
         -6    1    1    2    0  502 -0.10086998165E+02 -0.92749663389E+02 -0.13090897136E+03  0.23615758801E+03  0.17300000000E+03 0. -1.
</event>
<event>
 4    1  0.6031777E+000  0.1000000E+03  0.7546771E-02  0.1280296E+00
         21   -1    0    0  503  502  0.00000000000E+00  0.00000000000E+00  0.26515426995E+03  0.26515426995E+03  0.00000000000E+00 0. -1.
         21   -1    0    0  501  503 -0.00000000000E+00 -0.00000000000E+00 -0.84542739650E+03  0.84542739650E+03  0.00000000000E+00 0.  1.
          6    1    1    2  501    0 -0.36209283022E+02 -0.37189841853E+03 -0.16036314083E+02  0.41207488306E+03  0.17300000000E+03 0. -1.
         -6    1    1    2    0  502  0.36209283022E+02  0.37189841853E+03 -0.56423681247E+03  0.69850678338E+03  0.17300000000E+03 0. -1.
</event>
<event>
 4    1  0.6031777E+000  0.1000000E+03  0.7546771E-02  0.1280296E+00
         21   -1    0    0  503  502  0.00000000000E+00  0.00000000000E+00  0.54029402508E+03  0.54029402508E+03  0.00000000000E+00 0. -1.
         21   -1    0    0  501  503 -0.00000000000E+00 -0.00000000000E+00 -0.26689803874E+03  0.26689803874E+03  0.00000000000E+00 0.  1.
          6    1    1    2  501    0  0.31569662581E+03 -0.63429581919E+02  0.27342570291E+02  0.36655734553E+03  0.17300000000E+03 0. -1.
         -6    1    1    2    0  502 -0.31569662581E+03  0.63429581919E+02  0.24605341605E+03  0.44063471829E+03  0.17300000000E+03 0. -1.
</event>
<event>
 4    1  0.6031777E+000  0.1000000E+03  0.7546771E-02  0.1280296E+00
         21   -1    0    0  503  502  0.00000000000E+00  0.00000000000E+00  0.22793443158E+03  0.22793443158E+03  0.00000000000E+00 0. -1.
         21   -1    0    0  501  503 -0.00000000000E+00 -0.00000000000E+00 -0.84896149199E+03  0.84896149199E+03  0.00000000000E+00 0.  1.
          6    1    1    2  501    0  0.30031520783E+03 -0.55434391544E+02 -0.63509443213E+03  0.72562809589E+03  0.17300000000E+03 0. -1.
         -6    1    1    2    0  502 -0.30031520783E+03  0.55434391544E+02  0.14067371723E+02  0.35126782768E+03  0.17300000000E+03 0.  1.
</event>
<event>
 4    1  0.6031777E+000  0.1000000E+03  0.7546771E-02  0.1280296E+00
         21   -1    0    0  503  502  0.00000000000E+00  0.00000000000E+00  0.42969003441E+03  0.42969003441E+03  0.00000000000E+00 0. -1.
         21   -1    0    0  501  503 -0.00000000000E+00 -0.00000000000E+00 -0.46958873251E+03  0.46958873251E+03  0.00000000000E+00 0.  1.
          6    1    1    2  501    0  0.25749259255E+03  0.23178941961E+03 -0.24781342111E+03  0.45974912935E+03  0.17300000000E+03 0. -1.
         -6    1    1    2    0  502 -0.25749259255E+03 -0.23178941961E+03  0.20791472300E+03  0.43952963757E+03  0.17300000000E+03 0.  1.
</event>
<event>
 4    1  0.6031777E+000  0.1000000E+03  0.7546771E-02  0.1280296E+00
         21   -1    0    0  503  502  0.00000000000E+00  0.00000000000E+00  0.15150079677E+04  0.15150079677E+04  0.00000000000E+00 0. -1.
         21   -1    0    0  501  503 -0.00000000000E+00 -0.00000000000E+00 -0.25192629230E+02  0.25192629230E+02  0.00000000000E+00 0.  1.
          6    1    1    2  501    0  0.54532584455E+02 -0.48587363912E+01  0.45954669218E+03  0.49407446036E+03  0.17300000000E+03 0. -1.
         -6    1    1    2    0  502 -0.54532584455E+02  0.48587363912E+01  0.10302686463E+04  0.10461261366E+04  0.17300000000E+03 0.  1.
</event>
<event>
 4    1  0.6031777E+000  0.1000000E+03  0.7546771E-02  0.1280296E+00
         21   -1    0    0  503  502  0.00000000000E+00  0.00000000000E+00  0.10681460052E+03  0.10681460052E+03  0.00000000000E+00 0. -1.
         21   -1    0    0  501  503 -0.00000000000E+00 -0.00000000000E+00 -0.64230954814E+03  0.64230954814E+03  0.00000000000E+00 0.  1.
          6    1    1    2  501    0 -0.16909855989E+03 -0.31717650208E+02 -0.40400116186E+03  0.47196003123E+03  0.17300000000E+03 0. -1.
         -6    1    1    2    0  502  0.16909855989E+03  0.31717650208E+02 -0.13149378576E+03  0.27716411742E+03  0.17300000000E+03 0.  1.
</event>
<event>
 4    1  0.6031777E+000  0.1000000E+03  0.7546771E-02  0.1280296E+00
         21   -1    0    0  503  502  0.00000000000E+00  0.00000000000E+00  0.19147035289E+04  0.19147035289E+04  0.00000000000E+00 0. -1.
         21   -1    0    0  501  503 -0.00000000000E+00 -0.00000000000E+00 -0.16356738016E+02  0.16356738016E+02  0.00000000000E+00 0.  1.
          6    1    1    2  501    0 -0.16801800962E+02  0.27311107793E+02  0.10528509138E+04  0.10674512840E+04  0.17300000000E+03 0. -1.
         -6    1    1    2    0  502  0.16801800962E+02 -0.27311107793E+02  0.84549587710E+03  0.86360898288E+03  0.17300000000E+03 0.  1.
</event>
<event>
 4    1  0.6031777E+000  0.1000000E+03  0.7546771E-02  0.1280296E+00
         21   -1    0    0  503  502  0.00000000000E+00  0.00000000000E+00  0.60357999988E+03  0.60357999988E+03  0.00000000000E+00 0.  1.
         21   -1    0    0  501  503 -0.00000000000E+00 -0.00000000000E+00 -0.31001968785E+03  0.31001968785E+03  0.00000000000E+00 0.  1.
          6    1    1    2  501    0 -0.11523839537E+02 -0.13202746097E+03 -0.24781444023E+03  0.33000764554E+03  0.17300000000E+03 0.  1.
         -6    1    1    2    0  502  0.11523839537E+02  0.13202746097E+03  0.54137475226E+03  0.58359204220E+03  0.17300000000E+03 0.  1.
</event>
<event>
 4    1  0.6031777E+000  0.1000000E+03  0.7546771E-02  0.1280296E+00
         21   -1    0    0  503  502  0.00000000000E+00  0.00000000000E+00  0.44716624629E+03  0.44716624629E+03  0.00000000000E+00 0.  1.
         21   -1    0    0  501  503 -0.00000000000E+00 -0.00000000000E+00 -0.13574287671E+03  0.13574287671E+03  0.00000000000E+00 0.  1.
          6    1    1    2  501    0  0.26008757776E+02 -0.24931800271E+02 -0.47377558488E+02  0.18295268020E+03  0.17300000000E+03 0.  1.
         -6    1    1    2    0  502 -0.26008757776E+02  0.24931800271E+02  0.35880092807E+03  0.39995644279E+03  0.17300000000E+03 0.  1.
</event>
<event>
 4    1  0.6031777E+000  0.1000000E+03  0.7546771E-02  0.1280296E+00
         21   -1    0    0  501  502  0.00000000000E+00  0.00000000000E+00  0.33977557358E+03  0.33977557358E+03  0.00000000000E+00 0.  1.
         21   -1    0    0  502  503 -0.00000000000E+00 -0.00000000000E+00 -0.13536450525E+03  0.13536450525E+03  0.00000000000E+00 0.  1.
          6    1    1    2  501    0  0.90490874605E+02 -0.44681453825E+02  0.18714591261E+03  0.27411242823E+03  0.17300000000E+03 0.  1.
         -6    1    1    2    0  503 -0.90490874605E+02  0.44681453825E+02  0.17265155723E+02  0.20102765060E+03  0.17300000000E+03 0.  1.
</event>
<event>
 4    1  0.6031777E+000  0.1000000E+03  0.7546771E-02  0.1280296E+00
         21   -1    0    0  501  502  0.00000000000E+00  0.00000000000E+00  0.61457835204E+02  0.61457835204E+02  0.00000000000E+00 0. -1.
         21   -1    0    0  502  503 -0.00000000000E+00 -0.00000000000E+00 -0.26911231592E+04  0.26911231592E+04  0.00000000000E+00 0. -1.
          6    1    1    2  501    0 -0.64500305458E+02  0.28184677136E+02 -0.92268965234E+02  0.20832001194E+03  0.17300000000E+03 0. -1.
         -6    1    1    2    0  503  0.64500305458E+02 -0.28184677136E+02 -0.25373963587E+04  0.25442609824E+04  0.17300000000E+03 0. -1.
</event>
<event>
 4    1  0.6031777E+000  0.1000000E+03  0.7546771E-02  0.1280296E+00
         21   -1    0    0  501  502  0.00000000000E+00  0.00000000000E+00  0.26150698486E+04  0.26150698486E+04  0.00000000000E+00 0. -1.
         21   -1    0    0  502  503 -0.00000000000E+00 -0.00000000000E+00 -0.17097563790E+02  0.17097563790E+02  0.00000000000E+00 0. -1.
          6    1    1    2  501    0 -0.10756236913E+03  0.23995863978E+02  0.97937774057E+03  0.10006274149E+04  0.17300000000E+03 0. -1.
         -6    1    1    2    0  503  0.10756236913E+03 -0.23995863978E+02  0.16185945442E+04  0.16315399975E+04  0.17300000000E+03 0. -1.
</event>
<event>
 4    1  0.6031777E+000  0.1000000E+03  0.7546771E-02  0.1280296E+00
         21   -1    0    0  503  502  0.00000000000E+00  0.00000000000E+00  0.83148579858E+03  0.83148579858E+03  0.00000000000E+00 0. -1.
         21   -1    0    0  501  503 -0.00000000000E+00 -0.00000000000E+00 -0.16828011345E+03  0.16828011345E+03  0.00000000000E+00 0.  1.
          6    1    1    2  501    0 -0.38656702164E+02 -0.31064656449E+03  0.47798126330E+03  0.59698468717E+03  0.17300000000E+03 0.  1.
         -6    1    1    2    0  502  0.38656702164E+02  0.31064656449E+03  0.18522442183E+03  0.40278122485E+03  0.17300000000E+03 0. -1.
</event>
<event>
 4    1  0.6031777E+000  0.1000000E+03  0.7546771E-02  0.1280296E+00
         21   -1    0    0  503  502  0.00000000000E+00  0.00000000000E+00  0.17935521191E+03  0.17935521191E+03  0.00000000000E+00 0. -1.
         21   -1    0    0  501  503 -0.00000000000E+00 -0.00000000000E+00 -0.51126619999E+03  0.51126619999E+03  0.00000000000E+00 0.  1.
          6    1    1    2  501    0  0.20228531840E+03  0.92572384312E+02 -0.29232238624E+03  0.40604233015E+03  0.17300000000E+03 0.  1.
         -6    1    1    2    0  502 -0.20228531840E+03 -0.92572384312E+02 -0.39588601843E+02  0.28457908175E+03  0.17300000000E+03 0. -1.
</event>
<event>
 4    1  0.6031777E+000  0.1000000E+03  0.7546771E-02  0.1280296E+00
         21   -1    0    0  501  502  0.00000000000E+00  0.00000000000E+00  0.40946933945E+03  0.40946933945E+03  0.00000000000E+00 0. -1.
         21   -1    0    0  502  503 -0.00000000000E+00 -0.00000000000E+00 -0.14728844665E+03  0.14728844665E+03  0.00000000000E+00 0.  1.
          6    1    1    2  501    0 -0.16704125411E+03  0.43826700213E+02  0.15785625372E+03  0.29098308725E+03  0.17300000000E+03 0. -1.
         -6    1    1    2    0  503  0.16704125411E+03 -0.43826700213E+02  0.10432463908E+03  0.26577469885E+03  0.17300000000E+03 0.  1.
</event>
<event>
 4    1  0.6031777E+000  0.1000000E+03  0.7546771E-02  0.1280296E+00
         21   -1    0    0  501  502  0.00000000000E+00  0.00000000000E+00  0.35267096869E+02  0.35267096869E+02  0.00000000000E+00 0. -1.
         21   -1    0    0  502  503 -0.00000000000E+00 -0.00000000000E+00 -0.14370846962E+04  0.14370846962E+04  0.00000000000E+00 0.  1.
          6    1    1    2  501    0 -0.51486197065E+02 -0.55320328613E+02 -0.29985455078E+03  0.35433447316E+03  0.17300000000E+03 0. -1.
         -6    1    1    2    0  503  0.51486197065E+02  0.55320328613E+02 -0.11019630486E+04  0.11180173199E+04  0.17300000000E+03 0.  1.
</event>
<event>
 4    1  0.6031777E+000  0.1000000E+03  0.7546771E-02  0.1280296E+00
         21   -1    0    0  501  502  0.00000000000E+00  0.00000000000E+00  0.25943378398E+03  0.25943378398E+03  0.00000000000E+00 0. -1.
         21   -1    0    0  502  503 -0.00000000000E+00 -0.00000000000E+00 -0.21202795323E+03  0.21202795323E+03  0.00000000000E+00 0. -1.
          6    1    1    2  501    0  0.33136502220E+02 -0.13502678412E+02  0.17875429007E+03  0.25132140044E+03  0.17300000000E+03 0. -1.
         -6    1    1    2    0  503 -0.33136502220E+02  0.13502678412E+02 -0.13134845932E+03  0.22014033676E+03  0.17300000000E+03 0. -1.
</event>
<event>
 4    1  0.6031777E+000  0.1000000E+03  0.7546771E-02  0.1280296E+00
         21   -1    0    0  501  502  0.00000000000E+00  0.00000000000E+00  0.67612610833E+03  0.67612610833E+03  0.00000000000E+00 0.  1.
         21   -1    0    0  502  503 -0.00000000000E+00 -0.00000000000E+00 -0.97667441985E+02  0.97667441985E+02  0.00000000000E+00 0.  1.
          6    1    1    2  501    0 -0.10492327871E+03  0.15355377240E+03  0.23055284913E+03  0.34303246446E+03  0.17300000000E+03 0.  1.
         -6    1    1    2    0  503  0.10492327871E+03 -0.15355377240E+03  0.34790581721E+03  0.43076108585E+03  0.17300000000E+03 0.  1.
</event>
<event>
 4    1  0.6031777E+000  0.1000000E+03  0.7546771E-02  0.1280296E+00
         21   -1    0    0  503  502  0.00000000000E+00  0.00000000000E+00  0.56382680381E+02  0.56382680381E+02  0.00000000000E+00 0.  1.
         21   -1    0    0  501  503 -0.00000000000E+00 -0.00000000000E+00 -0.10977371728E+04  0.10977371728E+04  0.00000000000E+00 0. -1.
          6    1    1    2  501    0  0.10813994598E+03  0.14008599065E+03 -0.57963293352E+03  0.63025524219E+03  0.17300000000E+03 0.  1.
         -6    1    1    2    0  502 -0.10813994598E+03 -0.14008599065E+03 -0.46172155891E+03  0.52386461099E+03  0.17300000000E+03 0. -1.
</event>
<event>
 4    1  0.6031777E+000  0.1000000E+03  0.7546771E-02  0.1280296E+00
         21   -1    0    0  503  502  0.00000000000E+00  0.00000000000E+00  0.18158417884E+03  0.18158417884E+03  0.00000000000E+00 0.  1.
         21   -1    0    0  501  503 -0.00000000000E+00 -0.00000000000E+00 -0.39430055987E+03  0.39430055987E+03  0.00000000000E+00 0. -1.
          6    1    1    2  501    0  0.37796583827E+02 -0.15135307439E+03 -0.24803372511E+03  0.34027351303E+03  0.17300000000E+03 0.  1.
         -6    1    1    2    0  502 -0.37796583827E+02  0.15135307439E+03  0.35317344070E+02  0.23561122568E+03  0.17300000000E+03 0. -1.
</event>
<event>
 4    1  0.6031777E+000  0.1000000E+03  0.7546771E-02  0.1280296E+00
         21   -1    0    0  501  502  0.00000000000E+00  0.00000000000E+00  0.11620487450E+04  0.11620487450E+04  0.00000000000E+00 0. -1.
         21   -1    0    0  502  503 -0.00000000000E+00 -0.00000000000E+00 -0.36390954888E+02  0.36390954888E+02  0.00000000000E+00 0.  1.
          6    1    1    2  501    0  0.65049667385E+01 -0.83553959326E+02  0.77567427811E+03  0.79913901446E+03  0.17300000000E+03 0. -1.
         -6    1    1    2    0  503 -0.65049667385E+01  0.83553959326E+02  0.34998351201E+03  0.39930068544E+03  0.17300000000E+03 0.  1.
</event>
<event>
 4    1  0.6031777E+000  0.1000000E+03  0.7546771E-02  0.1280296E+00
         21   -1    0    0  501  502  0.00000000000E+00  0.00000000000E+00  0.17585896062E+03  0.17585896062E+03  0.00000000000E+00 0. -1.
         21   -1    0    0  502  503 -0.00000000000E+00 -0.00000000000E+00 -0.33159906297E+03  0.33159906297E+03  0.00000000000E+00 0.  1.
          6    1    1    2  501    0  0.12877134000E+02 -0.16745531298E+03 -0.91910414427E+02  0.25803803345E+03  0.17300000000E+03 0. -1.
         -6    1    1    2    0  503 -0.12877134000E+02  0.16745531298E+03 -0.63829687916E+02  0.24941999014E+03  0.17300000000E+03 0.  1.
</event>
<event>
 4    1  0.6031777E+000  0.1000000E+03  0.7546771E-02  0.1280296E+00
         21   -1    0    0  501  502  0.00000000000E+00  0.00000000000E+00  0.13590275347E+03  0.13590275347E+03  0.00000000000E+00 0.  1.
         21   -1    0    0  502  503 -0.00000000000E+00 -0.00000000000E+00 -0.38371237851E+03  0.38371237851E+03  0.00000000000E+00 0. -1.
          6    1    1    2  501    0  0.96811802720E+02 -0.52489892014E+02 -0.96173102234E+01  0.20530271933E+03  0.17300000000E+03 0.  1.
         -6    1    1    2    0  503 -0.96811802720E+02  0.52489892014E+02 -0.23819231481E+03  0.31431241265E+03  0.17300000000E+03 0. -1.
</event>
<event>
 4    1  0.6031777E+000  0.1000000E+03  0.7546771E-02  0.1280296E+00
         21   -1    0    0  501  502  0.00000000000E+00  0.00000000000E+00  0.27828409740E+03  0.27828409740E+03  0.00000000000E+00 0.  1.
         21   -1    0    0  502  503 -0.00000000000E+00 -0.00000000000E+00 -0.17552516936E+03  0.17552516936E+03  0.00000000000E+00 0. -1.
          6    1    1    2  501    0  0.10490631477E+03  0.23879949158E+02  0.13934554812E+03  0.24682335512E+03  0.17300000000E+03 0.  1.
         -6    1    1    2    0  503 -0.10490631477E+03 -0.23879949158E+02 -0.36586620074E+02  0.20698591164E+03  0.17300000000E+03 0. -1.
</event>
<event>
 4    1  0.6031777E+000  0.1000000E+03  0.7546771E-02  0.1280296E+00
         21   -1    0    0  501  502  0.00000000000E+00  0.00000000000E+00  0.38272744978E+02  0.38272744978E+02  0.00000000000E+00 0.  1.
         21   -1    0    0  502  503 -0.00000000000E+00 -0.00000000000E+00 -0.20659062598E+04  0.20659062598E+04  0.00000000000E+00 0. -1.
          6    1    1    2  501    0 -0.94659415899E+02  0.83501855628E+02 -0.33201132781E+03  0.39508668252E+03  0.17300000000E+03 0.  1.
         -6    1    1    2    0  503  0.94659415899E+02 -0.83501855628E+02 -0.16956221870E+04  0.17090923222E+04  0.17300000000E+03 0.  1.
</event>
<event>
 4    1  0.6031777E+000  0.1000000E+03  0.7546771E-02  0.1280296E+00
         21   -1    0    0  501  502  0.00000000000E+00  0.00000000000E+00  0.20359679092E+04  0.20359679092E+04  0.00000000000E+00 0.  1.
         21   -1    0    0  502  503 -0.00000000000E+00 -0.00000000000E+00 -0.28245019958E+02  0.28245019958E+02  0.00000000000E+00 0. -1.
          6    1    1    2  501    0 -0.88690400523E+02  0.24747083887E+02  0.15986577701E+04  0.16106253665E+04  0.17300000000E+03 0.  1.
         -6    1    1    2    0  503  0.88690400523E+02 -0.24747083887E+02  0.40906511920E+03  0.45358756272E+03  0.17300000000E+03 0.  1.
</event>
<event>
 4    1  0.6031777E+000  0.1000000E+03  0.7546771E-02  0.1280296E+00
         21   -1    0    0  501  502  0.00000000000E+00  0.00000000000E+00  0.77322592387E+03  0.77322592387E+03  0.00000000000E+00 0.  1.
         21   -1    0    0  502  503 -0.00000000000E+00 -0.00000000000E+00 -0.51440262316E+02  0.51440262316E+02  0.00000000000E+00 0. -1.
          6    1    1    2  501    0 -0.88690014494E+02  0.40184693684E+02  0.32138180138E+03  0.37775122837E+03  0.17300000000E+03 0.  1.
         -6    1    1    2    0  503  0.88690014494E+02 -0.40184693684E+02  0.40040386017E+03  0.44691495782E+03  0.17300000000E+03 0.  1.
</event>
<event>
 4    1  0.6031777E+000  0.1000000E+03  0.7546771E-02  0.1280296E+00
         21   -1    0    0  503  502  0.00000000000E+00  0.00000000000E+00  0.48741921109E+03  0.48741921109E+03  0.00000000000E+00 0. -1.
         21   -1    0    0  501  503 -0.00000000000E+00 -0.00000000000E+00 -0.24834452394E+03  0.24834452394E+03  0.00000000000E+00 0. -1.
          6    1    1    2  501    0  0.17767651283E+03  0.17710602622E+01 -0.13848601568E+03  0.28404129349E+03  0.17300000000E+03 0. -1.
         -6    1    1    2    0  502 -0.17767651283E+03 -0.17710602622E+01  0.37756070283E+03  0.45172244154E+03  0.17300000000E+03 0. -1.
</event>
<event>
 4    1  0.6031777E+000  0.1000000E+03  0.7546771E-02  0.1280296E+00
         21   -1    0    0  503  502  0.00000000000E+00  0.00000000000E+00  0.38667520086E+03  0.38667520086E+03  0.00000000000E+00 0. -1.
         21   -1    0    0  501  503 -0.00000000000E+00 -0.00000000000E+00 -0.11517713867E+03  0.11517713867E+03  0.00000000000E+00 0. -1.
          6    1    1    2  501    0 -0.99218234525E+01  0.20046564031E+02 -0.54736532961E+01  0.17452583817E+03  0.17300000000E+03 0. -1.
         -6    1    1    2    0  502  0.99218234525E+01 -0.20046564031E+02  0.27697171549E+03  0.32732650135E+03  0.17300000000E+03 0. -1.
</event>
<event>
 4    1  0.6031777E+000  0.1000000E+03  0.7546771E-02  0.1280296E+00
         21   -1    0    0  503  502  0.00000000000E+00  0.00000000000E+00  0.33328699094E+03  0.33328699094E+03  0.00000000000E+00 0. -1.
         21   -1    0    0  501  503 -0.00000000000E+00 -0.00000000000E+00 -0.21238659634E+03  0.21238659634E+03  0.00000000000E+00 0. -1.
          6    1    1    2  501    0 -0.19442874949E+03  0.54621041754E+02  0.69072390190E+02  0.27474714178E+03  0.17300000000E+03 0. -1.
         -6    1    1    2    0  502  0.19442874949E+03 -0.54621041754E+02  0.51828004417E+02  0.27092644550E+03  0.17300000000E+03 0. -1.
</event>
<event>
 4    1  0.6031777E+000  0.1000000E+03  0.7546771E-02  0.1280296E+00
         21   -1    0    0  501  502  0.00000000000E+00  0.00000000000E+00  0.57869683020E+02  0.57869683020E+02  0.00000000000E+00 0.  1.
         21   -1    0    0  502  503 -0.00000000000E+00 -0.00000000000E+00 -0.92007754865E+03  0.92007754865E+03  0.00000000000E+00 0. -1.
          6    1    1    2  501    0  0.26304934191E+02  0.14395660012E+03 -0.33873181651E+03  0.40753367443E+03  0.17300000000E+03 0.  1.
         -6    1    1    2    0  503 -0.26304934191E+02 -0.14395660012E+03 -0.52347604913E+03  0.57041355725E+03  0.17300000000E+03 0. -1.
</event>
<event>
 4    1  0.6031777E+000  0.1000000E+03  0.7546771E-02  0.1280296E+00
         21   -1    0    0  501  502  0.00000000000E+00  0.00000000000E+00  0.14279862497E+03  0.14279862497E+03  0.00000000000E+00 0. -1.
         21   -1    0    0  502  503 -0.00000000000E+00 -0.00000000000E+00 -0.10424572395E+04  0.10424572395E+04  0.00000000000E+00 0.  1.
          6    1    1    2  501    0 -0.13244657230E+03 -0.19311443533E+02  0.38360992527E+02  0.22207114201E+03  0.17300000000E+03 0. -1.
         -6    1    1    2    0  503  0.13244657230E+03  0.19311443533E+02 -0.93801960704E+03  0.96318472245E+03  0.17300000000E+03 0.  1.
</event>
<event>
 4    1  0.6031777E+000  0.1000000E+03  0.7546771E-02  0.1280296E+00
         21   -1    0    0  501  502  0.00000000000E+00  0.00000000000E+00  0.10495382271E+04  0.10495382271E+04  0.00000000000E+00 0. -1.
         21   -1    0    0  502  503 -0.00000000000E+00 -0.00000000000E+00 -0.10298525461E+03  0.10298525461E+03  0.00000000000E+00 0.  1.
          6    1    1    2  501    0  0.23008230895E+03  0.70397606490E+02  0.72279260745E+03  0.78118617837E+03  0.17300000000E+03 0. -1.
         -6    1    1    2    0  503 -0.23008230895E+03 -0.70397606490E+02  0.22376036503E+03  0.37133730334E+03  0.17300000000E+03 0.  1.
</event>
<event>
 4    1  0.6031777E+000  0.1000000E+03  0.7546771E-02  0.1280296E+00
         21   -1    0    0  503  502  0.00000000000E+00  0.00000000000E+00  0.13818571225E+04  0.13818571225E+04  0.00000000000E+00 0.  1.
         21   -1    0    0  501  503 -0.00000000000E+00 -0.00000000000E+00 -0.59183585887E+02  0.59183585887E+02  0.00000000000E+00 0.  1.
          6    1    1    2  501    0 -0.42798310275E+02 -0.78136274016E+02  0.13333935190E+03  0.23589267781E+03  0.17300000000E+03 0.  1.
         -6    1    1    2    0  502  0.42798310275E+02  0.78136274016E+02  0.11893341847E+04  0.12051480306E+04  0.17300000000E+03 0.  1.
</event>
<event>
 4    1  0.6031777E+000  0.1000000E+03  0.7546771E-02  0.1280296E+00
         21   -1    0    0  503  502  0.00000000000E+00  0.00000000000E+00  0.49572770772E+03  0.49572770772E+03  0.00000000000E+00 0.  1.
         21   -1    0    0  501  503 -0.00000000000E+00 -0.00000000000E+00 -0.13862950178E+03  0.13862950178E+03  0.00000000000E+00 0.  1.
          6    1    1    2  501    0 -0.13684419986E+03 -0.15902796157E+02  0.34886033411E+03  0.41305177239E+03  0.17300000000E+03 0.  1.
         -6    1    1    2    0  502  0.13684419986E+03  0.15902796157E+02  0.82378718293E+01  0.22130543711E+03  0.17300000000E+03 0.  1.
</event>
<event>
 4    1  0.6031777E+000  0.1000000E+03  0.7546771E-02  0.1280296E+00
         21   -1    0    0  501  502  0.00000000000E+00  0.00000000000E+00  0.13439218467E+03  0.13439218467E+03  0.00000000000E+00 0.  1.
         21   -1    0    0  502  503 -0.00000000000E+00 -0.00000000000E+00 -0.94475475999E+03  0.94475475999E+03  0.00000000000E+00 0. -1.
          6    1    1    2  501    0 -0.78918475885E+02 -0.60020353010E+02  0.41998762023E+02  0.20377307139E+03  0.17300000000E+03 0.  1.
         -6    1    1    2    0  503  0.78918475885E+02  0.60020353010E+02 -0.85236133734E+03  0.87537387327E+03  0.17300000000E+03 0. -1.
</event>
<event>
 4    1  0.6031777E+000  0.1000000E+03  0.7546771E-02  0.1280296E+00
         21   -1    0    0  501  502  0.00000000000E+00  0.00000000000E+00  0.20084723535E+03  0.20084723535E+03  0.00000000000E+00 0.  1.
         21   -1    0    0  502  503 -0.00000000000E+00 -0.00000000000E+00 -0.24364140968E+03  0.24364140968E+03  0.00000000000E+00 0. -1.
          6    1    1    2  501    0  0.38698543530E+02 -0.10448874839E+03  0.60162009278E+02  0.21439203150E+03  0.17300000000E+03 0.  1.
         -6    1    1    2    0  503 -0.38698543530E+02  0.10448874839E+03 -0.10295618362E+03  0.23009661353E+03  0.17300000000E+03 0. -1.
</event>
<event>
 4    1  0.6031777E+000  0.1000000E+03  0.7546771E-02  0.1280296E+00
         21   -1    0    0  501  502  0.00000000000E+00  0.00000000000E+00  0.21251355738E+03  0.21251355738E+03  0.00000000000E+00 0.  1.
         21   -1    0    0  502  503 -0.00000000000E+00 -0.00000000000E+00 -0.35942185707E+03  0.35942185707E+03  0.00000000000E+00 0. -1.
          6    1    1    2  501    0 -0.32964168736E+02 -0.44242476172E+02  0.14212722790E+03  0.23059310924E+03  0.17300000000E+03 0.  1.
         -6    1    1    2    0  503  0.32964168736E+02  0.44242476172E+02 -0.28903552759E+03  0.34134230521E+03  0.17300000000E+03 0. -1.
</event>
<event>
 4    1  0.6031777E+000  0.1000000E+03  0.7546771E-02  0.1280296E+00
         21   -1    0    0  501  502  0.00000000000E+00  0.00000000000E+00  0.17159571076E+03  0.17159571076E+03  0.00000000000E+00 0.  1.
         21   -1    0    0  502  503 -0.00000000000E+00 -0.00000000000E+00 -0.35168129319E+03  0.35168129319E+03  0.00000000000E+00 0. -1.
          6    1    1    2  501    0 -0.43220699971E+02  0.25401848711E+02  0.87872235453E+02  0.20040911304E+03  0.17300000000E+03 0.  1.
         -6    1    1    2    0  503  0.43220699971E+02 -0.25401848711E+02 -0.26795781788E+03  0.32286789092E+03  0.17300000000E+03 0. -1.
</event>
<event>
 4    1  0.6031777E+000  0.1000000E+03  0.7546771E-02  0.1280296E+00
         21   -1    0    0  503  502  0.00000000000E+00  0.00000000000E+00  0.28747927037E+03  0.28747927037E+03  0.00000000000E+00 0. -1.
         21   -1    0    0  501  503 -0.00000000000E+00 -0.00000000000E+00 -0.11308987484E+03  0.11308987484E+03  0.00000000000E+00 0. -1.
          6    1    1    2  501    0  0.32905911260E+01 -0.45092373964E+02  0.61433814709E+02  0.18906946810E+03  0.17300000000E+03 0. -1.
         -6    1    1    2    0  502 -0.32905911260E+01  0.45092373964E+02  0.11295558082E+03  0.21149967711E+03  0.17300000000E+03 0. -1.
</event>
<event>
 4    1  0.6031777E+000  0.1000000E+03  0.7546771E-02  0.1280296E+00
         21   -1    0    0  501  502  0.00000000000E+00  0.00000000000E+00  0.26863604637E+03  0.26863604637E+03  0.00000000000E+00 0. -1.
         21   -1    0    0  502  503 -0.00000000000E+00 -0.00000000000E+00 -0.43747594899E+03  0.43747594899E+03  0.00000000000E+00 0. -1.
          6    1    1    2  501    0 -0.12252224161E+03 -0.45751662306E+02  0.18900719499E+03  0.28767626605E+03  0.17300000000E+03 0. -1.
         -6    1    1    2    0  503  0.12252224161E+03  0.45751662306E+02 -0.35784709761E+03  0.41843572930E+03  0.17300000000E+03 0. -1.
</event>
<event>
 4    1  0.6031777E+000  0.1000000E+03  0.7546771E-02  0.1280296E+00
         21   -1    0    0  501  502  0.00000000000E+00  0.00000000000E+00  0.50759384872E+03  0.50759384872E+03  0.00000000000E+00 0.  1.
         21   -1    0    0  502  503 -0.00000000000E+00 -0.00000000000E+00 -0.29667854986E+03  0.29667854986E+03  0.00000000000E+00 0.  1.
          6    1    1    2  501    0 -0.79099260021E+02 -0.25860923950E+02  0.45493914991E+03  0.49378549031E+03  0.17300000000E+03 0.  1.
         -6    1    1    2    0  503  0.79099260021E+02  0.25860923950E+02 -0.24402385105E+03  0.31048690826E+03  0.17300000000E+03 0.  1.
</event>
<event>
 4    1  0.6031777E+000  0.1000000E+03  0.7546771E-02  0.1280296E+00
         21   -1    0    0  501  502  0.00000000000E+00  0.00000000000E+00  0.78273462363E+02  0.78273462363E+02  0.00000000000E+00 0.  1.
         21   -1    0    0  502  503 -0.00000000000E+00 -0.00000000000E+00 -0.56033166609E+03  0.56033166609E+03  0.00000000000E+00 0.  1.
          6    1    1    2  501    0 -0.11480735564E+03  0.25629800517E+02 -0.22636667586E+03  0.30823446842E+03  0.17300000000E+03 0.  1.
         -6    1    1    2    0  503  0.11480735564E+03 -0.25629800517E+02 -0.25569152787E+03  0.33037066003E+03  0.17300000000E+03 0.  1.
</event>
<event>
 4    1  0.6031777E+000  0.1000000E+03  0.7546771E-02  0.1280296E+00
         21   -1    0    0  501  502  0.00000000000E+00  0.00000000000E+00  0.74425735044E+03  0.74425735044E+03  0.00000000000E+00 0.  1.
         21   -1    0    0  502  503 -0.00000000000E+00 -0.00000000000E+00 -0.12780394541E+03  0.12780394541E+03  0.00000000000E+00 0.  1.
          6    1    1    2  501    0 -0.75147703827E+02 -0.69536906998E+02  0.63890570800E+03  0.66978508683E+03  0.17300000000E+03 0.  1.
         -6    1    1    2    0  503  0.75147703827E+02  0.69536906998E+02 -0.22452302964E+02  0.20227620902E+03  0.17300000000E+03 0.  1.
</event>
<event>
 4    1  0.6031777E+000  0.1000000E+03  0.7546771E-02  0.1280296E+00
         21   -1    0    0  501  502  0.00000000000E+00  0.00000000000E+00  0.29835080932E+03  0.29835080932E+03  0.00000000000E+00 0.  1.
         21   -1    0    0  502  503 -0.00000000000E+00 -0.00000000000E+00 -0.54703467072E+03  0.54703467072E+03  0.00000000000E+00 0.  1.
          6    1    1    2  501    0 -0.30655831523E+03  0.19821275888E+03 -0.12810543596E+03  0.42379983618E+03  0.17300000000E+03 0.  1.
         -6    1    1    2    0  503  0.30655831523E+03 -0.19821275888E+03 -0.12057842544E+03  0.42158564386E+03  0.17300000000E+03 0.  1.
</event>
<event>
 4    1  0.6031777E+000  0.1000000E+03  0.7546771E-02  0.1280296E+00
         21   -1    0    0  503  502  0.00000000000E+00  0.00000000000E+00  0.33707678234E+03  0.33707678234E+03  0.00000000000E+00 0. -1.
         21   -1    0    0  501  503 -0.00000000000E+00 -0.00000000000E+00 -0.22853734586E+03  0.22853734586E+03  0.00000000000E+00 0.  1.
          6    1    1    2  501    0  0.16526730491E+03  0.13966171195E+03  0.37009117562E+02  0.27949481326E+03  0.17300000000E+03 0. -1.
         -6    1    1    2    0  502 -0.16526730491E+03 -0.13966171195E+03  0.71530318918E+02  0.28611931494E+03  0.17300000000E+03 0.  1.
</event>
<event>
 4    1  0.6031777E+000  0.1000000E+03  0.7546771E-02  0.1280296E+00
         21   -1    0    0  503  502  0.00000000000E+00  0.00000000000E+00  0.18984196105E+03  0.18984196105E+03  0.00000000000E+00 0. -1.
         21   -1    0    0  501  503 -0.00000000000E+00 -0.00000000000E+00 -0.32218793250E+03  0.32218793250E+03  0.00000000000E+00 0.  1.
          6    1    1    2  501    0  0.97403331474E+02  0.50395316882E+02 -0.20964377148E+03  0.29309829045E+03  0.17300000000E+03 0. -1.
         -6    1    1    2    0  502 -0.97403331474E+02 -0.50395316882E+02  0.77297800028E+02  0.21893160310E+03  0.17300000000E+03 0.  1.
</event>
<event>
 4    1  0.6031777E+000  0.1000000E+03  0.7546771E-02  0.1280296E+00
         21   -1    0    0  501  502  0.00000000000E+00  0.00000000000E+00  0.32540547728E+02  0.32540547728E+02  0.00000000000E+00 0. -1.
         21   -1    0    0  502  503 -0.00000000000E+00 -0.00000000000E+00 -0.22611791177E+04  0.22611791177E+04  0.00000000000E+00 0.  1.
          6    1    1    2  501    0 -0.17702877835E+03  0.39574996991E+02 -0.67604444682E+03  0.72102043163E+03  0.17300000000E+03 0.  1.
         -6    1    1    2    0  503  0.17702877835E+03 -0.39574996991E+02 -0.15525941231E+04  0.15726992338E+04  0.17300000000E+03 0. -1.
</event>
<event>
 4    1  0.6031777E+000  0.1000000E+03  0.7546771E-02  0.1280296E+00
         21   -1    0    0  503  502  0.00000000000E+00  0.00000000000E+00  0.71344930773E+03  0.71344930773E+03  0.00000000000E+00 0. -1.
         21   -1    0    0  501  503 -0.00000000000E+00 -0.00000000000E+00 -0.71374317817E+02  0.71374317817E+02  0.00000000000E+00 0. -1.
          6    1    1    2  501    0  0.10403302822E+03  0.79633793765E+02  0.21343894046E+03  0.30438395716E+03  0.17300000000E+03 0. -1.
         -6    1    1    2    0  502 -0.10403302822E+03 -0.79633793765E+02  0.42863604945E+03  0.48043966839E+03  0.17300000000E+03 0. -1.
</event>
<event>
 4    1  0.6031777E+000  0.1000000E+03  0.7546771E-02  0.1280296E+00
         21   -1    0    0  503  502  0.00000000000E+00  0.00000000000E+00  0.29691984503E+03  0.29691984503E+03  0.00000000000E+00 0. -1.
         21   -1    0    0  501  503 -0.00000000000E+00 -0.00000000000E+00 -0.14963407427E+03  0.14963407427E+03  0.00000000000E+00 0. -1.
          6    1    1    2  501    0  0.34649757536E+02 -0.16935802407E+01 -0.48504301059E+02  0.18298945634E+03  0.17300000000E+03 0. -1.
         -6    1    1    2    0  502 -0.34649757536E+02  0.16935802407E+01  0.19579007182E+03  0.26356446296E+03  0.17300000000E+03 0. -1.
</event>
<event>
 4    1  0.6031777E+000  0.1000000E+03  0.7546771E-02  0.1280296E+00
         21   -1    0    0  501  502  0.00000000000E+00  0.00000000000E+00  0.13353179499E+04  0.13353179499E+04  0.00000000000E+00 0. -1.
         21   -1    0    0  502  503 -0.00000000000E+00 -0.00000000000E+00 -0.12189050222E+03  0.12189050222E+03  0.00000000000E+00 0. -1.
          6    1    1    2  501    0 -0.12668037390E+03 -0.67728412456E+01  0.12237686980E+04  0.12424301247E+04  0.17300000000E+03 0. -1.
         -6    1    1    2    0  503  0.12668037390E+03  0.67728412456E+01 -0.10341250250E+02  0.21477832751E+03  0.17300000000E+03 0. -1.
</event>
<event>
 4    1  0.6031777E+000  0.1000000E+03  0.7546771E-02  0.1280296E+00
         21   -1    0    0  501  502  0.00000000000E+00  0.00000000000E+00  0.70985366289E+03  0.70985366289E+03  0.00000000000E+00 0. -1.
         21   -1    0    0  502  503 -0.00000000000E+00 -0.00000000000E+00 -0.42669844629E+02  0.42669844629E+02  0.00000000000E+00 0. -1.
          6    1    1    2  501    0 -0.58273304317E+01  0.17800684030E+02  0.34026367097E+03  0.38217690657E+03  0.17300000000E+03 0. -1.
         -6    1    1    2    0  503  0.58273304317E+01 -0.17800684030E+02  0.32692014729E+03  0.37034660096E+03  0.17300000000E+03 0. -1.
</event>
<event>
 4    1  0.6031777E+000  0.1000000E+03  0.7546771E-02  0.1280296E+00
         21   -1    0    0  501  502  0.00000000000E+00  0.00000000000E+00  0.15910269401E+03  0.15910269401E+03  0.00000000000E+00 0. -1.
         21   -1    0    0  502  503 -0.00000000000E+00 -0.00000000000E+00 -0.24641831757E+03  0.24641831757E+03  0.00000000000E+00 0. -1.
          6    1    1    2  501    0 -0.36194038365E+02  0.14893365566E+02  0.46461682119E+02  0.18335623430E+03  0.17300000000E+03 0. -1.
         -6    1    1    2    0  503  0.36194038365E+02 -0.14893365566E+02 -0.13377730568E+03  0.22216477728E+03  0.17300000000E+03 0. -1.
</event>
<event>
 4    1  0.6031777E+000  0.1000000E+03  0.7546771E-02  0.1280296E+00
         21   -1    0    0  501  502  0.00000000000E+00  0.00000000000E+00  0.34513153760E+03  0.34513153760E+03  0.00000000000E+00 0. -1.
         21   -1    0    0  502  503 -0.00000000000E+00 -0.00000000000E+00 -0.10731834215E+03  0.10731834215E+03  0.00000000000E+00 0. -1.
          6    1    1    2  501    0  0.17552196661E+02  0.63513032191E+02  0.57063526087E+02  0.19371946437E+03  0.17300000000E+03 0. -1.
         -6    1    1    2    0  503 -0.17552196661E+02 -0.63513032191E+02  0.18074966937E+03  0.25873041538E+03  0.17300000000E+03 0. -1.
</event>
<event>
 4    1  0.6031777E+000  0.1000000E+03  0.7546771E-02  0.1280296E+00
         21   -1    0    0  501  502  0.00000000000E+00  0.00000000000E+00  0.27779892069E+02  0.27779892069E+02  0.00000000000E+00 0. -1.
         21   -1    0    0  502  503 -0.00000000000E+00 -0.00000000000E+00 -0.18754872016E+04  0.18754872016E+04  0.00000000000E+00 0.  1.
          6    1    1    2  501    0  0.12331816591E+03  0.83319761440E+02 -0.90417485341E+03  0.93252920502E+03  0.17300000000E+03 0. -1.
         -6    1    1    2    0  503 -0.12331816591E+03 -0.83319761440E+02 -0.94353245612E+03  0.97073788864E+03  0.17300000000E+03 0.  1.
</event>
<event>
 4    1  0.6031777E+000  0.1000000E+03  0.7546771E-02  0.1280296E+00
         21   -1    0    0  501  502  0.00000000000E+00  0.00000000000E+00  0.92633132679E+03  0.92633132679E+03  0.00000000000E+00 0. -1.
         21   -1    0    0  502  503 -0.00000000000E+00 -0.00000000000E+00 -0.57798932694E+02  0.57798932694E+02  0.00000000000E+00 0.  1.
          6    1    1    2  501    0 -0.11748245007E+03 -0.97800567181E+02  0.46754445557E+03  0.52143445892E+03  0.17300000000E+03 0. -1.
         -6    1    1    2    0  503  0.11748245007E+03  0.97800567181E+02  0.40098793852E+03  0.46269580056E+03  0.17300000000E+03 0.  1.
</event>
<event>
 4    1  0.6031777E+000  0.1000000E+03  0.7546771E-02  0.1280296E+00
         21   -1    0    0  501  502  0.00000000000E+00  0.00000000000E+00  0.97292912374E+02  0.97292912374E+02  0.00000000000E+00 0. -1.
         21   -1    0    0  502  503 -0.00000000000E+00 -0.00000000000E+00 -0.33914417103E+03  0.33914417103E+03  0.00000000000E+00 0.  1.
          6    1    1    2  501    0 -0.46790323363E+02  0.27789131826E+02 -0.10857164409E+03  0.21137259072E+03  0.17300000000E+03 0. -1.
         -6    1    1    2    0  503  0.46790323363E+02 -0.27789131826E+02 -0.13327961456E+03  0.22506449268E+03  0.17300000000E+03 0.  1.
</event>
<event>
 4    1  0.6031777E+000  0.1000000E+03  0.7546771E-02  0.1280296E+00
         21   -1    0    0  501  502  0.00000000000E+00  0.00000000000E+00  0.91533938111E+03  0.91533938111E+03  0.00000000000E+00 0. -1.
         21   -1    0    0  502  503 -0.00000000000E+00 -0.00000000000E+00 -0.27761305311E+03  0.27761305311E+03  0.00000000000E+00 0. -1.
          6    1    1    2  501    0 -0.23258671885E+02  0.18747543618E+02  0.87799666344E+03  0.89537677947E+03  0.17300000000E+03 0. -1.
         -6    1    1    2    0  503  0.23258671885E+02 -0.18747543618E+02 -0.24027033544E+03  0.29757565475E+03  0.17300000000E+03 0. -1.
</event>
<event>
 4    1  0.6031777E+000  0.1000000E+03  0.7546771E-02  0.1280296E+00
         21   -1    0    0  501  502  0.00000000000E+00  0.00000000000E+00  0.90281374746E+02  0.90281374746E+02  0.00000000000E+00 0. -1.
         21   -1    0    0  502  503 -0.00000000000E+00 -0.00000000000E+00 -0.49532954272E+03  0.49532954272E+03  0.00000000000E+00 0. -1.
          6    1    1    2  501    0 -0.10896821767E+03 -0.10543630029E+02 -0.12919381791E+03  0.24208528081E+03  0.17300000000E+03 0. -1.
         -6    1    1    2    0  503  0.10896821767E+03  0.10543630029E+02 -0.27585435006E+03  0.34352563666E+03  0.17300000000E+03 0. -1.
</event>
<event>
 4    1  0.6031777E+000  0.1000000E+03  0.7546771E-02  0.1280296E+00
         21   -1    0    0  501  502  0.00000000000E+00  0.00000000000E+00  0.52519420409E+03  0.52519420409E+03  0.00000000000E+00 0.  1.
         21   -1    0    0  502  503 -0.00000000000E+00 -0.00000000000E+00 -0.20541115053E+03  0.20541115053E+03  0.00000000000E+00 0. -1.
          6    1    1    2  501    0 -0.38031128001E+02  0.13869261783E+03  0.42605195021E+03  0.48180003447E+03  0.17300000000E+03 0. -1.
         -6    1    1    2    0  503  0.38031128001E+02 -0.13869261783E+03 -0.10626889664E+03  0.24880532014E+03  0.17300000000E+03 0.  1.
</event>
<event>
 4    1  0.6031777E+000  0.1000000E+03  0.7546771E-02  0.1280296E+00
         21   -1    0    0  501  502  0.00000000000E+00  0.00000000000E+00  0.76249515868E+02  0.76249515868E+02  0.00000000000E+00 0.  1.
         21   -1    0    0  502  503 -0.00000000000E+00 -0.00000000000E+00 -0.76293025169E+03  0.76293025169E+03  0.00000000000E+00 0. -1.
          6    1    1    2  501    0 -0.10732351495E+03 -0.19354074418E+02 -0.12088743591E+03  0.23756196922E+03  0.17300000000E+03 0. -1.
         -6    1    1    2    0  503  0.10732351495E+03  0.19354074418E+02 -0.56579329991E+03  0.60161779834E+03  0.17300000000E+03 0.  1.
</event>
<event>
 4    1  0.6031777E+000  0.1000000E+03  0.7546771E-02  0.1280296E+00
         21   -1    0    0  501  502  0.00000000000E+00  0.00000000000E+00  0.15282977057E+03  0.15282977057E+03  0.00000000000E+00 0.  1.
         21   -1    0    0  502  503 -0.00000000000E+00 -0.00000000000E+00 -0.84299793119E+03  0.84299793119E+03  0.00000000000E+00 0. -1.
          6    1    1    2  501    0 -0.67623427478E+02 -0.75774213590E+02  0.67804671464E+02  0.21175724984E+03  0.17300000000E+03 0. -1.
         -6    1    1    2    0  503  0.67623427478E+02  0.75774213590E+02 -0.75797283209E+03  0.78407045192E+03  0.17300000000E+03 0.  1.
</event>
<event>
 4    1  0.6031777E+000  0.1000000E+03  0.7546771E-02  0.1280296E+00
         21   -1    0    0  503  502  0.00000000000E+00  0.00000000000E+00  0.11052741502E+03  0.11052741502E+03  0.00000000000E+00 0. -1.
         21   -1    0    0  501  503 -0.00000000000E+00 -0.00000000000E+00 -0.58030726163E+03  0.58030726163E+03  0.00000000000E+00 0. -1.
          6    1    1    2  501    0  0.10656141202E+03 -0.12068967574E+03 -0.35906803649E+03  0.42986066021E+03  0.17300000000E+03 0. -1.
         -6    1    1    2    0  502 -0.10656141202E+03  0.12068967574E+03 -0.11071181012E+03  0.26097401645E+03  0.17300000000E+03 0. -1.
</event>
<event>
 4    1  0.6031777E+000  0.1000000E+03  0.7546771E-02  0.1280296E+00
         21   -1    0    0  503  502  0.00000000000E+00  0.00000000000E+00  0.77442086001E+03  0.77442086001E+03  0.00000000000E+00 0. -1.
         21   -1    0    0  501  503 -0.00000000000E+00 -0.00000000000E+00 -0.75017460192E+02  0.75017460192E+02  0.00000000000E+00 0. -1.
          6    1    1    2  501    0 -0.99029819337E+02  0.44958128742E+02  0.57493411987E+03  0.61016914102E+03  0.17300000000E+03 0. -1.
         -6    1    1    2    0  502  0.99029819337E+02 -0.44958128742E+02  0.12446927995E+03  0.23926917919E+03  0.17300000000E+03 0. -1.
</event>
<event>
 4    1  0.6031777E+000  0.1000000E+03  0.7546771E-02  0.1280296E+00
         21   -1    0    0  503  502  0.00000000000E+00  0.00000000000E+00  0.43601326935E+03  0.43601326935E+03  0.00000000000E+00 0. -1.
         21   -1    0    0  501  503 -0.00000000000E+00 -0.00000000000E+00 -0.63528849286E+03  0.63528849286E+03  0.00000000000E+00 0. -1.
          6    1    1    2  501    0 -0.40560878091E+03  0.55722614850E+02 -0.38649814053E+03  0.58901044608E+03  0.17300000000E+03 0. -1.
         -6    1    1    2    0  502  0.40560878091E+03 -0.55722614850E+02  0.18722291701E+03  0.48229131613E+03  0.17300000000E+03 0. -1.
</event>
<event>
 4    1  0.6031777E+000  0.1000000E+03  0.7546771E-02  0.1280296E+00
         21   -1    0    0  503  502  0.00000000000E+00  0.00000000000E+00  0.11697229446E+04  0.11697229446E+04  0.00000000000E+00 0. -1.
         21   -1    0    0  501  503 -0.00000000000E+00 -0.00000000000E+00 -0.53659988582E+02  0.53659988582E+02  0.00000000000E+00 0. -1.
          6    1    1    2  501    0  0.23632141892E+02  0.35712559263E+01  0.11945481858E+03  0.21158848192E+03  0.17300000000E+03 0. -1.
         -6    1    1    2    0  502 -0.23632141892E+02 -0.35712559263E+01  0.99660813746E+03  0.10117944513E+04  0.17300000000E+03 0. -1.
</event>
<event>
 4    1  0.6031777E+000  0.1000000E+03  0.7546771E-02  0.1280296E+00
         21   -1    0    0  503  502  0.00000000000E+00  0.00000000000E+00  0.56456939781E+02  0.56456939781E+02  0.00000000000E+00 0. -1.
         21   -1    0    0  501  503 -0.00000000000E+00 -0.00000000000E+00 -0.74601862793E+03  0.74601862793E+03  0.00000000000E+00 0. -1.
          6    1    1    2  501    0  0.47356717494E+01  0.90718562118E+01 -0.55970109402E+03  0.58591726362E+03  0.17300000000E+03 0. -1.
         -6    1    1    2    0  502 -0.47356717494E+01 -0.90718562118E+01 -0.12986059413E+03  0.21655830409E+03  0.17300000000E+03 0. -1.
</event>
<event>
 4    1  0.6031777E+000  0.1000000E+03  0.7546771E-02  0.1280296E+00
         21   -1    0    0  503  502  0.00000000000E+00  0.00000000000E+00  0.12687384012E+03  0.12687384012E+03  0.00000000000E+00 0. -1.
         21   -1    0    0  501  503 -0.00000000000E+00 -0.00000000000E+00 -0.49787838500E+03  0.49787838500E+03  0.00000000000E+00 0. -1.
          6    1    1    2  501    0  0.13745582626E+03  0.85987976048E+02 -0.28912251634E+03  0.37391023742E+03  0.17300000000E+03 0. -1.
         -6    1    1    2    0  502 -0.13745582626E+03 -0.85987976048E+02 -0.81882028544E+02  0.25084198770E+03  0.17300000000E+03 0. -1.
</event>
<event>
 4    1  0.6031777E+000  0.1000000E+03  0.7546771E-02  0.1280296E+00
         21   -1    0    0  503  502  0.00000000000E+00  0.00000000000E+00  0.58850547155E+02  0.58850547155E+02  0.00000000000E+00 0. -1.
         21   -1    0    0  501  503 -0.00000000000E+00 -0.00000000000E+00 -0.16399690178E+04  0.16399690178E+04  0.00000000000E+00 0. -1.
          6    1    1    2  501    0  0.11667669080E+03 -0.11178239992E+03 -0.13406309628E+04  0.13613703147E+04  0.17300000000E+03 0. -1.
         -6    1    1    2    0  502 -0.11667669080E+03  0.11178239992E+03 -0.24048750777E+03  0.33744925026E+03  0.17300000000E+03 0. -1.
</event>
<event>
 4    1  0.6031777E+000  0.1000000E+03  0.7546771E-02  0.1280296E+00
         21   -1    0    0  501  502  0.00000000000E+00  0.00000000000E+00  0.67050298587E+03  0.67050298587E+03  0.00000000000E+00 0.  1.
         21   -1    0    0  502  503 -0.00000000000E+00 -0.00000000000E+00 -0.12141969040E+03  0.12141969040E+03  0.00000000000E+00 0.  1.
          6    1    1    2  501    0 -0.18460789155E+02 -0.11229246566E+03  0.54695194669E+03  0.58483829437E+03  0.17300000000E+03 0. -1.
         -6    1    1    2    0  503  0.18460789155E+02  0.11229246566E+03  0.21313487888E+01  0.20708438190E+03  0.17300000000E+03 0. -1.
</event>
<event>
 4    1  0.6031777E+000  0.1000000E+03  0.7546771E-02  0.1280296E+00
         21   -1    0    0  501  502  0.00000000000E+00  0.00000000000E+00  0.14529527216E+03  0.14529527216E+03  0.00000000000E+00 0.  1.
         21   -1    0    0  502  503 -0.00000000000E+00 -0.00000000000E+00 -0.32845619578E+03  0.32845619578E+03  0.00000000000E+00 0. -1.
          6    1    1    2  501    0 -0.87732677013E+02 -0.53790535450E+02  0.45041313732E+00  0.20129492590E+03  0.17300000000E+03 0. -1.
         -6    1    1    2    0  503  0.87732677013E+02  0.53790535450E+02 -0.18361133675E+03  0.27245654205E+03  0.17300000000E+03 0.  1.
</event>
<event>
 4    1  0.6031777E+000  0.1000000E+03  0.7546771E-02  0.1280296E+00
         21   -1    0    0  501  502  0.00000000000E+00  0.00000000000E+00  0.24343500409E+03  0.24343500409E+03  0.00000000000E+00 0.  1.
         21   -1    0    0  502  503 -0.00000000000E+00 -0.00000000000E+00 -0.42833224157E+03  0.42833224157E+03  0.00000000000E+00 0. -1.
          6    1    1    2  501    0 -0.54219899006E+02 -0.24394966213E+03  0.20977466259E+02  0.30466422368E+03  0.17300000000E+03 0. -1.
         -6    1    1    2    0  503  0.54219899006E+02  0.24394966213E+03 -0.20587470374E+03  0.36710302197E+03  0.17300000000E+03 0.  1.
</event>
<event>
 4    1  0.6031777E+000  0.1000000E+03  0.7546771E-02  0.1280296E+00
         21   -1    0    0  501  502  0.00000000000E+00  0.00000000000E+00  0.46220532005E+03  0.46220532005E+03  0.00000000000E+00 0. -1.
         21   -1    0    0  502  503 -0.00000000000E+00 -0.00000000000E+00 -0.39407462516E+03  0.39407462516E+03  0.00000000000E+00 0. -1.
          6    1    1    2  501    0  0.91437687728E+02 -0.37894742367E+03  0.50002586132E+02  0.42940803354E+03  0.17300000000E+03 0. -1.
         -6    1    1    2    0  503 -0.91437687728E+02  0.37894742367E+03  0.18128108753E+02  0.42687191167E+03  0.17300000000E+03 0. -1.
</event>
<event>
 4    1  0.6031777E+000  0.1000000E+03  0.7546771E-02  0.1280296E+00
         21   -1    0    0  503  502  0.00000000000E+00  0.00000000000E+00  0.19560722783E+03  0.19560722783E+03  0.00000000000E+00 0. -1.
         21   -1    0    0  501  503 -0.00000000000E+00 -0.00000000000E+00 -0.80831997680E+03  0.80831997680E+03  0.00000000000E+00 0. -1.
          6    1    1    2  501    0  0.61467404110E+02 -0.46926428781E+02 -0.74765304658E+03  0.77129398386E+03  0.17300000000E+03 0. -1.
         -6    1    1    2    0  502 -0.61467404110E+02  0.46926428781E+02  0.13494029761E+03  0.23263322077E+03  0.17300000000E+03 0. -1.
</event>
<event>
 4    1  0.6031777E+000  0.1000000E+03  0.7546771E-02  0.1280296E+00
         21   -1    0    0  503  502  0.00000000000E+00  0.00000000000E+00  0.17467063300E+03  0.17467063300E+03  0.00000000000E+00 0. -1.
         21   -1    0    0  501  503 -0.00000000000E+00 -0.00000000000E+00 -0.33040787456E+03  0.33040787456E+03  0.00000000000E+00 0. -1.
          6    1    1    2  501    0 -0.10274120370E+02  0.13619537695E+01 -0.25275118463E+03  0.30646300560E+03  0.17300000000E+03 0. -1.
         -6    1    1    2    0  502  0.10274120370E+02 -0.13619537695E+01  0.97013943079E+02  0.19861550196E+03  0.17300000000E+03 0. -1.
</event>
<event>
 4    1  0.6031777E+000  0.1000000E+03  0.7546771E-02  0.1280296E+00
         21   -1    0    0  503  502  0.00000000000E+00  0.00000000000E+00  0.46799252221E+03  0.46799252221E+03  0.00000000000E+00 0. -1.
         21   -1    0    0  501  503 -0.00000000000E+00 -0.00000000000E+00 -0.12089738634E+03  0.12089738634E+03  0.00000000000E+00 0. -1.
          6    1    1    2  501    0 -0.65552065128E+01 -0.16213180469E+03  0.19570446082E+03  0.30750435576E+03  0.17300000000E+03 0. -1.
         -6    1    1    2    0  502  0.65552065128E+01  0.16213180469E+03  0.15139067505E+03  0.28138555279E+03  0.17300000000E+03 0. -1.
</event>
<event>
 4    1  0.6031777E+000  0.1000000E+03  0.7546771E-02  0.1280296E+00
         21   -1    0    0  501  502  0.00000000000E+00  0.00000000000E+00  0.25427515910E+03  0.25427515910E+03  0.00000000000E+00 0.  1.
         21   -1    0    0  502  503 -0.00000000000E+00 -0.00000000000E+00 -0.15368757620E+04  0.15368757620E+04  0.00000000000E+00 0.  1.
          6    1    1    2  501    0  0.27983141375E+03  0.14571718407E+03  0.91048825381E+02  0.37115765714E+03  0.17300000000E+03 0.  1.
         -6    1    1    2    0  503 -0.27983141375E+03 -0.14571718407E+03 -0.13736494283E+04  0.14199932640E+04  0.17300000000E+03 0.  1.
</event>
<event>
 4    1  0.6031777E+000  0.1000000E+03  0.7546771E-02  0.1280296E+00
         21   -1    0    0  503  502  0.00000000000E+00  0.00000000000E+00  0.21158374505E+03  0.21158374505E+03  0.00000000000E+00 0.  1.
         21   -1    0    0  501  503 -0.00000000000E+00 -0.00000000000E+00 -0.26654718609E+03  0.26654718609E+03  0.00000000000E+00 0. -1.
          6    1    1    2  501    0  0.89486309221E+02  0.12409374608E+02 -0.16368527874E+03  0.25472271707E+03  0.17300000000E+03 0. -1.
         -6    1    1    2    0  502 -0.89486309221E+02 -0.12409374608E+02  0.10872183771E+03  0.22340821406E+03  0.17300000000E+03 0.  1.
</event>
<event>
 4    1  0.6031777E+000  0.1000000E+03  0.7546771E-02  0.1280296E+00
         21   -1    0    0  503  502  0.00000000000E+00  0.00000000000E+00  0.20213469491E+03  0.20213469491E+03  0.00000000000E+00 0.  1.
         21   -1    0    0  501  503 -0.00000000000E+00 -0.00000000000E+00 -0.15550736680E+03  0.15550736680E+03  0.00000000000E+00 0. -1.
          6    1    1    2  501    0  0.26701102004E+02  0.22835523715E+00  0.51688267280E+02  0.18252034946E+03  0.17300000000E+03 0. -1.
         -6    1    1    2    0  502 -0.26701102004E+02 -0.22835523715E+00 -0.50609391726E+01  0.17512171225E+03  0.17300000000E+03 0.  1.
</event>
<event>
 4    1  0.6031777E+000  0.1000000E+03  0.7546771E-02  0.1280296E+00
         21   -1    0    0  503  502  0.00000000000E+00  0.00000000000E+00  0.15721184289E+03  0.15721184289E+03  0.00000000000E+00 0.  1.
         21   -1    0    0  501  503 -0.00000000000E+00 -0.00000000000E+00 -0.32076797510E+03  0.32076797510E+03  0.00000000000E+00 0. -1.
          6    1    1    2  501    0 -0.49259129114E+02 -0.78702224760E+02  0.34214935266E+02  0.19929918158E+03  0.17300000000E+03 0. -1.
         -6    1    1    2    0  502  0.49259129114E+02  0.78702224760E+02 -0.19777106747E+03  0.27868063641E+03  0.17300000000E+03 0.  1.
</event>
<event>
 4    1  0.6031777E+000  0.1000000E+03  0.7546771E-02  0.1280296E+00
         21   -1    0    0  503  502  0.00000000000E+00  0.00000000000E+00  0.78365095247E+02  0.78365095247E+02  0.00000000000E+00 0.  1.
         21   -1    0    0  501  503 -0.00000000000E+00 -0.00000000000E+00 -0.44472897707E+03  0.44472897707E+03  0.00000000000E+00 0. -1.
          6    1    1    2  501    0 -0.66057983733E+02  0.65959171710E+01 -0.15138598353E+03  0.23927782879E+03  0.17300000000E+03 0. -1.
         -6    1    1    2    0  502  0.66057983733E+02 -0.65959171710E+01 -0.21497789829E+03  0.28381624353E+03  0.17300000000E+03 0.  1.
</event>
<event>
 4    1  0.6031777E+000  0.1000000E+03  0.7546771E-02  0.1280296E+00
         21   -1    0    0  501  502  0.00000000000E+00  0.00000000000E+00  0.24124231607E+04  0.24124231607E+04  0.00000000000E+00 0. -1.
         21   -1    0    0  502  503 -0.00000000000E+00 -0.00000000000E+00 -0.55463066663E+02  0.55463066663E+02  0.00000000000E+00 0.  1.
          6    1    1    2  501    0 -0.13281591453E+02 -0.24064951052E+03  0.19002812885E+04  0.19233009549E+04  0.17300000000E+03 0. -1.
         -6    1    1    2    0  503  0.13281591453E+02  0.24064951052E+03  0.45667880551E+03  0.54458527246E+03  0.17300000000E+03 0.  1.
</event>
<event>
 4    1  0.6031777E+000  0.1000000E+03  0.7546771E-02  0.1280296E+00
         21   -1    0    0  501  502  0.00000000000E+00  0.00000000000E+00  0.27855545551E+03  0.27855545551E+03  0.00000000000E+00 0. -1.
         21   -1    0    0  502  503 -0.00000000000E+00 -0.00000000000E+00 -0.22450752093E+03  0.22450752093E+03  0.00000000000E+00 0.  1.
          6    1    1    2  501    0  0.10029019643E+03 -0.11837984272E+03  0.11995714157E+03  0.26151601572E+03  0.17300000000E+03 0. -1.
         -6    1    1    2    0  503 -0.10029019643E+03  0.11837984272E+03 -0.65909206999E+02  0.24154696072E+03  0.17300000000E+03 0.  1.
</event>
<event>
 4    1  0.6031777E+000  0.1000000E+03  0.7546771E-02  0.1280296E+00
         21   -1    0    0  501  502  0.00000000000E+00  0.00000000000E+00  0.65824220851E+02  0.65824220851E+02  0.00000000000E+00 0. -1.
         21   -1    0    0  502  503 -0.00000000000E+00 -0.00000000000E+00 -0.96436286426E+03  0.96436286426E+03  0.00000000000E+00 0.  1.
          6    1    1    2  501    0 -0.10588579198E+03  0.18004856436E+02 -0.14593808137E+03  0.25052524702E+03  0.17300000000E+03 0. -1.
         -6    1    1    2    0  503  0.10588579198E+03 -0.18004856436E+02 -0.75260056204E+03  0.77966183810E+03  0.17300000000E+03 0.  1.
</event>
<event>
 4    1  0.6031777E+000  0.1000000E+03  0.7546771E-02  0.1280296E+00
         21   -1    0    0  501  502  0.00000000000E+00  0.00000000000E+00  0.38708967364E+02  0.38708967364E+02  0.00000000000E+00 0. -1.
         21   -1    0    0  502  503 -0.00000000000E+00 -0.00000000000E+00 -0.12775439212E+04  0.12775439212E+04  0.00000000000E+00 0.  1.
          6    1    1    2  501    0 -0.28673289352E+02  0.83475436720E+02 -0.29884811492E+03  0.35641198331E+03  0.17300000000E+03 0. -1.
         -6    1    1    2    0  503  0.28673289352E+02 -0.83475436720E+02 -0.93998683896E+03  0.95984090530E+03  0.17300000000E+03 0.  1.
</event>
<event>
 4    1  0.6031777E+000  0.1000000E+03  0.7546771E-02  0.1280296E+00
         21   -1    0    0  501  502  0.00000000000E+00  0.00000000000E+00  0.48109227270E+02  0.48109227270E+02  0.00000000000E+00 0.  1.
         21   -1    0    0  502  503 -0.00000000000E+00 -0.00000000000E+00 -0.99131909597E+03  0.99131909597E+03  0.00000000000E+00 0. -1.
          6    1    1    2  501    0 -0.57346475171E+02 -0.60134547970E+02 -0.22362598516E+03  0.29469028371E+03  0.17300000000E+03 0.  1.
         -6    1    1    2    0  503  0.57346475171E+02  0.60134547970E+02 -0.71958388354E+03  0.74473803953E+03  0.17300000000E+03 0. -1.
</event>
<event>
 4    1  0.6031777E+000  0.1000000E+03  0.7546771E-02  0.1280296E+00
         21   -1    0    0  501  502  0.00000000000E+00  0.00000000000E+00  0.12406841918E+03  0.12406841918E+03  0.00000000000E+00 0.  1.
         21   -1    0    0  502  503 -0.00000000000E+00 -0.00000000000E+00 -0.48084221345E+03  0.48084221345E+03  0.00000000000E+00 0. -1.
          6    1    1    2  501    0  0.75053817194E+01 -0.15148399016E+03 -0.76840939878E+02  0.24256392987E+03  0.17300000000E+03 0.  1.
         -6    1    1    2    0  503 -0.75053817194E+01  0.15148399016E+03 -0.27993285440E+03  0.36234670276E+03  0.17300000000E+03 0. -1.
</event>
<event>
 4    1  0.6031777E+000  0.1000000E+03  0.7546771E-02  0.1280296E+00
         21   -1    0    0  503  502  0.00000000000E+00  0.00000000000E+00  0.19329444683E+03  0.19329444683E+03  0.00000000000E+00 0. -1.
         21   -1    0    0  501  503 -0.00000000000E+00 -0.00000000000E+00 -0.29815724408E+03  0.29815724408E+03  0.00000000000E+00 0. -1.
          6    1    1    2  501    0 -0.12083315638E+02  0.15359429425E+03 -0.11689146670E+03  0.25947991971E+03  0.17300000000E+03 0. -1.
         -6    1    1    2    0  502  0.12083315638E+02 -0.15359429425E+03  0.12028669458E+02  0.23197177120E+03  0.17300000000E+03 0. -1.
</event>
<event>
 4    1  0.6031777E+000  0.1000000E+03  0.7546771E-02  0.1280296E+00
         21   -1    0    0  503  502  0.00000000000E+00  0.00000000000E+00  0.15517237201E+03  0.15517237201E+03  0.00000000000E+00 0. -1.
         21   -1    0    0  501  503 -0.00000000000E+00 -0.00000000000E+00 -0.38534047050E+03  0.38534047050E+03  0.00000000000E+00 0. -1.
          6    1    1    2  501    0  0.77702168865E+02 -0.50671316668E+02 -0.27623318918E+03  0.33887901113E+03  0.17300000000E+03 0. -1.
         -6    1    1    2    0  502 -0.77702168865E+02  0.50671316668E+02  0.46065090686E+02  0.20163383139E+03  0.17300000000E+03 0. -1.
</event>
<event>
 4    1  0.6031777E+000  0.1000000E+03  0.7546771E-02  0.1280296E+00
         21   -1    0    0  503  502  0.00000000000E+00  0.00000000000E+00  0.70893068532E+03  0.70893068532E+03  0.00000000000E+00 0. -1.
         21   -1    0    0  501  503 -0.00000000000E+00 -0.00000000000E+00 -0.30967020973E+03  0.30967020973E+03  0.00000000000E+00 0. -1.
          6    1    1    2  501    0  0.10781412900E+03 -0.89869225253E+02 -0.24841924810E+03  0.33367871806E+03  0.17300000000E+03 0. -1.
         -6    1    1    2    0  502 -0.10781412900E+03  0.89869225253E+02  0.64767972369E+03  0.68492217700E+03  0.17300000000E+03 0. -1.
</event>
<event>
 4    1  0.6031777E+000  0.1000000E+03  0.7546771E-02  0.1280296E+00
         21   -1    0    0  501  502  0.00000000000E+00  0.00000000000E+00  0.38354424561E+03  0.38354424561E+03  0.00000000000E+00 0. -1.
         21   -1    0    0  502  503 -0.00000000000E+00 -0.00000000000E+00 -0.29682122302E+03  0.29682122302E+03  0.00000000000E+00 0.  1.
          6    1    1    2  501    0  0.21037713954E+03 -0.75433971915E+01  0.24399462446E+03  0.36575650431E+03  0.17300000000E+03 0. -1.
         -6    1    1    2    0  503 -0.21037713954E+03  0.75433971915E+01 -0.15727160187E+03  0.31460896433E+03  0.17300000000E+03 0.  1.
</event>
<event>
 4    1  0.6031777E+000  0.1000000E+03  0.7546771E-02  0.1280296E+00
         21   -1    0    0  503  502  0.00000000000E+00  0.00000000000E+00  0.21626873609E+02  0.21626873609E+02  0.00000000000E+00 0. -1.
         21   -1    0    0  501  503 -0.00000000000E+00 -0.00000000000E+00 -0.24984924077E+04  0.24984924077E+04  0.00000000000E+00 0. -1.
          6    1    1    2  501    0 -0.46985673360E+02 -0.91822808807E+02 -0.18674789704E+04  0.18783092894E+04  0.17300000000E+03 0. -1.
         -6    1    1    2    0  502  0.46985673360E+02  0.91822808807E+02 -0.60938656365E+03  0.64180999188E+03  0.17300000000E+03 0. -1.
</event>
<event>
 4    1  0.6031777E+000  0.1000000E+03  0.7546771E-02  0.1280296E+00
         21   -1    0    0  503  502  0.00000000000E+00  0.00000000000E+00  0.61218169070E+03  0.61218169070E+03  0.00000000000E+00 0. -1.
         21   -1    0    0  501  503 -0.00000000000E+00 -0.00000000000E+00 -0.94799054909E+02  0.94799054909E+02  0.00000000000E+00 0. -1.
          6    1    1    2  501    0  0.68404875724E+02  0.15102007471E+03  0.29519739857E+03  0.38020625207E+03  0.17300000000E+03 0. -1.
         -6    1    1    2    0  502 -0.68404875724E+02 -0.15102007471E+03  0.22218523721E+03  0.32677449353E+03  0.17300000000E+03 0. -1.
</event>
<event>
 4    1  0.6031777E+000  0.1000000E+03  0.7546771E-02  0.1280296E+00
         21   -1    0    0  503  502  0.00000000000E+00  0.00000000000E+00  0.12439914106E+03  0.12439914106E+03  0.00000000000E+00 0.  1.
         21   -1    0    0  501  503 -0.00000000000E+00 -0.00000000000E+00 -0.43119770232E+03  0.43119770232E+03  0.00000000000E+00 0. -1.
          6    1    1    2  501    0 -0.12526403485E+03 -0.36812241154E+02 -0.25132485146E+03  0.33187256663E+03  0.17300000000E+03 0. -1.
         -6    1    1    2    0  502  0.12526403485E+03  0.36812241154E+02 -0.55473709803E+02  0.22372427674E+03  0.17300000000E+03 0.  1.
</event>
<event>
 4    1  0.6031777E+000  0.1000000E+03  0.7546771E-02  0.1280296E+00
         21   -1    0    0  503  502  0.00000000000E+00  0.00000000000E+00  0.22778518333E+04  0.22778518333E+04  0.00000000000E+00 0.  1.
         21   -1    0    0  501  503 -0.00000000000E+00 -0.00000000000E+00 -0.12849054573E+03  0.12849054573E+03  0.00000000000E+00 0.  1.
          6    1    1    2  501    0  0.30749324015E+03 -0.32759921132E+03  0.52594048902E+03  0.71303277203E+03  0.17300000000E+03 0.  1.
         -6    1    1    2    0  502 -0.30749324015E+03  0.32759921132E+03  0.16234207986E+04  0.16933096070E+04  0.17300000000E+03 0.  1.
</event>
<event>
 4    1  0.6031777E+000  0.1000000E+03  0.7546771E-02  0.1280296E+00
         21   -1    0    0  501  502  0.00000000000E+00  0.00000000000E+00  0.38773488719E+03  0.38773488719E+03  0.00000000000E+00 0.  1.
         21   -1    0    0  502  503 -0.00000000000E+00 -0.00000000000E+00 -0.11796061844E+03  0.11796061844E+03  0.00000000000E+00 0. -1.
          6    1    1    2  501    0 -0.50813319902E+02  0.10065129442E+03  0.20066920193E+03  0.28794062782E+03  0.17300000000E+03 0.  1.
         -6    1    1    2    0  503  0.50813319902E+02 -0.10065129442E+03  0.69105066822E+02  0.21775487780E+03  0.17300000000E+03 0. -1.
</event>
<event>
 4    1  0.6031777E+000  0.1000000E+03  0.7546771E-02  0.1280296E+00
         21   -1    0    0  501  502  0.00000000000E+00  0.00000000000E+00  0.84011891666E+03  0.84011891666E+03  0.00000000000E+00 0.  1.
         21   -1    0    0  502  503 -0.00000000000E+00 -0.00000000000E+00 -0.17801265441E+03  0.17801265441E+03  0.00000000000E+00 0. -1.
          6    1    1    2  501    0 -0.11900865178E+02 -0.32603576341E+03  0.17991771317E+03  0.41078015182E+03  0.17300000000E+03 0.  1.
         -6    1    1    2    0  503  0.11900865178E+02  0.32603576341E+03  0.48218854908E+03  0.60735141926E+03  0.17300000000E+03 0.  1.
</event>
<event>
 4    1  0.6031777E+000  0.1000000E+03  0.7546771E-02  0.1280296E+00
         21   -1    0    0  503  502  0.00000000000E+00  0.00000000000E+00  0.26634934755E+03  0.26634934755E+03  0.00000000000E+00 0.  1.
         21   -1    0    0  501  503 -0.00000000000E+00 -0.00000000000E+00 -0.59915038450E+03  0.59915038450E+03  0.00000000000E+00 0.  1.
          6    1    1    2  501    0  0.28291313584E+03  0.46246327684E+02 -0.40243698991E+03  0.52351035912E+03  0.17300000000E+03 0.  1.
         -6    1    1    2    0  502 -0.28291313584E+03 -0.46246327684E+02  0.69635952953E+02  0.34198937293E+03  0.17300000000E+03 0.  1.
</event>
<event>
 4    1  0.6031777E+000  0.1000000E+03  0.7546771E-02  0.1280296E+00
         21   -1    0    0  501  502  0.00000000000E+00  0.00000000000E+00  0.32049801651E+03  0.32049801651E+03  0.00000000000E+00 0.  1.
         21   -1    0    0  502  503 -0.00000000000E+00 -0.00000000000E+00 -0.11797009439E+03  0.11797009439E+03  0.00000000000E+00 0. -1.
          6    1    1    2  501    0  0.95463966056E+01  0.80959341398E+02  0.14088065710E+03  0.23753296233E+03  0.17300000000E+03 0.  1.
         -6    1    1    2    0  503 -0.95463966056E+01 -0.80959341398E+02  0.61647265015E+02  0.20093514857E+03  0.17300000000E+03 0. -1.
</event>
<event>
 4    1  0.6031777E+000  0.1000000E+03  0.7546771E-02  0.1280296E+00
         21   -1    0    0  501  502  0.00000000000E+00  0.00000000000E+00  0.14046680975E+03  0.14046680975E+03  0.00000000000E+00 0.  1.
         21   -1    0    0  502  503 -0.00000000000E+00 -0.00000000000E+00 -0.29620010024E+03  0.29620010024E+03  0.00000000000E+00 0.  1.
          6    1    1    2  501    0  0.93707105158E+02  0.19333070735E+02 -0.24107061967E+02  0.19916058751E+03  0.17300000000E+03 0.  1.
         -6    1    1    2    0  503 -0.93707105158E+02 -0.19333070735E+02 -0.13162622852E+03  0.23750632247E+03  0.17300000000E+03 0.  1.
</event>
<event>
 4    1  0.6031777E+000  0.1000000E+03  0.7546771E-02  0.1280296E+00
         21   -1    0    0  503  502  0.00000000000E+00  0.00000000000E+00  0.91139119229E+02  0.91139119229E+02  0.00000000000E+00 0. -1.
         21   -1    0    0  501  503 -0.00000000000E+00 -0.00000000000E+00 -0.54779574030E+03  0.54779574030E+03  0.00000000000E+00 0. -1.
          6    1    1    2  501    0  0.13936361979E+03 -0.19585697055E+02 -0.24807788397E+03  0.33358275520E+03  0.17300000000E+03 0. -1.
         -6    1    1    2    0  502 -0.13936361979E+03  0.19585697055E+02 -0.20857873710E+03  0.30535210433E+03  0.17300000000E+03 0. -1.
</event>
<event>
 4    1  0.6031777E+000  0.1000000E+03  0.7546771E-02  0.1280296E+00
         21   -1    0    0  501  502  0.00000000000E+00  0.00000000000E+00  0.38403957838E+03  0.38403957838E+03  0.00000000000E+00 0.  1.
         21   -1    0    0  502  503 -0.00000000000E+00 -0.00000000000E+00 -0.18352439572E+03  0.18352439572E+03  0.00000000000E+00 0.  1.
          6    1    1    2  501    0 -0.11167703836E+03 -0.65143073059E+02  0.26528987297E+03  0.34208638903E+03  0.17300000000E+03 0.  1.
         -6    1    1    2    0  503  0.11167703836E+03  0.65143073059E+02 -0.64774690308E+02  0.22547758507E+03  0.17300000000E+03 0.  1.
</event>
<event>
 4    1  0.6031777E+000  0.1000000E+03  0.7546771E-02  0.1280296E+00
         21   -1    0    0  501  502  0.00000000000E+00  0.00000000000E+00  0.29104659687E+03  0.29104659687E+03  0.00000000000E+00 0.  1.
         21   -1    0    0  502  503 -0.00000000000E+00 -0.00000000000E+00 -0.15352275376E+03  0.15352275376E+03  0.00000000000E+00 0.  1.
          6    1    1    2  501    0 -0.94405486127E+02  0.61859269944E+02  0.11595790407E+03  0.23688436125E+03  0.17300000000E+03 0.  1.
         -6    1    1    2    0  503  0.94405486127E+02 -0.61859269944E+02  0.21565939043E+02  0.20768498938E+03  0.17300000000E+03 0.  1.
</event>
<event>
 4    1  0.6031777E+000  0.1000000E+03  0.7546771E-02  0.1280296E+00
         21   -1    0    0  501  502  0.00000000000E+00  0.00000000000E+00  0.50362262253E+02  0.50362262253E+02  0.00000000000E+00 0.  1.
         21   -1    0    0  502  503 -0.00000000000E+00 -0.00000000000E+00 -0.11729352323E+04  0.11729352323E+04  0.00000000000E+00 0.  1.
          6    1    1    2  501    0 -0.16514973101E+03 -0.28778047228E+02 -0.48012647374E+03  0.53717133248E+03  0.17300000000E+03 0.  1.
         -6    1    1    2    0  503  0.16514973101E+03  0.28778047228E+02 -0.64244649627E+03  0.68612616204E+03  0.17300000000E+03 0.  1.
</event>
<event>
 4    1  0.6031777E+000  0.1000000E+03  0.7546771E-02  0.1280296E+00
         21   -1    0    0  501  502  0.00000000000E+00  0.00000000000E+00  0.52634692042E+03  0.52634692042E+03  0.00000000000E+00 0.  1.
         21   -1    0    0  502  503 -0.00000000000E+00 -0.00000000000E+00 -0.12736177160E+03  0.12736177160E+03  0.00000000000E+00 0.  1.
          6    1    1    2  501    0 -0.35810261164E+02 -0.18812957276E+03  0.22574225936E+03  0.34287560224E+03  0.17300000000E+03 0.  1.
         -6    1    1    2    0  503  0.35810261164E+02  0.18812957276E+03  0.17324288945E+03  0.31083308977E+03  0.17300000000E+03 0.  1.
</event>
<event>
 4    1  0.6031777E+000  0.1000000E+03  0.7546771E-02  0.1280296E+00
         21   -1    0    0  503  502  0.00000000000E+00  0.00000000000E+00  0.56257903839E+03  0.56257903839E+03  0.00000000000E+00 0. -1.
         21   -1    0    0  501  503 -0.00000000000E+00 -0.00000000000E+00 -0.12696350607E+03  0.12696350607E+03  0.00000000000E+00 0. -1.
          6    1    1    2  501    0  0.50221296796E+02  0.12180657610E+03  0.17379319375E+02  0.21815146430E+03  0.17300000000E+03 0. -1.
         -6    1    1    2    0  502 -0.50221296796E+02 -0.12180657610E+03  0.41823621294E+03  0.47139108016E+03  0.17300000000E+03 0. -1.
</event>
<event>
 4    1  0.6031777E+000  0.1000000E+03  0.7546771E-02  0.1280296E+00
         21   -1    0    0  503  502  0.00000000000E+00  0.00000000000E+00  0.18720064268E+03  0.18720064268E+03  0.00000000000E+00 0. -1.
         21   -1    0    0  501  503 -0.00000000000E+00 -0.00000000000E+00 -0.25647957682E+03  0.25647957682E+03  0.00000000000E+00 0. -1.
          6    1    1    2  501    0  0.11023714791E+03 -0.53083264411E+02 -0.91136401521E+02  0.23066188550E+03  0.17300000000E+03 0. -1.
         -6    1    1    2    0  502 -0.11023714791E+03  0.53083264411E+02  0.21857467381E+02  0.21301833400E+03  0.17300000000E+03 0. -1.
</event>
<event>
 4    1  0.6031777E+000  0.1000000E+03  0.7546771E-02  0.1280296E+00
         21   -1    0    0  503  502  0.00000000000E+00  0.00000000000E+00  0.18725510035E+04  0.18725510035E+04  0.00000000000E+00 0. -1.
         21   -1    0    0  501  503 -0.00000000000E+00 -0.00000000000E+00 -0.51338029805E+02  0.51338029805E+02  0.00000000000E+00 0. -1.
          6    1    1    2  501    0 -0.19824616108E+03 -0.14653320326E+03  0.68197508861E+03  0.74551495057E+03  0.17300000000E+03 0. -1.
         -6    1    1    2    0  502  0.19824616108E+03  0.14653320326E+03  0.11392378851E+04  0.11783740827E+04  0.17300000000E+03 0. -1.
</event>
<event>
 4    1  0.6031777E+000  0.1000000E+03  0.7546771E-02  0.1280296E+00
         21   -1    0    0  501  502  0.00000000000E+00  0.00000000000E+00  0.91906057639E+03  0.91906057639E+03  0.00000000000E+00 0.  1.
         21   -1    0    0  502  503 -0.00000000000E+00 -0.00000000000E+00 -0.46867150704E+02  0.46867150704E+02  0.00000000000E+00 0.  1.
          6    1    1    2  501    0  0.21036448905E+02  0.49981519989E+02  0.67116547623E+03  0.69522138992E+03  0.17300000000E+03 0.  1.
         -6    1    1    2    0  503 -0.21036448905E+02 -0.49981519989E+02  0.20102794946E+03  0.27070633718E+03  0.17300000000E+03 0.  1.
</event>
<event>
 4    1  0.6031777E+000  0.1000000E+03  0.7546771E-02  0.1280296E+00
         21   -1    0    0  503  502  0.00000000000E+00  0.00000000000E+00  0.17542171694E+03  0.17542171694E+03  0.00000000000E+00 0. -1.
         21   -1    0    0  501  503 -0.00000000000E+00 -0.00000000000E+00 -0.61641838534E+03  0.61641838534E+03  0.00000000000E+00 0. -1.
          6    1    1    2  501    0 -0.24767333791E+03 -0.10963677646E+03 -0.30427719092E+03  0.44257870936E+03  0.17300000000E+03 0. -1.
         -6    1    1    2    0  502  0.24767333791E+03  0.10963677646E+03 -0.13671947748E+03  0.34926139293E+03  0.17300000000E+03 0. -1.
</event>
<event>
 4    1  0.6031777E+000  0.1000000E+03  0.7546771E-02  0.1280296E+00
         21   -1    0    0  501  502  0.00000000000E+00  0.00000000000E+00  0.89148389395E+02  0.89148389395E+02  0.00000000000E+00 0.  1.
         21   -1    0    0  502  503 -0.00000000000E+00 -0.00000000000E+00 -0.59820689861E+03  0.59820689861E+03  0.00000000000E+00 0.  1.
          6    1    1    2  501    0 -0.45307187983E+02 -0.44417570840E+01 -0.37188611717E+02  0.18271415744E+03  0.17300000000E+03 0.  1.
         -6    1    1    2    0  503  0.45307187983E+02  0.44417570840E+01 -0.47186989750E+03  0.50464113056E+03  0.17300000000E+03 0.  1.
</event>
<event>
 4    1  0.6031777E+000  0.1000000E+03  0.7546771E-02  0.1280296E+00
         21   -1    0    0  503  502  0.00000000000E+00  0.00000000000E+00  0.26501496583E+02  0.26501496583E+02  0.00000000000E+00 0.  1.
         21   -1    0    0  501  503 -0.00000000000E+00 -0.00000000000E+00 -0.21289092008E+04  0.21289092008E+04  0.00000000000E+00 0. -1.
          6    1    1    2  501    0  0.56602907452E+02  0.25227089856E+02 -0.17340458518E+04  0.17437558061E+04  0.17300000000E+03 0. -1.
         -6    1    1    2    0  502 -0.56602907452E+02 -0.25227089856E+02 -0.36836185242E+03  0.41165489128E+03  0.17300000000E+03 0.  1.
</event>
<event>
 4    1  0.6031777E+000  0.1000000E+03  0.7546771E-02  0.1280296E+00
         21   -1    0    0  503  502  0.00000000000E+00  0.00000000000E+00  0.10850834058E+04  0.10850834058E+04  0.00000000000E+00 0.  1.
         21   -1    0    0  501  503 -0.00000000000E+00 -0.00000000000E+00 -0.66504401734E+02  0.66504401734E+02  0.00000000000E+00 0. -1.
          6    1    1    2  501    0  0.11711074047E+03 -0.16772702220E+03  0.55143093874E+03  0.61306798947E+03  0.17300000000E+03 0. -1.
         -6    1    1    2    0  502 -0.11711074047E+03  0.16772702220E+03  0.46714806530E+03  0.53851981804E+03  0.17300000000E+03 0.  1.
</event>
<event>
 4    1  0.6031777E+000  0.1000000E+03  0.7546771E-02  0.1280296E+00
         21   -1    0    0  501  502  0.00000000000E+00  0.00000000000E+00  0.68210964595E+02  0.68210964595E+02  0.00000000000E+00 0. -1.
         21   -1    0    0  502  503 -0.00000000000E+00 -0.00000000000E+00 -0.59196570123E+03  0.59196570123E+03  0.00000000000E+00 0. -1.
          6    1    1    2  501    0  0.85806707648E+02  0.45534382849E+02 -0.31417006692E+03  0.37157502882E+03  0.17300000000E+03 0. -1.
         -6    1    1    2    0  503 -0.85806707648E+02 -0.45534382849E+02 -0.20958466972E+03  0.28860163700E+03  0.17300000000E+03 0. -1.
</event>
<event>
 4    1  0.6031777E+000  0.1000000E+03  0.7546771E-02  0.1280296E+00
         21   -1    0    0  501  502  0.00000000000E+00  0.00000000000E+00  0.72055952295E+03  0.72055952295E+03  0.00000000000E+00 0. -1.
         21   -1    0    0  502  503 -0.00000000000E+00 -0.00000000000E+00 -0.13699799848E+03  0.13699799848E+03  0.00000000000E+00 0. -1.
          6    1    1    2  501    0 -0.88587703921E+02  0.65298182559E+01  0.62855190166E+03  0.65794901998E+03  0.17300000000E+03 0. -1.
         -6    1    1    2    0  503  0.88587703921E+02 -0.65298182559E+01 -0.44990377181E+02  0.19960850145E+03  0.17300000000E+03 0. -1.
</event>
<event>
 4    1  0.6031777E+000  0.1000000E+03  0.7546771E-02  0.1280296E+00
         21   -1    0    0  501  502  0.00000000000E+00  0.00000000000E+00  0.32738122040E+03  0.32738122040E+03  0.00000000000E+00 0. -1.
         21   -1    0    0  502  503 -0.00000000000E+00 -0.00000000000E+00 -0.90652740297E+03  0.90652740297E+03  0.00000000000E+00 0. -1.
          6    1    1    2  501    0  0.22670702011E+03 -0.97036489485E+02  0.22448270323E+03  0.37567757094E+03  0.17300000000E+03 0. -1.
         -6    1    1    2    0  503 -0.22670702011E+03  0.97036489485E+02 -0.80362888580E+03  0.85823105243E+03  0.17300000000E+03 0. -1.
</event>
<event>
 4    1  0.6031777E+000  0.1000000E+03  0.7546771E-02  0.1280296E+00
         21   -1    0    0  501  502  0.00000000000E+00  0.00000000000E+00  0.20458199399E+03  0.20458199399E+03  0.00000000000E+00 0. -1.
         21   -1    0    0  502  503 -0.00000000000E+00 -0.00000000000E+00 -0.24299717428E+03  0.24299717428E+03  0.00000000000E+00 0. -1.
          6    1    1    2  501    0 -0.16647837599E+02  0.13894601984E+03 -0.49882735130E+01  0.22256915734E+03  0.17300000000E+03 0. -1.
         -6    1    1    2    0  503  0.16647837599E+02 -0.13894601984E+03 -0.33426906773E+02  0.22501001094E+03  0.17300000000E+03 0. -1.
</event>
<event>
 4    1  0.6031777E+000  0.1000000E+03  0.7546771E-02  0.1280296E+00
         21   -1    0    0  503  502  0.00000000000E+00  0.00000000000E+00  0.72387711431E+03  0.72387711431E+03  0.00000000000E+00 0. -1.
         21   -1    0    0  501  503 -0.00000000000E+00 -0.00000000000E+00 -0.83249454306E+02  0.83249454306E+02  0.00000000000E+00 0.  1.
          6    1    1    2  501    0  0.12832201389E+03  0.55573533526E+02  0.14964035331E+03  0.26809735585E+03  0.17300000000E+03 0.  1.
         -6    1    1    2    0  502 -0.12832201389E+03 -0.55573533526E+02  0.49098730669E+03  0.53902921276E+03  0.17300000000E+03 0. -1.
</event>
<event>
 4    1  0.6031777E+000  0.1000000E+03  0.7546771E-02  0.1280296E+00
         21   -1    0    0  503  502  0.00000000000E+00  0.00000000000E+00  0.52778456945E+02  0.52778456945E+02  0.00000000000E+00 0. -1.
         21   -1    0    0  501  503 -0.00000000000E+00 -0.00000000000E+00 -0.80394425340E+03  0.80394425340E+03  0.00000000000E+00 0. -1.
          6    1    1    2  501    0  0.64862549292E+02 -0.52397003243E+01 -0.56466554444E+03  0.59414710454E+03  0.17300000000E+03 0. -1.
         -6    1    1    2    0  502 -0.64862549292E+02  0.52397003243E+01 -0.18650025201E+03  0.26257560580E+03  0.17300000000E+03 0. -1.
</event>
<event>
 4    1  0.6031777E+000  0.1000000E+03  0.7546771E-02  0.1280296E+00
         21   -1    0    0  503  502  0.00000000000E+00  0.00000000000E+00  0.16787339083E+03  0.16787339083E+03  0.00000000000E+00 0. -1.
         21   -1    0    0  501  503 -0.00000000000E+00 -0.00000000000E+00 -0.69694248507E+03  0.69694248507E+03  0.00000000000E+00 0. -1.
          6    1    1    2  501    0  0.24895539926E+03  0.20649193008E+02 -0.46306872983E+03  0.55386535235E+03  0.17300000000E+03 0. -1.
         -6    1    1    2    0  502 -0.24895539926E+03 -0.20649193008E+02 -0.66000364404E+02  0.31095052354E+03  0.17300000000E+03 0. -1.
</event>
<event>
 4    1  0.6031777E+000  0.1000000E+03  0.7546771E-02  0.1280296E+00
         21   -1    0    0  503  502  0.00000000000E+00  0.00000000000E+00  0.73046834131E+02  0.73046834131E+02  0.00000000000E+00 0. -1.
         21   -1    0    0  501  503 -0.00000000000E+00 -0.00000000000E+00 -0.62185121063E+03  0.62185121063E+03  0.00000000000E+00 0. -1.
          6    1    1    2  501    0 -0.17004925150E+02 -0.90916466059E+02 -0.41021351494E+03  0.45470770734E+03  0.17300000000E+03 0. -1.
         -6    1    1    2    0  502  0.17004925150E+02  0.90916466059E+02 -0.13859086156E+03  0.24019033742E+03  0.17300000000E+03 0. -1.
</event>
<event>
 4    1  0.6031777E+000  0.1000000E+03  0.7546771E-02  0.1280296E+00
         21   -1    0    0  503  502  0.00000000000E+00  0.00000000000E+00  0.25291123715E+03  0.25291123715E+03  0.00000000000E+00 0.  1.
         21   -1    0    0  501  503 -0.00000000000E+00 -0.00000000000E+00 -0.40388303902E+03  0.40388303902E+03  0.00000000000E+00 0.  1.
          6    1    1    2  501    0  0.39104075581E+02  0.11456921261E+03 -0.32200845572E+03  0.38506321397E+03  0.17300000000E+03 0.  1.
         -6    1    1    2    0  502 -0.39104075581E+02 -0.11456921261E+03  0.17103665385E+03  0.27173106220E+03  0.17300000000E+03 0.  1.
</event>
<event>
 4    1  0.6031777E+000  0.1000000E+03  0.7546771E-02  0.1280296E+00
         21   -1    0    0  503  502  0.00000000000E+00  0.00000000000E+00  0.11794784923E+04  0.11794784923E+04  0.00000000000E+00 0.  1.
         21   -1    0    0  501  503 -0.00000000000E+00 -0.00000000000E+00 -0.11655681913E+03  0.11655681913E+03  0.00000000000E+00 0.  1.
          6    1    1    2  501    0 -0.20989068636E+03 -0.85115343715E+02  0.11695695020E+03  0.30806922948E+03  0.17300000000E+03 0.  1.
         -6    1    1    2    0  502  0.20989068636E+03  0.85115343715E+02  0.94596472295E+03  0.98796608192E+03  0.17300000000E+03 0.  1.
</event>
<event>
 4    1  0.6031777E+000  0.1000000E+03  0.7546771E-02  0.1280296E+00
         21   -1    0    0  501  502  0.00000000000E+00  0.00000000000E+00  0.38720704698E+03  0.38720704698E+03  0.00000000000E+00 0. -1.
         21   -1    0    0  502  503 -0.00000000000E+00 -0.00000000000E+00 -0.25196925470E+03  0.25196925470E+03  0.00000000000E+00 0. -1.
          6    1    1    2  501    0 -0.11496410802E+03 -0.44367365126E+02  0.30194370373E+03  0.36916691271E+03  0.17300000000E+03 0. -1.
         -6    1    1    2    0  503  0.11496410802E+03  0.44367365126E+02 -0.16670591144E+03  0.27000938897E+03  0.17300000000E+03 0. -1.
</event>
<event>
 4    1  0.6031777E+000  0.1000000E+03  0.7546771E-02  0.1280296E+00
         21   -1    0    0  503  502  0.00000000000E+00  0.00000000000E+00  0.43814423117E+03  0.43814423117E+03  0.00000000000E+00 0.  1.
         21   -1    0    0  501  503 -0.00000000000E+00 -0.00000000000E+00 -0.39432627626E+03  0.39432627626E+03  0.00000000000E+00 0.  1.
          6    1    1    2  501    0  0.22485091432E+02 -0.49630744661E+02 -0.35260750814E+03  0.39652218721E+03  0.17300000000E+03 0.  1.
         -6    1    1    2    0  502 -0.22485091432E+02  0.49630744661E+02  0.39642546305E+03  0.43594832022E+03  0.17300000000E+03 0.  1.
</event>
<event>
 4    1  0.6031777E+000  0.1000000E+03  0.7546771E-02  0.1280296E+00
         21   -1    0    0  503  502  0.00000000000E+00  0.00000000000E+00  0.54462970608E+03  0.54462970608E+03  0.00000000000E+00 0.  1.
         21   -1    0    0  501  503 -0.00000000000E+00 -0.00000000000E+00 -0.24847416654E+03  0.24847416654E+03  0.00000000000E+00 0.  1.
          6    1    1    2  501    0 -0.12672927702E+03  0.27640524978E+03  0.25466718232E+02  0.35076733813E+03  0.17300000000E+03 0.  1.
         -6    1    1    2    0  502  0.12672927702E+03 -0.27640524978E+03  0.27068882131E+03  0.44233653448E+03  0.17300000000E+03 0.  1.
</event>
<event>
 4    1  0.6031777E+000  0.1000000E+03  0.7546771E-02  0.1280296E+00
         21   -1    0    0  503  502  0.00000000000E+00  0.00000000000E+00  0.80569028489E+02  0.80569028489E+02  0.00000000000E+00 0. -1.
         21   -1    0    0  501  503 -0.00000000000E+00 -0.00000000000E+00 -0.46875346534E+03  0.46875346534E+03  0.00000000000E+00 0. -1.
          6    1    1    2  501    0  0.51373354158E+02  0.42605148912E+01 -0.29581838833E+03  0.34654709980E+03  0.17300000000E+03 0. -1.
         -6    1    1    2    0  502 -0.51373354158E+02 -0.42605148912E+01 -0.92366048519E+02  0.20277539403E+03  0.17300000000E+03 0. -1.
</event>
<event>
 4    1  0.6031777E+000  0.1000000E+03  0.7546771E-02  0.1280296E+00
         21   -1    0    0  501  502  0.00000000000E+00  0.00000000000E+00  0.75943081360E+03  0.75943081360E+03  0.00000000000E+00 0.  1.
         21   -1    0    0  502  503 -0.00000000000E+00 -0.00000000000E+00 -0.69362110469E+02  0.69362110469E+02  0.00000000000E+00 0. -1.
          6    1    1    2  501    0 -0.89445462876E+02 -0.41632833855E+02  0.55100175829E+03  0.58588883018E+03  0.17300000000E+03 0.  1.
         -6    1    1    2    0  503  0.89445462876E+02  0.41632833855E+02  0.13906694484E+03  0.24290409390E+03  0.17300000000E+03 0. -1.
</event>
<event>
 4    1  0.6031777E+000  0.1000000E+03  0.7546771E-02  0.1280296E+00
         21   -1    0    0  501  502  0.00000000000E+00  0.00000000000E+00  0.16520499873E+03  0.16520499873E+03  0.00000000000E+00 0.  1.
         21   -1    0    0  502  503 -0.00000000000E+00 -0.00000000000E+00 -0.18884996948E+03  0.18884996948E+03  0.00000000000E+00 0. -1.
          6    1    1    2  501    0 -0.31250985842E+02  0.14240889890E+02 -0.22863704299E+01  0.17639063056E+03  0.17300000000E+03 0.  1.
         -6    1    1    2    0  503  0.31250985842E+02 -0.14240889890E+02 -0.21358600319E+02  0.17766433764E+03  0.17300000000E+03 0. -1.
</event>
<event>
 4    1  0.6031777E+000  0.1000000E+03  0.7546771E-02  0.1280296E+00
         21   -1    0    0  503  502  0.00000000000E+00  0.00000000000E+00  0.37798196888E+02  0.37798196888E+02  0.00000000000E+00 0. -1.
         21   -1    0    0  501  503 -0.00000000000E+00 -0.00000000000E+00 -0.17503560240E+04  0.17503560240E+04  0.00000000000E+00 0. -1.
          6    1    1    2  501    0 -0.63348519951E+02 -0.17466844283E+03 -0.99998425095E+03  0.10317071300E+04  0.17300000000E+03 0. -1.
         -6    1    1    2    0  502  0.63348519951E+02  0.17466844283E+03 -0.71257357615E+03  0.75644709090E+03  0.17300000000E+03 0. -1.
</event>
<event>
 4    1  0.6031777E+000  0.1000000E+03  0.7546771E-02  0.1280296E+00
         21   -1    0    0  503  502  0.00000000000E+00  0.00000000000E+00  0.17935955266E+04  0.17935955266E+04  0.00000000000E+00 0. -1.
         21   -1    0    0  501  503 -0.00000000000E+00 -0.00000000000E+00 -0.63546327075E+02  0.63546327075E+02  0.00000000000E+00 0. -1.
          6    1    1    2  501    0 -0.18962460814E+03 -0.14415931302E+03  0.41050500251E+03  0.50515617053E+03  0.17300000000E+03 0. -1.
         -6    1    1    2    0  502  0.18962460814E+03  0.14415931302E+03  0.13195441970E+04  0.13519856831E+04  0.17300000000E+03 0. -1.
</event>
<event>
 4    1  0.6031777E+000  0.1000000E+03  0.7546771E-02  0.1280296E+00
         21   -1    0    0  503  502  0.00000000000E+00  0.00000000000E+00  0.36791476915E+02  0.36791476915E+02  0.00000000000E+00 0. -1.
         21   -1    0    0  501  503 -0.00000000000E+00 -0.00000000000E+00 -0.10597406939E+04  0.10597406939E+04  0.00000000000E+00 0. -1.
          6    1    1    2  501    0  0.10767187950E+02  0.64289002808E+02 -0.31887541367E+03  0.36859128810E+03  0.17300000000E+03 0.  1.
         -6    1    1    2    0  502 -0.10767187950E+02 -0.64289002808E+02 -0.70407380336E+03  0.72794088276E+03  0.17300000000E+03 0.  1.
</event>
<event>
 4    1  0.6031777E+000  0.1000000E+03  0.7546771E-02  0.1280296E+00
         21   -1    0    0  503  502  0.00000000000E+00  0.00000000000E+00  0.91805373310E+03  0.91805373310E+03  0.00000000000E+00 0.  1.
         21   -1    0    0  501  503 -0.00000000000E+00 -0.00000000000E+00 -0.20897894262E+03  0.20897894262E+03  0.00000000000E+00 0. -1.
          6    1    1    2  501    0 -0.14411829027E+03 -0.17765348633E+03 -0.71369525419E+02  0.29555617394E+03  0.17300000000E+03 0.  1.
         -6    1    1    2    0  502  0.14411829027E+03  0.17765348633E+03  0.78044431589E+03  0.83147650178E+03  0.17300000000E+03 0. -1.
</event>
<event>
 4    1  0.6031777E+000  0.1000000E+03  0.7546771E-02  0.1280296E+00
         21   -1    0    0  503  502  0.00000000000E+00  0.00000000000E+00  0.15102780729E+03  0.15102780729E+03  0.00000000000E+00 0.  1.
         21   -1    0    0  501  503 -0.00000000000E+00 -0.00000000000E+00 -0.40331942558E+03  0.40331942558E+03  0.00000000000E+00 0. -1.
          6    1    1    2  501    0 -0.86074078240E+02  0.95914225025E+02 -0.26079546518E+03  0.33845466486E+03  0.17300000000E+03 0.  1.
         -6    1    1    2    0  502  0.86074078240E+02 -0.95914225025E+02  0.85038468932E+01  0.21589256800E+03  0.17300000000E+03 0. -1.
</event>
<event>
 4    1  0.6031777E+000  0.1000000E+03  0.7546771E-02  0.1280296E+00
         21   -1    0    0  501  502  0.00000000000E+00  0.00000000000E+00  0.46024143506E+03  0.46024143506E+03  0.00000000000E+00 0. -1.
         21   -1    0    0  502  503 -0.00000000000E+00 -0.00000000000E+00 -0.36361949203E+03  0.36361949203E+03  0.00000000000E+00 0.  1.
          6    1    1    2  501    0  0.14253171967E+03  0.31472639320E+03  0.18361645562E+03  0.42779901410E+03  0.17300000000E+03 0. -1.
         -6    1    1    2    0  503 -0.14253171967E+03 -0.31472639320E+03 -0.86994512596E+02  0.39606191298E+03  0.17300000000E+03 0.  1.
</event>
<event>
 4    1  0.6031777E+000  0.1000000E+03  0.7546771E-02  0.1280296E+00
         21   -1    0    0  501  502  0.00000000000E+00  0.00000000000E+00  0.20060390093E+03  0.20060390093E+03  0.00000000000E+00 0. -1.
         21   -1    0    0  502  503 -0.00000000000E+00 -0.00000000000E+00 -0.67458205296E+03  0.67458205296E+03  0.00000000000E+00 0.  1.
          6    1    1    2  501    0  0.68481052788E+02  0.80040826376E+02  0.12829933480E+03  0.23976219007E+03  0.17300000000E+03 0. -1.
         -6    1    1    2    0  503 -0.68481052788E+02 -0.80040826376E+02 -0.60227748684E+03  0.63542376382E+03  0.17300000000E+03 0.  1.
</event>
<event>
 4    1  0.6031777E+000  0.1000000E+03  0.7546771E-02  0.1280296E+00
         21   -1    0    0  501  502  0.00000000000E+00  0.00000000000E+00  0.28777321839E+02  0.28777321839E+02  0.00000000000E+00 0. -1.
         21   -1    0    0  502  503 -0.00000000000E+00 -0.00000000000E+00 -0.15638525643E+04  0.15638525643E+04  0.00000000000E+00 0.  1.
          6    1    1    2  501    0 -0.19086327138E+02  0.11761370386E+03 -0.87871473023E+03  0.90347432080E+03  0.17300000000E+03 0. -1.
         -6    1    1    2    0  503  0.19086327138E+02 -0.11761370386E+03 -0.65636051219E+03  0.68915556530E+03  0.17300000000E+03 0.  1.
</event>
<event>
 4    1  0.6031777E+000  0.1000000E+03  0.7546771E-02  0.1280296E+00
         21   -1    0    0  501  502  0.00000000000E+00  0.00000000000E+00  0.28068531827E+03  0.28068531827E+03  0.00000000000E+00 0.  1.
         21   -1    0    0  502  503 -0.00000000000E+00 -0.00000000000E+00 -0.12327461339E+03  0.12327461339E+03  0.00000000000E+00 0.  1.
          6    1    1    2  501    0  0.37496208348E+01 -0.66110325359E+02  0.97124147974E+02  0.20915720139E+03  0.17300000000E+03 0.  1.
         -6    1    1    2    0  503 -0.37496208348E+01  0.66110325359E+02  0.60286556905E+02  0.19480273027E+03  0.17300000000E+03 0.  1.
</event>
<event>
 4    1  0.6031777E+000  0.1000000E+03  0.7546771E-02  0.1280296E+00
         21   -1    0    0  501  502  0.00000000000E+00  0.00000000000E+00  0.17924199210E+03  0.17924199210E+03  0.00000000000E+00 0.  1.
         21   -1    0    0  502  503 -0.00000000000E+00 -0.00000000000E+00 -0.18161046011E+03  0.18161046011E+03  0.00000000000E+00 0.  1.
          6    1    1    2  501    0  0.20292491517E+02 -0.41990957272E+02 -0.22355305314E+02  0.18056518319E+03  0.17300000000E+03 0.  1.
         -6    1    1    2    0  503 -0.20292491517E+02  0.41990957272E+02  0.19986837301E+02  0.18028726902E+03  0.17300000000E+03 0.  1.
</event>
<event>
 4    1  0.6031777E+000  0.1000000E+03  0.7546771E-02  0.1280296E+00
         21   -1    0    0  503  502  0.00000000000E+00  0.00000000000E+00  0.30847031605E+03  0.30847031605E+03  0.00000000000E+00 0.  1.
         21   -1    0    0  501  503 -0.00000000000E+00 -0.00000000000E+00 -0.42153303776E+03  0.42153303776E+03  0.00000000000E+00 0. -1.
          6    1    1    2  501    0 -0.99739572390E+02  0.81691980911E+01 -0.36034182471E+03  0.41205575925E+03  0.17300000000E+03 0.  1.
         -6    1    1    2    0  502  0.99739572390E+02 -0.81691980911E+01  0.24727910300E+03  0.31794759455E+03  0.17300000000E+03 0. -1.
</event>
<event>
 4    1  0.6031777E+000  0.1000000E+03  0.7546771E-02  0.1280296E+00
         21   -1    0    0  503  502  0.00000000000E+00  0.00000000000E+00  0.23243155338E+03  0.23243155338E+03  0.00000000000E+00 0.  1.
         21   -1    0    0  501  503 -0.00000000000E+00 -0.00000000000E+00 -0.18606223979E+03  0.18606223979E+03  0.00000000000E+00 0. -1.
          6    1    1    2  501    0 -0.81112425999E+02 -0.60584698517E+02 -0.32548074462E+02  0.20307168315E+03  0.17300000000E+03 0.  1.
         -6    1    1    2    0  502  0.81112425999E+02  0.60584698517E+02  0.78917388053E+02  0.21542211001E+03  0.17300000000E+03 0. -1.
</event>
<event>
 4    1  0.6031777E+000  0.1000000E+03  0.7546771E-02  0.1280296E+00
         21   -1    0    0  503  502  0.00000000000E+00  0.00000000000E+00  0.37875063144E+03  0.37875063144E+03  0.00000000000E+00 0. -1.
         21   -1    0    0  501  503 -0.00000000000E+00 -0.00000000000E+00 -0.11673131847E+03  0.11673131847E+03  0.00000000000E+00 0. -1.
          6    1    1    2  501    0 -0.23609839172E+02 -0.11505029652E+03  0.10495346670E+03  0.23396201702E+03  0.17300000000E+03 0. -1.
         -6    1    1    2    0  502  0.23609839172E+02  0.11505029652E+03  0.15706584626E+03  0.26151993289E+03  0.17300000000E+03 0. -1.
</event>
<event>
 4    1  0.6031777E+000  0.1000000E+03  0.7546771E-02  0.1280296E+00
         21   -1    0    0  503  502  0.00000000000E+00  0.00000000000E+00  0.11131686380E+04  0.11131686380E+04  0.00000000000E+00 0. -1.
         21   -1    0    0  501  503 -0.00000000000E+00 -0.00000000000E+00 -0.84205647498E+03  0.84205647498E+03  0.00000000000E+00 0. -1.
          6    1    1    2  501    0  0.27748990538E+03 -0.13904122249E+03 -0.77383327932E+03  0.85151632593E+03  0.17300000000E+03 0. -1.
         -6    1    1    2    0  502 -0.27748990538E+03  0.13904122249E+03  0.10449454423E+04  0.11037087871E+04  0.17300000000E+03 0. -1.
</event>
<event>
 4    1  0.6031777E+000  0.1000000E+03  0.7546771E-02  0.1280296E+00
         21   -1    0    0  501  502  0.00000000000E+00  0.00000000000E+00  0.25612403077E+04  0.25612403077E+04  0.00000000000E+00 0.  1.
         21   -1    0    0  502  503 -0.00000000000E+00 -0.00000000000E+00 -0.23378758601E+02  0.23378758601E+02  0.00000000000E+00 0.  1.
          6    1    1    2  501    0 -0.29219021497E+02  0.15734660726E+03  0.16167640061E+04  0.16338502249E+04  0.17300000000E+03 0.  1.
         -6    1    1    2    0  503  0.29219021497E+02 -0.15734660726E+03  0.92109754303E+03  0.95076884142E+03  0.17300000000E+03 0.  1.
</event>
<event>
 4    1  0.6031777E+000  0.1000000E+03  0.7546771E-02  0.1280296E+00
         21   -1    0    0  501  502  0.00000000000E+00  0.00000000000E+00  0.35196599303E+03  0.35196599303E+03  0.00000000000E+00 0.  1.
         21   -1    0    0  502  503 -0.00000000000E+00 -0.00000000000E+00 -0.12764338924E+03  0.12764338924E+03  0.00000000000E+00 0.  1.
          6    1    1    2  501    0  0.85701466589E+02 -0.35059997296E+02  0.20283544449E+03  0.28221474506E+03  0.17300000000E+03 0.  1.
         -6    1    1    2    0  503 -0.85701466589E+02  0.35059997296E+02  0.21487159296E+02  0.19739463721E+03  0.17300000000E+03 0.  1.
</event>
<event>
 4    1  0.6031777E+000  0.1000000E+03  0.7546771E-02  0.1280296E+00
         21   -1    0    0  501  502  0.00000000000E+00  0.00000000000E+00  0.24116433521E+03  0.24116433521E+03  0.00000000000E+00 0.  1.
         21   -1    0    0  502  503 -0.00000000000E+00 -0.00000000000E+00 -0.23949595585E+03  0.23949595585E+03  0.00000000000E+00 0.  1.
          6    1    1    2  501    0  0.61957158903E+02  0.15400227424E+03 -0.15703532768E+02  0.24027274284E+03  0.17300000000E+03 0.  1.
         -6    1    1    2    0  503 -0.61957158903E+02 -0.15400227424E+03  0.17371912131E+02  0.24038754823E+03  0.17300000000E+03 0.  1.
</event>
<event>
 4    1  0.6031777E+000  0.1000000E+03  0.7546771E-02  0.1280296E+00
         21   -1    0    0  501  502  0.00000000000E+00  0.00000000000E+00  0.46349951130E+03  0.46349951130E+03  0.00000000000E+00 0. -1.
         21   -1    0    0  502  503 -0.00000000000E+00 -0.00000000000E+00 -0.49752958886E+03  0.49752958886E+03  0.00000000000E+00 0. -1.
          6    1    1    2  501    0  0.51570899998E+02 -0.42047576501E+02  0.42626201189E+03  0.46481809259E+03  0.17300000000E+03 0. -1.
         -6    1    1    2    0  503 -0.51570899998E+02  0.42047576501E+02 -0.46029208945E+03  0.49621100757E+03  0.17300000000E+03 0. -1.
</event>
<event>
 4    1  0.6031777E+000  0.1000000E+03  0.7546771E-02  0.1280296E+00
         21   -1    0    0  501  502  0.00000000000E+00  0.00000000000E+00  0.19892790071E+04  0.19892790071E+04  0.00000000000E+00 0. -1.
         21   -1    0    0  502  503 -0.00000000000E+00 -0.00000000000E+00 -0.85492557993E+02  0.85492557993E+02  0.00000000000E+00 0. -1.
          6    1    1    2  501    0 -0.31710149109E+03  0.61831957755E+02  0.14276065131E+04  0.14738948072E+04  0.17300000000E+03 0. -1.
         -6    1    1    2    0  503  0.31710149109E+03 -0.61831957755E+02  0.47617993607E+03  0.60087675788E+03  0.17300000000E+03 0. -1.
</event>
<event>
 4    1  0.6031777E+000  0.1000000E+03  0.7546771E-02  0.1280296E+00
         21   -1    0    0  503  502  0.00000000000E+00  0.00000000000E+00  0.44596051725E+03  0.44596051725E+03  0.00000000000E+00 0. -1.
         21   -1    0    0  501  503 -0.00000000000E+00 -0.00000000000E+00 -0.18182501429E+03  0.18182501429E+03  0.00000000000E+00 0. -1.
          6    1    1    2  501    0 -0.10630691495E+02  0.62097893725E+01 -0.11688549235E+03  0.20914777409E+03  0.17300000000E+03 0. -1.
         -6    1    1    2    0  502  0.10630691495E+02 -0.62097893725E+01  0.38102099532E+03  0.41863775744E+03  0.17300000000E+03 0. -1.
</event>
<event>
 4    1  0.6031777E+000  0.1000000E+03  0.7546771E-02  0.1280296E+00
         21   -1    0    0  503  502  0.00000000000E+00  0.00000000000E+00  0.11975989357E+03  0.11975989357E+03  0.00000000000E+00 0. -1.
         21   -1    0    0  501  503 -0.00000000000E+00 -0.00000000000E+00 -0.65376441607E+03  0.65376441607E+03  0.00000000000E+00 0. -1.
          6    1    1    2  501    0  0.84031385913E+02 -0.23062536785E+01 -0.54790001280E+03  0.58068064945E+03  0.17300000000E+03 0. -1.
         -6    1    1    2    0  502 -0.84031385913E+02  0.23062536785E+01  0.13895490294E+02  0.19284366019E+03  0.17300000000E+03 0. -1.
</event>
<event>
 4    1  0.6031777E+000  0.1000000E+03  0.7546771E-02  0.1280296E+00
         21   -1    0    0  501  502  0.00000000000E+00  0.00000000000E+00  0.60904495772E+02  0.60904495772E+02  0.00000000000E+00 0. -1.
         21   -1    0    0  502  503 -0.00000000000E+00 -0.00000000000E+00 -0.64651220308E+03  0.64651220308E+03  0.00000000000E+00 0. -1.
          6    1    1    2  501    0  0.28500671673E+02  0.43722044209E+02 -0.14665321287E+03  0.23272316232E+03  0.17300000000E+03 0. -1.
         -6    1    1    2    0  503 -0.28500671673E+02 -0.43722044209E+02 -0.43895449444E+03  0.47469353653E+03  0.17300000000E+03 0. -1.
</event>
<event>
 4    1  0.6031777E+000  0.1000000E+03  0.7546771E-02  0.1280296E+00
         21   -1    0    0  501  502  0.00000000000E+00  0.00000000000E+00  0.91273631673E+03  0.91273631673E+03  0.00000000000E+00 0. -1.
         21   -1    0    0  502  503 -0.00000000000E+00 -0.00000000000E+00 -0.39204018917E+02  0.39204018917E+02  0.00000000000E+00 0. -1.
          6    1    1    2  501    0  0.63651554583E+02 -0.29104026188E+02  0.51453880131E+03  0.54733695544E+03  0.17300000000E+03 0. -1.
         -6    1    1    2    0  503 -0.63651554583E+02  0.29104026188E+02  0.35899349651E+03  0.40460338021E+03  0.17300000000E+03 0. -1.
</event>
<event>
 4    1  0.6031777E+000  0.1000000E+03  0.7546771E-02  0.1280296E+00
         21   -1    0    0  503  502  0.00000000000E+00  0.00000000000E+00  0.98836726534E+03  0.98836726534E+03  0.00000000000E+00 0. -1.
         21   -1    0    0  501  503 -0.00000000000E+00 -0.00000000000E+00 -0.86557997072E+02  0.86557997072E+02  0.00000000000E+00 0. -1.
          6    1    1    2  501    0 -0.54560393003E+02  0.22334716257E+03  0.35434574890E+03  0.45645448982E+03  0.17300000000E+03 0. -1.
         -6    1    1    2    0  502  0.54560393003E+02 -0.22334716257E+03  0.54746351936E+03  0.61847077259E+03  0.17300000000E+03 0. -1.
</event>
<event>
 4    1  0.6031777E+000  0.1000000E+03  0.7546771E-02  0.1280296E+00
         21   -1    0    0  501  502  0.00000000000E+00  0.00000000000E+00  0.47387922045E+02  0.47387922045E+02  0.00000000000E+00 0.  1.
         21   -1    0    0  502  503 -0.00000000000E+00 -0.00000000000E+00 -0.10367110845E+04  0.10367110845E+04  0.00000000000E+00 0.  1.
          6    1    1    2  501    0  0.26142492169E+02 -0.13595190388E+03 -0.48077698357E+03  0.52937874721E+03  0.17300000000E+03 0.  1.
         -6    1    1    2    0  503 -0.26142492169E+02  0.13595190388E+03 -0.50854617891E+03  0.55472025936E+03  0.17300000000E+03 0.  1.
</event>
<event>
 4    1  0.6031777E+000  0.1000000E+03  0.7546771E-02  0.1280296E+00
         21   -1    0    0  501  502  0.00000000000E+00  0.00000000000E+00  0.11531139061E+04  0.11531139061E+04  0.00000000000E+00 0.  1.
         21   -1    0    0  502  503 -0.00000000000E+00 -0.00000000000E+00 -0.57500065692E+02  0.57500065692E+02  0.00000000000E+00 0. -1.
          6    1    1    2  501    0 -0.33464746391E+02 -0.10770544106E+03  0.90935396259E+03  0.93250950695E+03  0.17300000000E+03 0.  1.
         -6    1    1    2    0  503  0.33464746391E+02  0.10770544106E+03  0.18625987786E+03  0.27810446487E+03  0.17300000000E+03 0.  1.
</event>
<event>
 4    1  0.6031777E+000  0.1000000E+03  0.7546771E-02  0.1280296E+00
         21   -1    0    0  501  502  0.00000000000E+00  0.00000000000E+00  0.25090770270E+03  0.25090770270E+03  0.00000000000E+00 0.  1.
         21   -1    0    0  502  503 -0.00000000000E+00 -0.00000000000E+00 -0.14081639052E+03  0.14081639052E+03  0.00000000000E+00 0. -1.
          6    1    1    2  501    0 -0.43106569916E+02  0.25933917296E+02  0.11088906936E+03  0.21155644670E+03  0.17300000000E+03 0.  1.
         -6    1    1    2    0  503  0.43106569916E+02 -0.25933917296E+02 -0.79775717779E+00  0.18016764652E+03  0.17300000000E+03 0.  1.
</event>
<event>
 4    1  0.6031777E+000  0.1000000E+03  0.7546771E-02  0.1280296E+00
         21   -1    0    0  501  502  0.00000000000E+00  0.00000000000E+00  0.13407933087E+03  0.13407933087E+03  0.00000000000E+00 0.  1.
         21   -1    0    0  502  503 -0.00000000000E+00 -0.00000000000E+00 -0.22464905609E+03  0.22464905609E+03  0.00000000000E+00 0. -1.
          6    1    1    2  501    0  0.57565332822E+01  0.10857856685E+01 -0.58254062599E+02  0.18263858414E+03  0.17300000000E+03 0.  1.
         -6    1    1    2    0  503 -0.57565332822E+01 -0.10857856685E+01 -0.32315662625E+02  0.17608980282E+03  0.17300000000E+03 0.  1.
</event>
<event>
 4    1  0.6031777E+000  0.1000000E+03  0.7546771E-02  0.1280296E+00
         21   -1    0    0  501  502  0.00000000000E+00  0.00000000000E+00  0.39453003081E+03  0.39453003081E+03  0.00000000000E+00 0.  1.
         21   -1    0    0  502  503 -0.00000000000E+00 -0.00000000000E+00 -0.90371352650E+02  0.90371352650E+02  0.00000000000E+00 0. -1.
          6    1    1    2  501    0 -0.59874228880E+01 -0.69322393158E+02  0.19025067979E+03  0.26639400253E+03  0.17300000000E+03 0.  1.
         -6    1    1    2    0  503  0.59874228880E+01  0.69322393158E+02  0.11390799837E+03  0.21850738093E+03  0.17300000000E+03 0.  1.
</event>
<event>
 4    1  0.6031777E+000  0.1000000E+03  0.7546771E-02  0.1280296E+00
         21   -1    0    0  503  502  0.00000000000E+00  0.00000000000E+00  0.97685964493E+03  0.97685964493E+03  0.00000000000E+00 0. -1.
         21   -1    0    0  501  503 -0.00000000000E+00 -0.00000000000E+00 -0.74787240344E+02  0.74787240344E+02  0.00000000000E+00 0. -1.
          6    1    1    2  501    0 -0.22956825572E+02  0.52603649156E+01  0.49636563831E+02  0.18151439543E+03  0.17300000000E+03 0. -1.
         -6    1    1    2    0  502  0.22956825572E+02 -0.52603649156E+01  0.85243584076E+03  0.87013248985E+03  0.17300000000E+03 0. -1.
</event>
<event>
 4    1  0.6031777E+000  0.1000000E+03  0.7546771E-02  0.1280296E+00
         21   -1    0    0  503  502  0.00000000000E+00  0.00000000000E+00  0.94513839454E+03  0.94513839454E+03  0.00000000000E+00 0. -1.
         21   -1    0    0  501  503 -0.00000000000E+00 -0.00000000000E+00 -0.51601046542E+02  0.51601046542E+02  0.00000000000E+00 0. -1.
          6    1    1    2  501    0  0.50428208072E+02  0.10436958000E+03  0.61268045876E+03  0.64710305048E+03  0.17300000000E+03 0. -1.
         -6    1    1    2    0  502 -0.50428208072E+02 -0.10436958000E+03  0.28085688924E+03  0.34963639060E+03  0.17300000000E+03 0. -1.
</event>
<event>
 4    1  0.6031777E+000  0.1000000E+03  0.7546771E-02  0.1280296E+00
         21   -1    0    0  503  502  0.00000000000E+00  0.00000000000E+00  0.47872050868E+03  0.47872050868E+03  0.00000000000E+00 0.  1.
         21   -1    0    0  501  503 -0.00000000000E+00 -0.00000000000E+00 -0.73766820587E+02  0.73766820587E+02  0.00000000000E+00 0. -1.
          6    1    1    2  501    0  0.25190663505E+02 -0.24100357803E+02  0.29739558980E+03  0.34581575095E+03  0.17300000000E+03 0. -1.
         -6    1    1    2    0  502 -0.25190663505E+02  0.24100357803E+02  0.10755809829E+03  0.20667157831E+03  0.17300000000E+03 0.  1.
</event>
<event>
 4    1  0.6031777E+000  0.1000000E+03  0.7546771E-02  0.1280296E+00
         21   -1    0    0  503  502  0.00000000000E+00  0.00000000000E+00  0.23427171488E+04  0.23427171488E+04  0.00000000000E+00 0.  1.
         21   -1    0    0  501  503 -0.00000000000E+00 -0.00000000000E+00 -0.23388906975E+02  0.23388906975E+02  0.00000000000E+00 0. -1.
          6    1    1    2  501    0  0.61462973897E+02 -0.67735386404E+02  0.51048330183E+03  0.54670648540E+03  0.17300000000E+03 0. -1.
         -6    1    1    2    0  502 -0.61462973897E+02  0.67735386404E+02  0.18088449400E+04  0.18193995703E+04  0.17300000000E+03 0.  1.
</event>
<event>
 4    1  0.6031777E+000  0.1000000E+03  0.7546771E-02  0.1280296E+00
         21   -1    0    0  501  502  0.00000000000E+00  0.00000000000E+00  0.10018465739E+03  0.10018465739E+03  0.00000000000E+00 0.  1.
         21   -1    0    0  502  503 -0.00000000000E+00 -0.00000000000E+00 -0.10320210854E+04  0.10320210854E+04  0.00000000000E+00 0. -1.
          6    1    1    2  501    0  0.21706368879E+03  0.14509408803E+02 -0.18129241063E+03  0.33184801655E+03  0.17300000000E+03 0.  1.
         -6    1    1    2    0  503 -0.21706368879E+03 -0.14509408803E+02 -0.75054401735E+03  0.80035772622E+03  0.17300000000E+03 0. -1.
</event>
<event>
 4    1  0.6031777E+000  0.1000000E+03  0.7546771E-02  0.1280296E+00
         21   -1    0    0  501  502  0.00000000000E+00  0.00000000000E+00  0.37592599007E+03  0.37592599007E+03  0.00000000000E+00 0.  1.
         21   -1    0    0  502  503 -0.00000000000E+00 -0.00000000000E+00 -0.15096663046E+03  0.15096663046E+03  0.00000000000E+00 0.  1.
          6    1    1    2  501    0  0.11299394967E+03 -0.15603134300E+02  0.24244627105E+03  0.31893617670E+03  0.17300000000E+03 0.  1.
         -6    1    1    2    0  503 -0.11299394967E+03  0.15603134300E+02 -0.17486911433E+02  0.20795644383E+03  0.17300000000E+03 0.  1.
</event>
<event>
 4    1  0.6031777E+000  0.1000000E+03  0.7546771E-02  0.1280296E+00
         21   -1    0    0  501  502  0.00000000000E+00  0.00000000000E+00  0.72696442095E+02  0.72696442095E+02  0.00000000000E+00 0.  1.
         21   -1    0    0  502  503 -0.00000000000E+00 -0.00000000000E+00 -0.49416830007E+03  0.49416830007E+03  0.00000000000E+00 0.  1.
          6    1    1    2  501    0  0.71962003814E+02 -0.28309712249E+02 -0.20488524967E+03  0.27908230924E+03  0.17300000000E+03 0.  1.
         -6    1    1    2    0  503 -0.71962003814E+02  0.28309712249E+02 -0.21658660831E+03  0.28778243292E+03  0.17300000000E+03 0.  1.
</event>
<event>
 4    1  0.6031777E+000  0.1000000E+03  0.7546771E-02  0.1280296E+00
         21   -1    0    0  501  502  0.00000000000E+00  0.00000000000E+00  0.13845652662E+03  0.13845652662E+03  0.00000000000E+00 0.  1.
         21   -1    0    0  502  503 -0.00000000000E+00 -0.00000000000E+00 -0.37973283691E+03  0.37973283691E+03  0.00000000000E+00 0.  1.
          6    1    1    2  501    0 -0.14967117610E+03 -0.90437894307E+01 -0.13511921229E+03  0.26583726716E+03  0.17300000000E+03 0.  1.
         -6    1    1    2    0  503  0.14967117610E+03  0.90437894307E+01 -0.10615709801E+03  0.25235209637E+03  0.17300000000E+03 0.  1.
</event>
<event>
 4    1  0.6031777E+000  0.1000000E+03  0.7546771E-02  0.1280296E+00
         21   -1    0    0  501  502  0.00000000000E+00  0.00000000000E+00  0.14443183627E+04  0.14443183627E+04  0.00000000000E+00 0.  1.
         21   -1    0    0  502  503 -0.00000000000E+00 -0.00000000000E+00 -0.40878338060E+02  0.40878338060E+02  0.00000000000E+00 0.  1.
          6    1    1    2  501    0 -0.52001689408E+02  0.31161994041E+01  0.11982724232E+04  0.12118166886E+04  0.17300000000E+03 0.  1.
         -6    1    1    2    0  503  0.52001689408E+02 -0.31161994041E+01  0.20516760140E+03  0.27338001219E+03  0.17300000000E+03 0.  1.
</event>
<event>
 4    1  0.6031777E+000  0.1000000E+03  0.7546771E-02  0.1280296E+00
         21   -1    0    0  503  502  0.00000000000E+00  0.00000000000E+00  0.17450185876E+03  0.17450185876E+03  0.00000000000E+00 0.  1.
         21   -1    0    0  501  503 -0.00000000000E+00 -0.00000000000E+00 -0.11449016995E+04  0.11449016995E+04  0.00000000000E+00 0. -1.
          6    1    1    2  501    0 -0.19222767555E+03 -0.13322240997E+03 -0.98605497790E+03  0.10280725214E+04  0.17300000000E+03 0. -1.
         -6    1    1    2    0  502  0.19222767555E+03  0.13322240997E+03  0.15655137112E+02  0.29133103694E+03  0.17300000000E+03 0.  1.
</event>
<event>
 4    1  0.6031777E+000  0.1000000E+03  0.7546771E-02  0.1280296E+00
         21   -1    0    0  503  502  0.00000000000E+00  0.00000000000E+00  0.14652549446E+03  0.14652549446E+03  0.00000000000E+00 0.  1.
         21   -1    0    0  501  503 -0.00000000000E+00 -0.00000000000E+00 -0.43045857865E+03  0.43045857865E+03  0.00000000000E+00 0. -1.
          6    1    1    2  501    0  0.77028317000E+02 -0.15059342682E+03 -0.21930158782E+03  0.32654850825E+03  0.17300000000E+03 0. -1.
         -6    1    1    2    0  502 -0.77028317000E+02  0.15059342682E+03 -0.64631496370E+02  0.25043556486E+03  0.17300000000E+03 0.  1.
</event>
<event>
 4    1  0.6031777E+000  0.1000000E+03  0.7546771E-02  0.1280296E+00
         21   -1    0    0  501  502  0.00000000000E+00  0.00000000000E+00  0.10621675338E+04  0.10621675338E+04  0.00000000000E+00 0.  1.
         21   -1    0    0  502  503 -0.00000000000E+00 -0.00000000000E+00 -0.35074401592E+03  0.35074401592E+03  0.00000000000E+00 0. -1.
          6    1    1    2  501    0 -0.19416319434E+03 -0.16637271346E+02  0.99454790015E+03  0.10281199689E+04  0.17300000000E+03 0. -1.
         -6    1    1    2    0  503  0.19416319434E+03  0.16637271346E+02 -0.28312438225E+03  0.38479158081E+03  0.17300000000E+03 0. -1.
</event>
<event>
 4    1  0.6031777E+000  0.1000000E+03  0.7546771E-02  0.1280296E+00
         21   -1    0    0  501  502  0.00000000000E+00  0.00000000000E+00  0.22764517486E+02  0.22764517486E+02  0.00000000000E+00 0.  1.
         21   -1    0    0  502  503 -0.00000000000E+00 -0.00000000000E+00 -0.13933504451E+04  0.13933504451E+04  0.00000000000E+00 0. -1.
          6    1    1    2  501    0 -0.27148796844E+02  0.30475392853E+02 -0.72958969551E+03  0.75093004370E+03  0.17300000000E+03 0. -1.
         -6    1    1    2    0  503  0.27148796844E+02 -0.30475392853E+02 -0.64099623214E+03  0.66518491892E+03  0.17300000000E+03 0. -1.
</event>
<event>
 4    1  0.6031777E+000  0.1000000E+03  0.7546771E-02  0.1280296E+00
         21   -1    0    0  501  502  0.00000000000E+00  0.00000000000E+00  0.70112951705E+02  0.70112951705E+02  0.00000000000E+00 0.  1.
         21   -1    0    0  502  503 -0.00000000000E+00 -0.00000000000E+00 -0.58951817206E+03  0.58951817206E+03  0.00000000000E+00 0. -1.
          6    1    1    2  501    0 -0.55082086119E+02 -0.80062653362E+02 -0.18788537504E+03  0.27326539998E+03  0.17300000000E+03 0. -1.
         -6    1    1    2    0  503  0.55082086119E+02  0.80062653362E+02 -0.33151984532E+03  0.38636572378E+03  0.17300000000E+03 0. -1.
</event>
<event>
 4    1  0.6031777E+000  0.1000000E+03  0.7546771E-02  0.1280296E+00
         21   -1    0    0  503  502  0.00000000000E+00  0.00000000000E+00  0.39556918602E+03  0.39556918602E+03  0.00000000000E+00 0.  1.
         21   -1    0    0  501  503 -0.00000000000E+00 -0.00000000000E+00 -0.33907863989E+03  0.33907863989E+03  0.00000000000E+00 0.  1.
          6    1    1    2  501    0  0.12931088449E+03 -0.63723239252E+02 -0.26143433234E+03  0.34504907795E+03  0.17300000000E+03 0.  1.
         -6    1    1    2    0  502 -0.12931088449E+03  0.63723239252E+02  0.31792487847E+03  0.38959874797E+03  0.17300000000E+03 0.  1.
</event>
<event>
 4    1  0.6031777E+000  0.1000000E+03  0.7546771E-02  0.1280296E+00
         21   -1    0    0  503  502  0.00000000000E+00  0.00000000000E+00  0.11492857934E+04  0.11492857934E+04  0.00000000000E+00 0.  1.
         21   -1    0    0  501  503 -0.00000000000E+00 -0.00000000000E+00 -0.48543825740E+02  0.48543825740E+02  0.00000000000E+00 0.  1.
          6    1    1    2  501    0 -0.73850493005E+02  0.33006784833E+02  0.19794375581E+03  0.27505285606E+03  0.17300000000E+03 0.  1.
         -6    1    1    2    0  502  0.73850493005E+02 -0.33006784833E+02  0.90279821188E+03  0.92277676311E+03  0.17300000000E+03 0.  1.
</event>
<event>
 4    1  0.6031777E+000  0.1000000E+03  0.7546771E-02  0.1280296E+00
         21   -1    0    0  501  502  0.00000000000E+00  0.00000000000E+00  0.58031566523E+02  0.58031566523E+02  0.00000000000E+00 0.  1.
         21   -1    0    0  502  503 -0.00000000000E+00 -0.00000000000E+00 -0.56468870713E+03  0.56468870713E+03  0.00000000000E+00 0.  1.
          6    1    1    2  501    0 -0.43409571631E+02  0.25581915223E+02 -0.28321611341E+03  0.33567721428E+03  0.17300000000E+03 0. -1.
         -6    1    1    2    0  503  0.43409571631E+02 -0.25581915223E+02 -0.22344102719E+03  0.28704305936E+03  0.17300000000E+03 0. -1.
</event>
<event>
 4    1  0.6031777E+000  0.1000000E+03  0.7546771E-02  0.1280296E+00
         21   -1    0    0  501  502  0.00000000000E+00  0.00000000000E+00  0.11494760824E+03  0.11494760824E+03  0.00000000000E+00 0.  1.
         21   -1    0    0  502  503 -0.00000000000E+00 -0.00000000000E+00 -0.37012186968E+03  0.37012186968E+03  0.00000000000E+00 0.  1.
          6    1    1    2  501    0  0.79335634077E+01  0.54575964463E+02 -0.12533152372E+02  0.18200977236E+03  0.17300000000E+03 0.  1.
         -6    1    1    2    0  503 -0.79335634077E+01 -0.54575964463E+02 -0.24264110907E+03  0.30305970556E+03  0.17300000000E+03 0.  1.
</event>
<event>
 4    1  0.6031777E+000  0.1000000E+03  0.7546771E-02  0.1280296E+00
         21   -1    0    0  501  502  0.00000000000E+00  0.00000000000E+00  0.22761167567E+03  0.22761167567E+03  0.00000000000E+00 0.  1.
         21   -1    0    0  502  503 -0.00000000000E+00 -0.00000000000E+00 -0.61771753152E+03  0.61771753152E+03  0.00000000000E+00 0.  1.
          6    1    1    2  501    0 -0.16582420946E+02 -0.30522960941E+03 -0.47089548436E+02  0.35438187978E+03  0.17300000000E+03 0.  1.
         -6    1    1    2    0  503  0.16582420946E+02  0.30522960941E+03 -0.34301630741E+03  0.49094732741E+03  0.17300000000E+03 0.  1.
</event>
<event>
 4    1  0.6031777E+000  0.1000000E+03  0.7546771E-02  0.1280296E+00
         21   -1    0    0  501  502  0.00000000000E+00  0.00000000000E+00  0.77804473883E+03  0.77804473883E+03  0.00000000000E+00 0.  1.
         21   -1    0    0  502  503 -0.00000000000E+00 -0.00000000000E+00 -0.57905305035E+02  0.57905305035E+02  0.00000000000E+00 0.  1.
          6    1    1    2  501    0 -0.65379752786E+02  0.99493394985E+02  0.29936001188E+03  0.36567590081E+03  0.17300000000E+03 0.  1.
         -6    1    1    2    0  503  0.65379752786E+02 -0.99493394985E+02  0.42077942191E+03  0.47027414306E+03  0.17300000000E+03 0.  1.
</event>
<event>
 4    1  0.6031777E+000  0.1000000E+03  0.7546771E-02  0.1280296E+00
         21   -1    0    0  503  502  0.00000000000E+00  0.00000000000E+00  0.35736453164E+03  0.35736453164E+03  0.00000000000E+00 0. -1.
         21   -1    0    0  501  503 -0.00000000000E+00 -0.00000000000E+00 -0.14995924940E+03  0.14995924940E+03  0.00000000000E+00 0.  1.
          6    1    1    2  501    0  0.49900942580E+02  0.63925729234E+02 -0.39520827400E+02  0.19510894066E+03  0.17300000000E+03 0.  1.
         -6    1    1    2    0  502 -0.49900942580E+02 -0.63925729234E+02  0.24692610964E+03  0.31221484037E+03  0.17300000000E+03 0. -1.
</event>
<event>
 4    1  0.6031777E+000  0.1000000E+03  0.7546771E-02  0.1280296E+00
         21   -1    0    0  503  502  0.00000000000E+00  0.00000000000E+00  0.17658270555E+03  0.17658270555E+03  0.00000000000E+00 0. -1.
         21   -1    0    0  501  503 -0.00000000000E+00 -0.00000000000E+00 -0.23216215838E+04  0.23216215838E+04  0.00000000000E+00 0.  1.
          6    1    1    2  501    0  0.51748718554E+03 -0.12755466541E+02 -0.17256194375E+04  0.18098748940E+04  0.17300000000E+03 0.  1.
         -6    1    1    2    0  502 -0.51748718554E+03  0.12755466541E+02 -0.41941944077E+03  0.68832939529E+03  0.17300000000E+03 0. -1.
</event>
<event>
 4    1  0.6031777E+000  0.1000000E+03  0.7546771E-02  0.1280296E+00
         21   -1    0    0  503  502  0.00000000000E+00  0.00000000000E+00  0.81939386036E+02  0.81939386036E+02  0.00000000000E+00 0. -1.
         21   -1    0    0  501  503 -0.00000000000E+00 -0.00000000000E+00 -0.92767490551E+03  0.92767490551E+03  0.00000000000E+00 0.  1.
          6    1    1    2  501    0 -0.86622725493E+02  0.10318510297E+03 -0.72888333188E+03  0.76115082181E+03  0.17300000000E+03 0.  1.
         -6    1    1    2    0  502  0.86622725493E+02 -0.10318510297E+03 -0.11685218759E+03  0.24846346974E+03  0.17300000000E+03 0. -1.
</event>
<event>
 4    1  0.6031777E+000  0.1000000E+03  0.7546771E-02  0.1280296E+00
         21   -1    0    0  503  502  0.00000000000E+00  0.00000000000E+00  0.31970776918E+03  0.31970776918E+03  0.00000000000E+00 0. -1.
         21   -1    0    0  501  503 -0.00000000000E+00 -0.00000000000E+00 -0.28131019089E+03  0.28131019089E+03  0.00000000000E+00 0.  1.
          6    1    1    2  501    0  0.13936890140E+03 -0.53376385228E+02 -0.17545469004E+03  0.28807304184E+03  0.17300000000E+03 0.  1.
         -6    1    1    2    0  502 -0.13936890140E+03  0.53376385228E+02  0.21385226833E+03  0.31294491823E+03  0.17300000000E+03 0. -1.
</event>
<event>
 4    1  0.6031777E+000  0.1000000E+03  0.7546771E-02  0.1280296E+00
         21   -1    0    0  501  502  0.00000000000E+00  0.00000000000E+00  0.70568732861E+03  0.70568732861E+03  0.00000000000E+00 0.  1.
         21   -1    0    0  502  503 -0.00000000000E+00 -0.00000000000E+00 -0.11169298707E+03  0.11169298707E+03  0.00000000000E+00 0.  1.
          6    1    1    2  501    0  0.13363560527E+03  0.17052235852E+03  0.36136157783E+03  0.45546409264E+03  0.17300000000E+03 0.  1.
         -6    1    1    2    0  503 -0.13363560527E+03 -0.17052235852E+03  0.23263276371E+03  0.36191622304E+03  0.17300000000E+03 0.  1.
</event>
<event>
 4    1  0.6031777E+000  0.1000000E+03  0.7546771E-02  0.1280296E+00
         21   -1    0    0  501  502  0.00000000000E+00  0.00000000000E+00  0.66242939063E+03  0.66242939063E+03  0.00000000000E+00 0.  1.
         21   -1    0    0  502  503 -0.00000000000E+00 -0.00000000000E+00 -0.77391716525E+02  0.77391716525E+02  0.00000000000E+00 0.  1.
          6    1    1    2  501    0 -0.46619548687E+02 -0.76611485613E+02  0.48089299949E+03  0.51887356746E+03  0.17300000000E+03 0.  1.
         -6    1    1    2    0  503  0.46619548687E+02  0.76611485613E+02  0.10414467462E+03  0.22094753970E+03  0.17300000000E+03 0.  1.
</event>
<event>
 4    1  0.6031777E+000  0.1000000E+03  0.7546771E-02  0.1280296E+00
         21   -1    0    0  503  502  0.00000000000E+00  0.00000000000E+00  0.20552155904E+04  0.20552155904E+04  0.00000000000E+00 0.  1.
         21   -1    0    0  501  503 -0.00000000000E+00 -0.00000000000E+00 -0.13997936001E+03  0.13997936001E+03  0.00000000000E+00 0.  1.
          6    1    1    2  501    0  0.19975181992E+03  0.36118259352E+03  0.35262447318E+03  0.56976019035E+03  0.17300000000E+03 0.  1.
         -6    1    1    2    0  502 -0.19975181992E+03 -0.36118259352E+03  0.15626117572E+04  0.16254347600E+04  0.17300000000E+03 0.  1.
</event>
<event>
 4    1  0.6031777E+000  0.1000000E+03  0.7546771E-02  0.1280296E+00
         21   -1    0    0  503  502  0.00000000000E+00  0.00000000000E+00  0.23468375276E+03  0.23468375276E+03  0.00000000000E+00 0.  1.
         21   -1    0    0  501  503 -0.00000000000E+00 -0.00000000000E+00 -0.19221515523E+03  0.19221515523E+03  0.00000000000E+00 0.  1.
          6    1    1    2  501    0  0.82618124607E+02 -0.18478464617E+02 -0.68730502800E+02  0.20449960925E+03  0.17300000000E+03 0.  1.
         -6    1    1    2    0  502 -0.82618124607E+02  0.18478464617E+02  0.11119910033E+03  0.22239929874E+03  0.17300000000E+03 0.  1.
</event>
<event>
 4    1  0.6031777E+000  0.1000000E+03  0.7546771E-02  0.1280296E+00
         21   -1    0    0  503  502  0.00000000000E+00  0.00000000000E+00  0.16111630558E+03  0.16111630558E+03  0.00000000000E+00 0.  1.
         21   -1    0    0  501  503 -0.00000000000E+00 -0.00000000000E+00 -0.36498301296E+03  0.36498301296E+03  0.00000000000E+00 0.  1.
          6    1    1    2  501    0 -0.99981134857E+02  0.70847703605E+01 -0.25078329951E+03  0.32072992472E+03  0.17300000000E+03 0.  1.
         -6    1    1    2    0  502  0.99981134857E+02 -0.70847703605E+01  0.46916592128E+02  0.20536939381E+03  0.17300000000E+03 0.  1.
</event>
<event>
 4    1  0.6031777E+000  0.1000000E+03  0.7546771E-02  0.1280296E+00
         21   -1    0    0  503  502  0.00000000000E+00  0.00000000000E+00  0.30070557593E+03  0.30070557593E+03  0.00000000000E+00 0.  1.
         21   -1    0    0  501  503 -0.00000000000E+00 -0.00000000000E+00 -0.22019657151E+03  0.22019657151E+03  0.00000000000E+00 0.  1.
          6    1    1    2  501    0 -0.10642822439E+02  0.18899195810E+03  0.61823462627E+02  0.26378470469E+03  0.17300000000E+03 0.  1.
         -6    1    1    2    0  502  0.10642822439E+02 -0.18899195810E+03  0.18685541791E+02  0.25711744275E+03  0.17300000000E+03 0.  1.
</event>
<event>
 4    1  0.6031777E+000  0.1000000E+03  0.7546771E-02  0.1280296E+00
         21   -1    0    0  503  502  0.00000000000E+00  0.00000000000E+00  0.79529595350E+03  0.79529595350E+03  0.00000000000E+00 0.  1.
         21   -1    0    0  501  503 -0.00000000000E+00 -0.00000000000E+00 -0.99429865710E+02  0.99429865710E+02  0.00000000000E+00 0.  1.
          6    1    1    2  501    0  0.61868106876E+02 -0.38372244991E+02  0.14807841567E+02  0.18827735925E+03  0.17300000000E+03 0.  1.
         -6    1    1    2    0  502 -0.61868106876E+02  0.38372244991E+02  0.68105824622E+03  0.70644845996E+03  0.17300000000E+03 0.  1.
</event>
<event>
 4    1  0.6031777E+000  0.1000000E+03  0.7546771E-02  0.1280296E+00
         21   -1    0    0  503  502  0.00000000000E+00  0.00000000000E+00  0.92737446185E+02  0.92737446185E+02  0.00000000000E+00 0.  1.
         21   -1    0    0  501  503 -0.00000000000E+00 -0.00000000000E+00 -0.46596360142E+03  0.46596360142E+03  0.00000000000E+00 0.  1.
          6    1    1    2  501    0 -0.38736249503E+02  0.10574997221E+03 -0.15370363935E+03  0.25736620291E+03  0.17300000000E+03 0.  1.
         -6    1    1    2    0  502  0.38736249503E+02 -0.10574997221E+03 -0.21952251588E+03  0.30133484469E+03  0.17300000000E+03 0.  1.
</event>
<event>
 4    1  0.6031777E+000  0.1000000E+03  0.7546771E-02  0.1280296E+00
         21   -1    0    0  501  502  0.00000000000E+00  0.00000000000E+00  0.21455694995E+03  0.21455694995E+03  0.00000000000E+00 0.  1.
         21   -1    0    0  502  503 -0.00000000000E+00 -0.00000000000E+00 -0.30612295478E+03  0.30612295478E+03  0.00000000000E+00 0.  1.
          6    1    1    2  501    0 -0.29016593054E+02 -0.28766357550E+02  0.14175370685E+03  0.22736002156E+03  0.17300000000E+03 0.  1.
         -6    1    1    2    0  503  0.29016593054E+02  0.28766357550E+02 -0.23331971169E+03  0.29331988317E+03  0.17300000000E+03 0.  1.
</event>
<event>
 4    1  0.6031777E+000  0.1000000E+03  0.7546771E-02  0.1280296E+00
         21   -1    0    0  501  502  0.00000000000E+00  0.00000000000E+00  0.17198788218E+03  0.17198788218E+03  0.00000000000E+00 0.  1.
         21   -1    0    0  502  503 -0.00000000000E+00 -0.00000000000E+00 -0.22718591035E+03  0.22718591035E+03  0.00000000000E+00 0.  1.
          6    1    1    2  501    0 -0.61681371562E+02 -0.61915038294E+02  0.11586717611E+02  0.19416826618E+03  0.17300000000E+03 0.  1.
         -6    1    1    2    0  503  0.61681371562E+02  0.61915038294E+02 -0.66784745786E+02  0.20500552635E+03  0.17300000000E+03 0.  1.
</event>
<event>
 4    1  0.6031777E+000  0.1000000E+03  0.7546771E-02  0.1280296E+00
         21   -1    0    0  501  502  0.00000000000E+00  0.00000000000E+00  0.10637499253E+03  0.10637499253E+03  0.00000000000E+00 0.  1.
         21   -1    0    0  502  503 -0.00000000000E+00 -0.00000000000E+00 -0.53629090521E+03  0.53629090521E+03  0.00000000000E+00 0.  1.
          6    1    1    2  501    0  0.59962134188E+02  0.12497778024E+03 -0.95350079700E+02  0.24132041105E+03  0.17300000000E+03 0.  1.
         -6    1    1    2    0  503 -0.59962134188E+02 -0.12497778024E+03 -0.33456583298E+03  0.40134548669E+03  0.17300000000E+03 0.  1.
</event>
<event>
 4    1  0.6031777E+000  0.1000000E+03  0.7546771E-02  0.1280296E+00
         21   -1    0    0  501  502  0.00000000000E+00  0.00000000000E+00  0.60014794063E+02  0.60014794063E+02  0.00000000000E+00 0. -1.
         21   -1    0    0  502  503 -0.00000000000E+00 -0.00000000000E+00 -0.79666522511E+03  0.79666522511E+03  0.00000000000E+00 0.  1.
          6    1    1    2  501    0  0.84958117297E+02  0.28024802936E+02 -0.17361557487E+03  0.26091117092E+03  0.17300000000E+03 0.  1.
         -6    1    1    2    0  503 -0.84958117297E+02 -0.28024802936E+02 -0.56303485618E+03  0.59576884825E+03  0.17300000000E+03 0. -1.
</event>
<event>
 4    1  0.6031777E+000  0.1000000E+03  0.7546771E-02  0.1280296E+00
         21   -1    0    0  501  502  0.00000000000E+00  0.00000000000E+00  0.96293737032E+03  0.96293737032E+03  0.00000000000E+00 0. -1.
         21   -1    0    0  502  503 -0.00000000000E+00 -0.00000000000E+00 -0.51674327949E+02  0.51674327949E+02  0.00000000000E+00 0.  1.
          6    1    1    2  501    0  0.12518442172E+03 -0.39210943817E+02  0.33918978148E+03  0.40272490042E+03  0.17300000000E+03 0.  1.
         -6    1    1    2    0  503 -0.12518442172E+03  0.39210943817E+02  0.57207326089E+03  0.61188679785E+03  0.17300000000E+03 0. -1.
</event>
<event>
 4    1  0.6031777E+000  0.1000000E+03  0.7546771E-02  0.1280296E+00
         21   -1    0    0  503  502  0.00000000000E+00  0.00000000000E+00  0.13842495299E+03  0.13842495299E+03  0.00000000000E+00 0.  1.
         21   -1    0    0  501  503 -0.00000000000E+00 -0.00000000000E+00 -0.29699488321E+03  0.29699488321E+03  0.00000000000E+00 0. -1.
          6    1    1    2  501    0 -0.84355447892E+02  0.45587020524E+02 -0.31404576420E+02  0.20027297733E+03  0.17300000000E+03 0. -1.
         -6    1    1    2    0  502  0.84355447892E+02 -0.45587020524E+02 -0.12716535379E+03  0.23514685887E+03  0.17300000000E+03 0.  1.
</event>
<event>
 4    1  0.6031777E+000  0.1000000E+03  0.7546771E-02  0.1280296E+00
         21   -1    0    0  501  502  0.00000000000E+00  0.00000000000E+00  0.29416464281E+03  0.29416464281E+03  0.00000000000E+00 0.  1.
         21   -1    0    0  502  503 -0.00000000000E+00 -0.00000000000E+00 -0.16920283434E+03  0.16920283434E+03  0.00000000000E+00 0.  1.
          6    1    1    2  501    0  0.82991058630E+02  0.69814497158E+02  0.15584511105E+03  0.25686237261E+03  0.17300000000E+03 0.  1.
         -6    1    1    2    0  503 -0.82991058630E+02 -0.69814497158E+02 -0.30883302575E+02  0.20650510455E+03  0.17300000000E+03 0.  1.
</event>
<event>
 4    1  0.6031777E+000  0.1000000E+03  0.7546771E-02  0.1280296E+00
         21   -1    0    0  501  502  0.00000000000E+00  0.00000000000E+00  0.36780360774E+03  0.36780360774E+03  0.00000000000E+00 0.  1.
         21   -1    0    0  502  503 -0.00000000000E+00 -0.00000000000E+00 -0.28425752897E+03  0.28425752897E+03  0.00000000000E+00 0.  1.
          6    1    1    2  501    0  0.13453397578E+03 -0.35613729471E+02  0.27878870524E+03  0.35639847157E+03  0.17300000000E+03 0.  1.
         -6    1    1    2    0  503 -0.13453397578E+03  0.35613729471E+02 -0.19524262647E+03  0.29566266514E+03  0.17300000000E+03 0.  1.
</event>
<event>
 4    1  0.6031777E+000  0.1000000E+03  0.7546771E-02  0.1280296E+00
         21   -1    0    0  501  502  0.00000000000E+00  0.00000000000E+00  0.44528068517E+03  0.44528068517E+03  0.00000000000E+00 0.  1.
         21   -1    0    0  502  503 -0.00000000000E+00 -0.00000000000E+00 -0.68972987777E+02  0.68972987777E+02  0.00000000000E+00 0.  1.
          6    1    1    2  501    0 -0.16627100894E+01  0.27050199690E+02  0.17789795104E+03  0.24962203206E+03  0.17300000000E+03 0.  1.
         -6    1    1    2    0  503  0.16627100894E+01 -0.27050199690E+02  0.19840974635E+03  0.26463164088E+03  0.17300000000E+03 0.  1.
</event>
<event>
 4    1  0.6031777E+000  0.1000000E+03  0.7546771E-02  0.1280296E+00
         21   -1    0    0  501  502  0.00000000000E+00  0.00000000000E+00  0.49137131032E+03  0.49137131032E+03  0.00000000000E+00 0.  1.
         21   -1    0    0  502  503 -0.00000000000E+00 -0.00000000000E+00 -0.33156483073E+03  0.33156483073E+03  0.00000000000E+00 0.  1.
          6    1    1    2  501    0  0.25762057541E+03 -0.23922884944E+03 -0.18898369056E+02  0.39228172483E+03  0.17300000000E+03 0.  1.
         -6    1    1    2    0  503 -0.25762057541E+03  0.23922884944E+03  0.17870484865E+03  0.43065441622E+03  0.17300000000E+03 0.  1.
</event>
<event>
 4    1  0.6031777E+000  0.1000000E+03  0.7546771E-02  0.1280296E+00
         21   -1    0    0  501  502  0.00000000000E+00  0.00000000000E+00  0.11604161558E+04  0.11604161558E+04  0.00000000000E+00 0.  1.
         21   -1    0    0  502  503 -0.00000000000E+00 -0.00000000000E+00 -0.44401625905E+02  0.44401625905E+02  0.00000000000E+00 0.  1.
          6    1    1    2  501    0 -0.23245436035E+01 -0.95504117178E+02  0.85435358886E+03  0.87691247836E+03  0.17300000000E+03 0.  1.
         -6    1    1    2    0  503  0.23245436035E+01  0.95504117178E+02  0.26166094104E+03  0.32790530335E+03  0.17300000000E+03 0.  1.
</event>
<event>
 4    1  0.6031777E+000  0.1000000E+03  0.7546771E-02  0.1280296E+00
         21   -1    0    0  501  502  0.00000000000E+00  0.00000000000E+00  0.45532041547E+03  0.45532041547E+03  0.00000000000E+00 0.  1.
         21   -1    0    0  502  503 -0.00000000000E+00 -0.00000000000E+00 -0.10573719909E+03  0.10573719909E+03  0.00000000000E+00 0.  1.
          6    1    1    2  501    0 -0.93930070676E+02 -0.20148111468E+01  0.29867141296E+03  0.35771571193E+03  0.17300000000E+03 0.  1.
         -6    1    1    2    0  503  0.93930070676E+02  0.20148111468E+01  0.50911803416E+02  0.20334190264E+03  0.17300000000E+03 0.  1.
</event>
<event>
 4    1  0.6031777E+000  0.1000000E+03  0.7546771E-02  0.1280296E+00
         21   -1    0    0  501  502  0.00000000000E+00  0.00000000000E+00  0.56013845682E+03  0.56013845682E+03  0.00000000000E+00 0.  1.
         21   -1    0    0  502  503 -0.00000000000E+00 -0.00000000000E+00 -0.36818400866E+03  0.36818400866E+03  0.00000000000E+00 0.  1.
          6    1    1    2  501    0  0.17730121378E+02 -0.35006338502E+03  0.33226839668E+03  0.51302048514E+03  0.17300000000E+03 0.  1.
         -6    1    1    2    0  503 -0.17730121378E+02  0.35006338502E+03 -0.14031394852E+03  0.41530198035E+03  0.17300000000E+03 0.  1.
</event>
<event>
 4    1  0.6031777E+000  0.1000000E+03  0.7546771E-02  0.1280296E+00
         21   -1    0    0  503  502  0.00000000000E+00  0.00000000000E+00  0.11709827752E+03  0.11709827752E+03  0.00000000000E+00 0. -1.
         21   -1    0    0  501  503 -0.00000000000E+00 -0.00000000000E+00 -0.37943819422E+03  0.37943819422E+03  0.00000000000E+00 0.  1.
          6    1    1    2  501    0  0.44712792150E+02 -0.39775091905E+02 -0.25425687702E+03  0.31329993813E+03  0.17300000000E+03 0.  1.
         -6    1    1    2    0  502 -0.44712792150E+02  0.39775091905E+02 -0.80830396799E+01  0.18323653361E+03  0.17300000000E+03 0.  1.
</event>
<event>
 4    1  0.6031777E+000  0.1000000E+03  0.7546771E-02  0.1280296E+00
         21   -1    0    0  503  502  0.00000000000E+00  0.00000000000E+00  0.40881609990E+03  0.40881609990E+03  0.00000000000E+00 0. -1.
         21   -1    0    0  501  503 -0.00000000000E+00 -0.00000000000E+00 -0.13870485518E+03  0.13870485518E+03  0.00000000000E+00 0.  1.
          6    1    1    2  501    0 -0.11242843535E+03 -0.11693119042E+03  0.15978543305E+03  0.28596055844E+03  0.17300000000E+03 0.  1.
         -6    1    1    2    0  502  0.11242843535E+03  0.11693119042E+03  0.11032581167E+03  0.26156039664E+03  0.17300000000E+03 0.  1.
</event>
<event>
 4    1  0.6031777E+000  0.1000000E+03  0.7546771E-02  0.1280296E+00
         21   -1    0    0  503  502  0.00000000000E+00  0.00000000000E+00  0.19047381623E+03  0.19047381623E+03  0.00000000000E+00 0. -1.
         21   -1    0    0  501  503 -0.00000000000E+00 -0.00000000000E+00 -0.19620937495E+03  0.19620937495E+03  0.00000000000E+00 0.  1.
          6    1    1    2  501    0 -0.79375826772E+02 -0.32793150316E+02  0.53693786250E+01  0.19321941623E+03  0.17300000000E+03 0.  1.
         -6    1    1    2    0  502  0.79375826772E+02  0.32793150316E+02 -0.11104937347E+02  0.19346377495E+03  0.17300000000E+03 0.  1.
</event>
<event>
 4    1  0.6031777E+000  0.1000000E+03  0.7546771E-02  0.1280296E+00
         21   -1    0    0  501  502  0.00000000000E+00  0.00000000000E+00  0.78263505067E+02  0.78263505067E+02  0.00000000000E+00 0.  1.
         21   -1    0    0  502  503 -0.00000000000E+00 -0.00000000000E+00 -0.12884915278E+04  0.12884915278E+04  0.00000000000E+00 0.  1.
          6    1    1    2  501    0 -0.13699519299E+02  0.36770395156E+01 -0.32864026978E+02  0.17666420610E+03  0.17300000000E+03 0.  1.
         -6    1    1    2    0  503  0.13699519299E+02 -0.36770395156E+01 -0.11773639958E+04  0.11900908268E+04  0.17300000000E+03 0.  1.
</event>
<event>
 4    1  0.6031777E+000  0.1000000E+03  0.7546771E-02  0.1280296E+00
         21   -1    0    0  501  502  0.00000000000E+00  0.00000000000E+00  0.35006602967E+03  0.35006602967E+03  0.00000000000E+00 0.  1.
         21   -1    0    0  502  503 -0.00000000000E+00 -0.00000000000E+00 -0.22357354068E+03  0.22357354068E+03  0.00000000000E+00 0.  1.
          6    1    1    2  501    0 -0.10009896978E+03 -0.19052943925E+03  0.17222037909E+02  0.27667104937E+03  0.17300000000E+03 0.  1.
         -6    1    1    2    0  503  0.10009896978E+03  0.19052943925E+03  0.10927045108E+03  0.29696852097E+03  0.17300000000E+03 0.  1.
</event>
<event>
 4    1  0.6031777E+000  0.1000000E+03  0.7546771E-02  0.1280296E+00
         21   -1    0    0  501  502  0.00000000000E+00  0.00000000000E+00  0.10841489677E+03  0.10841489677E+03  0.00000000000E+00 0.  1.
         21   -1    0    0  502  503 -0.00000000000E+00 -0.00000000000E+00 -0.48687074229E+03  0.48687074229E+03  0.00000000000E+00 0.  1.
          6    1    1    2  501    0 -0.38406961775E+02  0.14564811211E+03 -0.17250748327E+03  0.28701271584E+03  0.17300000000E+03 0.  1.
         -6    1    1    2    0  503  0.38406961775E+02 -0.14564811211E+03 -0.20594836226E+03  0.30827292322E+03  0.17300000000E+03 0.  1.
</event>
<event>
 4    1  0.6031777E+000  0.1000000E+03  0.7546771E-02  0.1280296E+00
         21   -1    0    0  501  502  0.00000000000E+00  0.00000000000E+00  0.59596923556E+02  0.59596923556E+02  0.00000000000E+00 0.  1.
         21   -1    0    0  502  503 -0.00000000000E+00 -0.00000000000E+00 -0.11955757319E+04  0.11955757319E+04  0.00000000000E+00 0.  1.
          6    1    1    2  501    0  0.85178163773E+02 -0.16870197022E+03 -0.74405540751E+03  0.78693273143E+03  0.17300000000E+03 0.  1.
         -6    1    1    2    0  503 -0.85178163773E+02  0.16870197022E+03 -0.39192340086E+03  0.46823992406E+03  0.17300000000E+03 0.  1.
</event>
<event>
 4    1  0.6031777E+000  0.1000000E+03  0.7546771E-02  0.1280296E+00
         21   -1    0    0  503  502  0.00000000000E+00  0.00000000000E+00  0.28386045613E+03  0.28386045613E+03  0.00000000000E+00 0.  1.
         21   -1    0    0  501  503 -0.00000000000E+00 -0.00000000000E+00 -0.19870674825E+04  0.19870674825E+04  0.00000000000E+00 0.  1.
          6    1    1    2  501    0  0.32589645625E+03  0.76277500771E+02 -0.18338472197E+04  0.18721515384E+04  0.17300000000E+03 0.  1.
         -6    1    1    2    0  502 -0.32589645625E+03 -0.76277500771E+02  0.13064019332E+03  0.39877640030E+03  0.17300000000E+03 0.  1.
</event>
<event>
 4    1  0.6031777E+000  0.1000000E+03  0.7546771E-02  0.1280296E+00
         21   -1    0    0  503  502  0.00000000000E+00  0.00000000000E+00  0.13139031453E+04  0.13139031453E+04  0.00000000000E+00 0.  1.
         21   -1    0    0  501  503 -0.00000000000E+00 -0.00000000000E+00 -0.92677009800E+02  0.92677009800E+02  0.00000000000E+00 0.  1.
          6    1    1    2  501    0  0.14274411007E+03 -0.13678959896E+03  0.14771254710E+03  0.30138890476E+03  0.17300000000E+03 0.  1.
         -6    1    1    2    0  502 -0.14274411007E+03  0.13678959896E+03  0.10735135884E+04  0.11051912503E+04  0.17300000000E+03 0.  1.
</event>
<event>
 4    1  0.6031777E+000  0.1000000E+03  0.7546771E-02  0.1280296E+00
         21   -1    0    0  503  502  0.00000000000E+00  0.00000000000E+00  0.14767909121E+04  0.14767909121E+04  0.00000000000E+00 0.  1.
         21   -1    0    0  501  503 -0.00000000000E+00 -0.00000000000E+00 -0.73262207340E+02  0.73262207340E+02  0.00000000000E+00 0.  1.
          6    1    1    2  501    0  0.21555859032E+02 -0.30175788306E+01  0.44591631371E+02  0.17997548285E+03  0.17300000000E+03 0.  1.
         -6    1    1    2    0  502 -0.21555859032E+02  0.30175788306E+01  0.13589370734E+04  0.13700776366E+04  0.17300000000E+03 0.  1.
</event>
<event>
 4    1  0.6031777E+000  0.1000000E+03  0.7546771E-02  0.1280296E+00
         21   -1    0    0  503  502  0.00000000000E+00  0.00000000000E+00  0.44190806720E+03  0.44190806720E+03  0.00000000000E+00 0. -1.
         21   -1    0    0  501  503 -0.00000000000E+00 -0.00000000000E+00 -0.85405618791E+02  0.85405618791E+02  0.00000000000E+00 0.  1.
          6    1    1    2  501    0  0.34191363857E+02 -0.75806385714E+02  0.21889288755E+03  0.29113356676E+03  0.17300000000E+03 0.  1.
         -6    1    1    2    0  502 -0.34191363857E+02  0.75806385714E+02  0.13760956086E+03  0.23618011922E+03  0.17300000000E+03 0. -1.
</event>
<event>
 4    1  0.6031777E+000  0.1000000E+03  0.7546771E-02  0.1280296E+00
         21   -1    0    0  503  502  0.00000000000E+00  0.00000000000E+00  0.93768848498E+03  0.93768848498E+03  0.00000000000E+00 0. -1.
         21   -1    0    0  501  503 -0.00000000000E+00 -0.00000000000E+00 -0.56935071946E+02  0.56935071946E+02  0.00000000000E+00 0.  1.
          6    1    1    2  501    0 -0.58481928478E+02 -0.13684199988E+03  0.36240124990E+03  0.42826339421E+03  0.17300000000E+03 0.  1.
         -6    1    1    2    0  502  0.58481928478E+02  0.13684199988E+03  0.51835216314E+03  0.56636016272E+03  0.17300000000E+03 0. -1.
</event>
<event>
 4    1  0.6031777E+000  0.1000000E+03  0.7546771E-02  0.1280296E+00
         21   -1    0    0  503  502  0.00000000000E+00  0.00000000000E+00  0.68071337952E+02  0.68071337952E+02  0.00000000000E+00 0. -1.
         21   -1    0    0  501  503 -0.00000000000E+00 -0.00000000000E+00 -0.14128271596E+04  0.14128271596E+04  0.00000000000E+00 0.  1.
          6    1    1    2  501    0  0.14965056547E+03 -0.20713827183E+03 -0.74567802092E+03  0.80701069775E+03  0.17300000000E+03 0.  1.
         -6    1    1    2    0  502 -0.14965056547E+03  0.20713827183E+03 -0.59907780078E+03  0.67388779985E+03  0.17300000000E+03 0. -1.
</event>
<event>
 4    1  0.6031777E+000  0.1000000E+03  0.7546771E-02  0.1280296E+00
         21   -1    0    0  503  502  0.00000000000E+00  0.00000000000E+00  0.22336276083E+02  0.22336276083E+02  0.00000000000E+00 0. -1.
         21   -1    0    0  501  503 -0.00000000000E+00 -0.00000000000E+00 -0.22077124361E+04  0.22077124361E+04  0.00000000000E+00 0.  1.
          6    1    1    2  501    0 -0.59043577949E+02 -0.12504531123E+03 -0.11737459825E+04  0.11944584988E+04  0.17300000000E+03 0.  1.
         -6    1    1    2    0  502  0.59043577949E+02  0.12504531123E+03 -0.10116301775E+04  0.10355902134E+04  0.17300000000E+03 0. -1.
</event>
<event>
 4    1  0.6031777E+000  0.1000000E+03  0.7546771E-02  0.1280296E+00
         21   -1    0    0  503  502  0.00000000000E+00  0.00000000000E+00  0.10287758027E+03  0.10287758027E+03  0.00000000000E+00 0. -1.
         21   -1    0    0  501  503 -0.00000000000E+00 -0.00000000000E+00 -0.10684842751E+04  0.10684842751E+04  0.00000000000E+00 0.  1.
          6    1    1    2  501    0  0.25332350606E+03  0.12578058452E+03 -0.48152629996E+03  0.58462819955E+03  0.17300000000E+03 0.  1.
         -6    1    1    2    0  502 -0.25332350606E+03 -0.12578058452E+03 -0.48408039488E+03  0.58673365582E+03  0.17300000000E+03 0. -1.
</event>
<event>
 4    1  0.6031777E+000  0.1000000E+03  0.7546771E-02  0.1280296E+00
         21   -1    0    0  503  502  0.00000000000E+00  0.00000000000E+00  0.83281300680E+03  0.83281300680E+03  0.00000000000E+00 0.  1.
         21   -1    0    0  501  503 -0.00000000000E+00 -0.00000000000E+00 -0.11826886032E+03  0.11826886032E+03  0.00000000000E+00 0. -1.
          6    1    1    2  501    0 -0.17880618727E+03 -0.25252471713E+02  0.69946867275E+02  0.25967461211E+03  0.17300000000E+03 0. -1.
         -6    1    1    2    0  502  0.17880618727E+03  0.25252471713E+02  0.64459727920E+03  0.69140725501E+03  0.17300000000E+03 0.  1.
</event>
<event>
 4    1  0.6031777E+000  0.1000000E+03  0.7546771E-02  0.1280296E+00
         21   -1    0    0  503  502  0.00000000000E+00  0.00000000000E+00  0.37615225970E+02  0.37615225970E+02  0.00000000000E+00 0.  1.
         21   -1    0    0  501  503 -0.00000000000E+00 -0.00000000000E+00 -0.19929323400E+04  0.19929323400E+04  0.00000000000E+00 0.  1.
          6    1    1    2  501    0 -0.78222573979E+02  0.99292287972E+01 -0.17082472983E+04  0.17187946919E+04  0.17300000000E+03 0.  1.
         -6    1    1    2    0  502  0.78222573979E+02 -0.99292287972E+01 -0.24706981575E+03  0.31175287411E+03  0.17300000000E+03 0.  1.
</event>
<event>
 4    1  0.6031777E+000  0.1000000E+03  0.7546771E-02  0.1280296E+00
         21   -1    0    0  503  502  0.00000000000E+00  0.00000000000E+00  0.10344218341E+03  0.10344218341E+03  0.00000000000E+00 0.  1.
         21   -1    0    0  501  503 -0.00000000000E+00 -0.00000000000E+00 -0.14887929973E+04  0.14887929973E+04  0.00000000000E+00 0.  1.
          6    1    1    2  501    0  0.17899469953E+03  0.78518074380E+02 -0.12871509550E+04  0.13133509704E+04  0.17300000000E+03 0.  1.
         -6    1    1    2    0  502 -0.17899469953E+03 -0.78518074380E+02 -0.98199858853E+02  0.27888421028E+03  0.17300000000E+03 0.  1.
</event>
<event>
 4    1  0.6031777E+000  0.1000000E+03  0.7546771E-02  0.1280296E+00
         21   -1    0    0  503  502  0.00000000000E+00  0.00000000000E+00  0.23767591439E+03  0.23767591439E+03  0.00000000000E+00 0.  1.
         21   -1    0    0  501  503 -0.00000000000E+00 -0.00000000000E+00 -0.27197241226E+03  0.27197241226E+03  0.00000000000E+00 0.  1.
          6    1    1    2  501    0 -0.17942597804E+01  0.17977844057E+03  0.31837990282E+02  0.25152766187E+03  0.17300000000E+03 0.  1.
         -6    1    1    2    0  502  0.17942597804E+01 -0.17977844057E+03 -0.66134488153E+02  0.25812066478E+03  0.17300000000E+03 0.  1.
</event>
<event>
 4    1  0.6031777E+000  0.1000000E+03  0.7546771E-02  0.1280296E+00
         21   -1    0    0  503  502  0.00000000000E+00  0.00000000000E+00  0.56349508802E+03  0.56349508802E+03  0.00000000000E+00 0.  1.
         21   -1    0    0  501  503 -0.00000000000E+00 -0.00000000000E+00 -0.87189697061E+03  0.87189697061E+03  0.00000000000E+00 0. -1.
          6    1    1    2  501    0  0.68638302738E+01 -0.66311627097E+02 -0.84633581149E+03  0.86640501491E+03  0.17300000000E+03 0. -1.
         -6    1    1    2    0  502 -0.68638302738E+01  0.66311627097E+02  0.53793392890E+03  0.56898704372E+03  0.17300000000E+03 0.  1.
</event>
<event>
 4    1  0.6031777E+000  0.1000000E+03  0.7546771E-02  0.1280296E+00
         21   -1    0    0  503  502  0.00000000000E+00  0.00000000000E+00  0.28172968515E+03  0.28172968515E+03  0.00000000000E+00 0.  1.
         21   -1    0    0  501  503 -0.00000000000E+00 -0.00000000000E+00 -0.13979079933E+03  0.13979079933E+03  0.00000000000E+00 0. -1.
          6    1    1    2  501    0  0.79098042988E+02 -0.44450445138E+02  0.33846144938E+02  0.19825968830E+03  0.17300000000E+03 0. -1.
         -6    1    1    2    0  502 -0.79098042988E+02  0.44450445138E+02  0.10809274089E+03  0.22326079618E+03  0.17300000000E+03 0.  1.
</event>
<event>
 4    1  0.6031777E+000  0.1000000E+03  0.7546771E-02  0.1280296E+00
         21   -1    0    0  501  502  0.00000000000E+00  0.00000000000E+00  0.13309345950E+04  0.13309345950E+04  0.00000000000E+00 0. -1.
         21   -1    0    0  502  503 -0.00000000000E+00 -0.00000000000E+00 -0.24617653907E+02  0.24617653907E+02  0.00000000000E+00 0. -1.
          6    1    1    2  501    0  0.31052712773E+02  0.34241585874E+02  0.55418032974E+03  0.58239299021E+03  0.17300000000E+03 0. -1.
         -6    1    1    2    0  503 -0.31052712773E+02 -0.34241585874E+02  0.75213661135E+03  0.77315925869E+03  0.17300000000E+03 0. -1.
</event>
<event>
 4    1  0.6031777E+000  0.1000000E+03  0.7546771E-02  0.1280296E+00
         21   -1    0    0  501  502  0.00000000000E+00  0.00000000000E+00  0.13301888861E+03  0.13301888861E+03  0.00000000000E+00 0. -1.
         21   -1    0    0  502  503 -0.00000000000E+00 -0.00000000000E+00 -0.13829449195E+04  0.13829449195E+04  0.00000000000E+00 0. -1.
          6    1    1    2  501    0  0.18060006656E+03  0.21237692771E+03 -0.13677618190E+03  0.35546739288E+03  0.17300000000E+03 0. -1.
         -6    1    1    2    0  503 -0.18060006656E+03 -0.21237692771E+03 -0.11131498490E+04  0.11604964152E+04  0.17300000000E+03 0. -1.
</event>
<event>
 4    1  0.6031777E+000  0.1000000E+03  0.7546771E-02  0.1280296E+00
         21   -1    0    0  501  502  0.00000000000E+00  0.00000000000E+00  0.36541314916E+02  0.36541314916E+02  0.00000000000E+00 0.  1.
         21   -1    0    0  502  503 -0.00000000000E+00 -0.00000000000E+00 -0.16568766805E+04  0.16568766805E+04  0.00000000000E+00 0.  1.
          6    1    1    2  501    0 -0.16098013512E+03  0.10421113271E+02 -0.10433575704E+04  0.10698351383E+04  0.17300000000E+03 0.  1.
         -6    1    1    2    0  503  0.16098013512E+03 -0.10421113271E+02 -0.57697779517E+03  0.62358285706E+03  0.17300000000E+03 0.  1.
</event>
<event>
 4    1  0.6031777E+000  0.1000000E+03  0.7546771E-02  0.1280296E+00
         21   -1    0    0  501  502  0.00000000000E+00  0.00000000000E+00  0.93005449523E+03  0.93005449523E+03  0.00000000000E+00 0.  1.
         21   -1    0    0  502  503 -0.00000000000E+00 -0.00000000000E+00 -0.53317539427E+02  0.53317539427E+02  0.00000000000E+00 0.  1.
          6    1    1    2  501    0 -0.55004071324E+02 -0.10339700615E+03  0.60858245070E+03  0.64344229581E+03  0.17300000000E+03 0.  1.
         -6    1    1    2    0  503  0.55004071324E+02  0.10339700615E+03  0.26815450510E+03  0.33992973884E+03  0.17300000000E+03 0.  1.
</event>
<event>
 4    1  0.6031777E+000  0.1000000E+03  0.7546771E-02  0.1280296E+00
         21   -1    0    0  501  502  0.00000000000E+00  0.00000000000E+00  0.10950121391E+03  0.10950121391E+03  0.00000000000E+00 0. -1.
         21   -1    0    0  502  503 -0.00000000000E+00 -0.00000000000E+00 -0.42694651857E+03  0.42694651857E+03  0.00000000000E+00 0. -1.
          6    1    1    2  501    0 -0.10168170688E+03  0.64058847875E+02 -0.98210848011E+02  0.23241573994E+03  0.17300000000E+03 0. -1.
         -6    1    1    2    0  503  0.10168170688E+03 -0.64058847875E+02 -0.21923445665E+03  0.30403199254E+03  0.17300000000E+03 0. -1.
</event>
<event>
 4    1  0.6031777E+000  0.1000000E+03  0.7546771E-02  0.1280296E+00
         21   -1    0    0  503  502  0.00000000000E+00  0.00000000000E+00  0.16738832064E+03  0.16738832064E+03  0.00000000000E+00 0.  1.
         21   -1    0    0  501  503 -0.00000000000E+00 -0.00000000000E+00 -0.26410654169E+03  0.26410654169E+03  0.00000000000E+00 0.  1.
          6    1    1    2  501    0 -0.10086489223E+03 -0.63923407509E+02 -0.52881210468E+02  0.21676104570E+03  0.17300000000E+03 0.  1.
         -6    1    1    2    0  502  0.10086489223E+03  0.63923407509E+02 -0.43837010576E+02  0.21473381664E+03  0.17300000000E+03 0.  1.
</event>
<event>
 4    1  0.6031777E+000  0.1000000E+03  0.7546771E-02  0.1280296E+00
         21   -1    0    0  503  502  0.00000000000E+00  0.00000000000E+00  0.19196009433E+03  0.19196009433E+03  0.00000000000E+00 0.  1.
         21   -1    0    0  501  503 -0.00000000000E+00 -0.00000000000E+00 -0.43926853483E+03  0.43926853483E+03  0.00000000000E+00 0.  1.
          6    1    1    2  501    0 -0.85203638336E+02 -0.20921359187E+03 -0.60623490271E+02  0.29091956720E+03  0.17300000000E+03 0.  1.
         -6    1    1    2    0  502  0.85203638336E+02  0.20921359187E+03 -0.18668495024E+03  0.34030906196E+03  0.17300000000E+03 0.  1.
</event>
<event>
 4    1  0.6031777E+000  0.1000000E+03  0.7546771E-02  0.1280296E+00
         21   -1    0    0  503  502  0.00000000000E+00  0.00000000000E+00  0.22155645009E+03  0.22155645009E+03  0.00000000000E+00 0.  1.
         21   -1    0    0  501  503 -0.00000000000E+00 -0.00000000000E+00 -0.45083160497E+03  0.45083160497E+03  0.00000000000E+00 0.  1.
          6    1    1    2  501    0  0.14941540450E+03  0.75005399234E+02 -0.33265463624E+03  0.41053487066E+03  0.17300000000E+03 0.  1.
         -6    1    1    2    0  502 -0.14941540450E+03 -0.75005399234E+02  0.10337948136E+03  0.26185318441E+03  0.17300000000E+03 0.  1.
</event>
<event>
 4    1  0.6031777E+000  0.1000000E+03  0.7546771E-02  0.1280296E+00
         21   -1    0    0  503  502  0.00000000000E+00  0.00000000000E+00  0.65030228545E+03  0.65030228545E+03  0.00000000000E+00 0.  1.
         21   -1    0    0  501  503 -0.00000000000E+00 -0.00000000000E+00 -0.54489615909E+02  0.54489615909E+02  0.00000000000E+00 0.  1.
          6    1    1    2  501    0 -0.28927689673E+01  0.68196684051E+02  0.24343766246E+03  0.30634955742E+03  0.17300000000E+03 0.  1.
         -6    1    1    2    0  502  0.28927689673E+01 -0.68196684051E+02  0.35237500708E+03  0.39844234394E+03  0.17300000000E+03 0.  1.
</event>
<event>
 4    1  0.6031777E+000  0.1000000E+03  0.7546771E-02  0.1280296E+00
         21   -1    0    0  501  502  0.00000000000E+00  0.00000000000E+00  0.46043635477E+02  0.46043635477E+02  0.00000000000E+00 0.  1.
         21   -1    0    0  502  503 -0.00000000000E+00 -0.00000000000E+00 -0.14100951831E+04  0.14100951831E+04  0.00000000000E+00 0.  1.
          6    1    1    2  501    0 -0.12555484507E+03  0.76671496567E+02 -0.35182697721E+03  0.41875262316E+03  0.17300000000E+03 0.  1.
         -6    1    1    2    0  503  0.12555484507E+03 -0.76671496567E+02 -0.10122245704E+04  0.10373861954E+04  0.17300000000E+03 0.  1.
</event>
<event>
 4    1  0.6031777E+000  0.1000000E+03  0.7546771E-02  0.1280296E+00
         21   -1    0    0  501  502  0.00000000000E+00  0.00000000000E+00  0.80339140961E+03  0.80339140961E+03  0.00000000000E+00 0.  1.
         21   -1    0    0  502  503 -0.00000000000E+00 -0.00000000000E+00 -0.45544233868E+02  0.45544233868E+02  0.00000000000E+00 0.  1.
          6    1    1    2  501    0  0.66865451224E+01  0.33819930437E+02  0.21476962918E+03  0.27792713290E+03  0.17300000000E+03 0.  1.
         -6    1    1    2    0  503 -0.66865451224E+01 -0.33819930437E+02  0.54307754656E+03  0.57100851058E+03  0.17300000000E+03 0.  1.
</event>
<event>
 4    1  0.6031777E+000  0.1000000E+03  0.7546771E-02  0.1280296E+00
         21   -1    0    0  503  502  0.00000000000E+00  0.00000000000E+00  0.47383717366E+03  0.47383717366E+03  0.00000000000E+00 0. -1.
         21   -1    0    0  501  503 -0.00000000000E+00 -0.00000000000E+00 -0.19731006963E+03  0.19731006963E+03  0.00000000000E+00 0.  1.
          6    1    1    2  501    0  0.24384350020E+02  0.18979412460E+02 -0.13634693415E+03  0.22242819308E+03  0.17300000000E+03 0.  1.
         -6    1    1    2    0  502 -0.24384350020E+02 -0.18979412460E+02  0.41287403817E+03  0.44871905021E+03  0.17300000000E+03 0. -1.
</event>
<event>
 4    1  0.6031777E+000  0.1000000E+03  0.7546771E-02  0.1280296E+00
         21   -1    0    0  503  502  0.00000000000E+00  0.00000000000E+00  0.11945225597E+03  0.11945225597E+03  0.00000000000E+00 0. -1.
         21   -1    0    0  501  503 -0.00000000000E+00 -0.00000000000E+00 -0.53465327958E+03  0.53465327958E+03  0.00000000000E+00 0.  1.
          6    1    1    2  501    0 -0.17068182669E+03  0.11960182076E+02 -0.29595605427E+03  0.38313746616E+03  0.17300000000E+03 0.  1.
         -6    1    1    2    0  502  0.17068182669E+03 -0.11960182076E+02 -0.11924496935E+03  0.27096806939E+03  0.17300000000E+03 0. -1.
</event>
<event>
 4    1  0.6031777E+000  0.1000000E+03  0.7546771E-02  0.1280296E+00
         21   -1    0    0  503  502  0.00000000000E+00  0.00000000000E+00  0.12746997646E+03  0.12746997646E+03  0.00000000000E+00 0. -1.
         21   -1    0    0  501  503 -0.00000000000E+00 -0.00000000000E+00 -0.33172831575E+03  0.33172831575E+03  0.00000000000E+00 0.  1.
          6    1    1    2  501    0  0.76201731121E+02 -0.79199927908E+02 -0.83543920818E+02  0.22133214659E+03  0.17300000000E+03 0.  1.
         -6    1    1    2    0  502 -0.76201731121E+02  0.79199927908E+02 -0.12071441848E+03  0.23786614562E+03  0.17300000000E+03 0. -1.
</event>
<event>
 4    1  0.6031777E+000  0.1000000E+03  0.7546771E-02  0.1280296E+00
         21   -1    0    0  501  502  0.00000000000E+00  0.00000000000E+00  0.54311246681E+02  0.54311246681E+02  0.00000000000E+00 0. -1.
         21   -1    0    0  502  503 -0.00000000000E+00 -0.00000000000E+00 -0.24857120013E+04  0.24857120013E+04  0.00000000000E+00 0.  1.
          6    1    1    2  501    0 -0.16225109707E+03  0.12089560062E+03 -0.34036468388E+03  0.43210910981E+03  0.17300000000E+03 0. -1.
         -6    1    1    2    0  503  0.16225109707E+03 -0.12089560062E+03 -0.20910360708E+04  0.21079141382E+04  0.17300000000E+03 0.  1.
</event>
<event>
 4    1  0.6031777E+000  0.1000000E+03  0.7546771E-02  0.1280296E+00
         21   -1    0    0  501  502  0.00000000000E+00  0.00000000000E+00  0.22476277390E+03  0.22476277390E+03  0.00000000000E+00 0. -1.
         21   -1    0    0  502  503 -0.00000000000E+00 -0.00000000000E+00 -0.24689859501E+03  0.24689859501E+03  0.00000000000E+00 0.  1.
          6    1    1    2  501    0  0.13193402611E+02 -0.67743440618E+02  0.13331800007E+03  0.22905442314E+03  0.17300000000E+03 0. -1.
         -6    1    1    2    0  503 -0.13193402611E+02  0.67743440618E+02 -0.15545382118E+03  0.24260694578E+03  0.17300000000E+03 0.  1.
</event>
<event>
 4    1  0.6031777E+000  0.1000000E+03  0.7546771E-02  0.1280296E+00
         21   -1    0    0  501  502  0.00000000000E+00  0.00000000000E+00  0.89679698822E+03  0.89679698822E+03  0.00000000000E+00 0. -1.
         21   -1    0    0  502  503 -0.00000000000E+00 -0.00000000000E+00 -0.70721690551E+02  0.70721690551E+02  0.00000000000E+00 0.  1.
          6    1    1    2  501    0  0.64796104642E+02  0.39137200075E+02  0.73310766131E+03  0.75703771285E+03  0.17300000000E+03 0. -1.
         -6    1    1    2    0  503 -0.64796104642E+02 -0.39137200075E+02  0.92967636365E+02  0.21048096593E+03  0.17300000000E+03 0.  1.
</event>
<event>
 4    1  0.6031777E+000  0.1000000E+03  0.7546771E-02  0.1280296E+00
         21   -1    0    0  501  502  0.00000000000E+00  0.00000000000E+00  0.67730721417E+02  0.67730721417E+02  0.00000000000E+00 0. -1.
         21   -1    0    0  502  503 -0.00000000000E+00 -0.00000000000E+00 -0.19391488352E+04  0.19391488352E+04  0.00000000000E+00 0. -1.
          6    1    1    2  501    0  0.15701464060E+03  0.23819628971E+03 -0.54394587079E+03  0.63812003584E+03  0.17300000000E+03 0. -1.
         -6    1    1    2    0  503 -0.15701464060E+03 -0.23819628971E+03 -0.13274722430E+04  0.13687595208E+04  0.17300000000E+03 0. -1.
</event>
<event>
 4    1  0.6031777E+000  0.1000000E+03  0.7546771E-02  0.1280296E+00
         21   -1    0    0  501  502  0.00000000000E+00  0.00000000000E+00  0.26078481752E+03  0.26078481752E+03  0.00000000000E+00 0. -1.
         21   -1    0    0  502  503 -0.00000000000E+00 -0.00000000000E+00 -0.11704354495E+03  0.11704354495E+03  0.00000000000E+00 0. -1.
          6    1    1    2  501    0  0.26999063900E+01  0.17690499769E+02  0.53973876177E+02  0.18210552596E+03  0.17300000000E+03 0. -1.
         -6    1    1    2    0  503 -0.26999063900E+01 -0.17690499769E+02  0.89767396394E+02  0.19572283651E+03  0.17300000000E+03 0. -1.
</event>
<event>
 4    1  0.6031777E+000  0.1000000E+03  0.7546771E-02  0.1280296E+00
         21   -1    0    0  503  502  0.00000000000E+00  0.00000000000E+00  0.16354181133E+04  0.16354181133E+04  0.00000000000E+00 0.  1.
         21   -1    0    0  501  503 -0.00000000000E+00 -0.00000000000E+00 -0.34945573844E+02  0.34945573844E+02  0.00000000000E+00 0.  1.
          6    1    1    2  501    0 -0.34991837362E+01  0.19401126139E+02  0.22796099930E+03  0.28685164316E+03  0.17300000000E+03 0. -1.
         -6    1    1    2    0  502  0.34991837362E+01 -0.19401126139E+02  0.13725115402E+04  0.13835120440E+04  0.17300000000E+03 0. -1.
</event>
<event>
 4    1  0.6031777E+000  0.1000000E+03  0.7546771E-02  0.1280296E+00
         21   -1    0    0  503  502  0.00000000000E+00  0.00000000000E+00  0.21574069952E+03  0.21574069952E+03  0.00000000000E+00 0.  1.
         21   -1    0    0  501  503 -0.00000000000E+00 -0.00000000000E+00 -0.30931976072E+03  0.30931976072E+03  0.00000000000E+00 0.  1.
          6    1    1    2  501    0 -0.53435169068E+02  0.12688682715E+03 -0.18256071239E+03  0.28672809054E+03  0.17300000000E+03 0. -1.
         -6    1    1    2    0  502  0.53435169068E+02 -0.12688682715E+03  0.88981651187E+02  0.23833236970E+03  0.17300000000E+03 0. -1.
</event>
<event>
 4    1  0.6031777E+000  0.1000000E+03  0.7546771E-02  0.1280296E+00
         21   -1    0    0  503  502  0.00000000000E+00  0.00000000000E+00  0.33077427223E+03  0.33077427223E+03  0.00000000000E+00 0. -1.
         21   -1    0    0  501  503 -0.00000000000E+00 -0.00000000000E+00 -0.21808874048E+03  0.21808874048E+03  0.00000000000E+00 0.  1.
          6    1    1    2  501    0 -0.71406318311E+02  0.15142407781E+03 -0.65333363453E+02  0.24945052017E+03  0.17300000000E+03 0. -1.
         -6    1    1    2    0  502  0.71406318311E+02 -0.15142407781E+03  0.17801889521E+03  0.29941249253E+03  0.17300000000E+03 0.  1.
</event>
<event>
 4    1  0.6031777E+000  0.1000000E+03  0.7546771E-02  0.1280296E+00
         21   -1    0    0  503  502  0.00000000000E+00  0.00000000000E+00  0.33073916613E+03  0.33073916613E+03  0.00000000000E+00 0. -1.
         21   -1    0    0  501  503 -0.00000000000E+00 -0.00000000000E+00 -0.16982954435E+03  0.16982954435E+03  0.00000000000E+00 0.  1.
          6    1    1    2  501    0 -0.58595756089E+02  0.25497721377E+02 -0.76739442034E+02  0.19975369431E+03  0.17300000000E+03 0. -1.
         -6    1    1    2    0  502  0.58595756089E+02 -0.25497721377E+02  0.23764906381E+03  0.30081501618E+03  0.17300000000E+03 0.  1.
</event>
<event>
 4    1  0.6031777E+000  0.1000000E+03  0.7546771E-02  0.1280296E+00
         21   -1    0    0  501  502  0.00000000000E+00  0.00000000000E+00  0.22180828058E+03  0.22180828058E+03  0.00000000000E+00 0. -1.
         21   -1    0    0  502  503 -0.00000000000E+00 -0.00000000000E+00 -0.63112227197E+03  0.63112227197E+03  0.00000000000E+00 0. -1.
          6    1    1    2  501    0  0.62649324875E+02 -0.75674486865E+01  0.16657768411E+03  0.24831296589E+03  0.17300000000E+03 0. -1.
         -6    1    1    2    0  503 -0.62649324875E+02  0.75674486865E+01 -0.57589167549E+03  0.60461758665E+03  0.17300000000E+03 0. -1.
</event>
<event>
 4    1  0.6031777E+000  0.1000000E+03  0.7546771E-02  0.1280296E+00
         21   -1    0    0  501  502  0.00000000000E+00  0.00000000000E+00  0.77867247146E+03  0.77867247146E+03  0.00000000000E+00 0. -1.
         21   -1    0    0  502  503 -0.00000000000E+00 -0.00000000000E+00 -0.24074573674E+03  0.24074573674E+03  0.00000000000E+00 0. -1.
          6    1    1    2  501    0  0.26826788262E+03  0.26938538821E+03  0.40317375403E+03  0.58052925866E+03  0.17300000000E+03 0. -1.
         -6    1    1    2    0  503 -0.26826788262E+03 -0.26938538821E+03  0.13475298069E+03  0.43888894954E+03  0.17300000000E+03 0. -1.
</event>
<event>
 4    1  0.6031777E+000  0.1000000E+03  0.7546771E-02  0.1280296E+00
         21   -1    0    0  501  502  0.00000000000E+00  0.00000000000E+00  0.11198052737E+04  0.11198052737E+04  0.00000000000E+00 0. -1.
         21   -1    0    0  502  503 -0.00000000000E+00 -0.00000000000E+00 -0.38926170331E+02  0.38926170331E+02  0.00000000000E+00 0. -1.
          6    1    1    2  501    0 -0.11237356412E+03  0.24847841399E+02  0.59700418922E+03  0.63212991946E+03  0.17300000000E+03 0. -1.
         -6    1    1    2    0  503  0.11237356412E+03 -0.24847841399E+02  0.48387491420E+03  0.52660152462E+03  0.17300000000E+03 0. -1.
</event>
<event>
 4    1  0.6031777E+000  0.1000000E+03  0.7546771E-02  0.1280296E+00
         21   -1    0    0  501  502  0.00000000000E+00  0.00000000000E+00  0.11094242400E+04  0.11094242400E+04  0.00000000000E+00 0. -1.
         21   -1    0    0  502  503 -0.00000000000E+00 -0.00000000000E+00 -0.43981681588E+02  0.43981681588E+02  0.00000000000E+00 0. -1.
          6    1    1    2  501    0 -0.37613228690E+02 -0.11959542090E+03  0.67919238690E+03  0.71200359416E+03  0.17300000000E+03 0. -1.
         -6    1    1    2    0  503  0.37613228690E+02  0.11959542090E+03  0.38625017156E+03  0.44140232747E+03  0.17300000000E+03 0. -1.
</event>
<event>
 4    1  0.6031777E+000  0.1000000E+03  0.7546771E-02  0.1280296E+00
         21   -1    0    0  501  502  0.00000000000E+00  0.00000000000E+00  0.45169075599E+03  0.45169075599E+03  0.00000000000E+00 0.  1.
         21   -1    0    0  502  503 -0.00000000000E+00 -0.00000000000E+00 -0.49690230183E+03  0.49690230183E+03  0.00000000000E+00 0.  1.
          6    1    1    2  501    0 -0.26601022632E+03 -0.40899861477E+02  0.32719545159E+03  0.45762441228E+03  0.17300000000E+03 0.  1.
         -6    1    1    2    0  503  0.26601022632E+03  0.40899861477E+02 -0.37240699743E+03  0.49096864554E+03  0.17300000000E+03 0.  1.
</event>
<event>
 4    1  0.6031777E+000  0.1000000E+03  0.7546771E-02  0.1280296E+00
         21   -1    0    0  501  502  0.00000000000E+00  0.00000000000E+00  0.24003712669E+03  0.24003712669E+03  0.00000000000E+00 0. -1.
         21   -1    0    0  502  503 -0.00000000000E+00 -0.00000000000E+00 -0.16259271599E+03  0.16259271599E+03  0.00000000000E+00 0. -1.
          6    1    1    2  501    0 -0.28679654089E+02  0.20126712749E+02  0.12913293264E+03  0.21870510149E+03  0.17300000000E+03 0. -1.
         -6    1    1    2    0  503  0.28679654089E+02 -0.20126712749E+02 -0.51688521941E+02  0.18392474120E+03  0.17300000000E+03 0. -1.
</event>
<event>
 4    1  0.6031777E+000  0.1000000E+03  0.7546771E-02  0.1280296E+00
         21   -1    0    0  501  502  0.00000000000E+00  0.00000000000E+00  0.13786763446E+03  0.13786763446E+03  0.00000000000E+00 0. -1.
         21   -1    0    0  502  503 -0.00000000000E+00 -0.00000000000E+00 -0.23701767667E+03  0.23701767667E+03  0.00000000000E+00 0. -1.
          6    1    1    2  501    0 -0.13312922959E+02  0.12358456337E+02  0.14148742499E+01  0.17395679702E+03  0.17300000000E+03 0. -1.
         -6    1    1    2    0  503  0.13312922959E+02 -0.12358456337E+02 -0.10056491646E+03  0.20092851411E+03  0.17300000000E+03 0. -1.
</event>
<event>
 4    1  0.6031777E+000  0.1000000E+03  0.7546771E-02  0.1280296E+00
         21   -1    0    0  501  502  0.00000000000E+00  0.00000000000E+00  0.59884027946E+02  0.59884027946E+02  0.00000000000E+00 0. -1.
         21   -1    0    0  502  503 -0.00000000000E+00 -0.00000000000E+00 -0.11975349187E+04  0.11975349187E+04  0.00000000000E+00 0. -1.
          6    1    1    2  501    0  0.88135951320E+02 -0.86682206120E+02 -0.18662293617E+03  0.28291141914E+03  0.17300000000E+03 0. -1.
         -6    1    1    2    0  503 -0.88135951320E+02  0.86682206120E+02 -0.95102795457E+03  0.97450752749E+03  0.17300000000E+03 0. -1.
</event>
<event>
 4    1  0.6031777E+000  0.1000000E+03  0.7546771E-02  0.1280296E+00
         21   -1    0    0  503  502  0.00000000000E+00  0.00000000000E+00  0.42527846894E+02  0.42527846894E+02  0.00000000000E+00 0.  1.
         21   -1    0    0  501  503 -0.00000000000E+00 -0.00000000000E+00 -0.16406928562E+04  0.16406928562E+04  0.00000000000E+00 0.  1.
          6    1    1    2  501    0  0.99374838678E+02 -0.23707303734E+01 -0.13506123214E+04  0.13652705305E+04  0.17300000000E+03 0.  1.
         -6    1    1    2    0  502 -0.99374838678E+02  0.23707303734E+01 -0.24755268795E+03  0.31795017257E+03  0.17300000000E+03 0.  1.
</event>
<event>
 4    1  0.6031777E+000  0.1000000E+03  0.7546771E-02  0.1280296E+00
         21   -1    0    0  503  502  0.00000000000E+00  0.00000000000E+00  0.48804245243E+03  0.48804245243E+03  0.00000000000E+00 0.  1.
         21   -1    0    0  501  503 -0.00000000000E+00 -0.00000000000E+00 -0.15509277870E+03  0.15509277870E+03  0.00000000000E+00 0.  1.
          6    1    1    2  501    0  0.14007207552E+02 -0.19989690626E+03  0.25400289002E+03  0.36688069333E+03  0.17300000000E+03 0.  1.
         -6    1    1    2    0  502 -0.14007207552E+02  0.19989690626E+03  0.78946783707E+02  0.27625453780E+03  0.17300000000E+03 0.  1.
</event>
<event>
 4    1  0.6031777E+000  0.1000000E+03  0.7546771E-02  0.1280296E+00
         21   -1    0    0  501  502  0.00000000000E+00  0.00000000000E+00  0.52851781636E+03  0.52851781636E+03  0.00000000000E+00 0.  1.
         21   -1    0    0  502  503 -0.00000000000E+00 -0.00000000000E+00 -0.10162425717E+03  0.10162425717E+03  0.00000000000E+00 0.  1.
          6    1    1    2  501    0 -0.87548620876E+02  0.48641924316E+02  0.37286507310E+03  0.42306992395E+03  0.17300000000E+03 0.  1.
         -6    1    1    2    0  503  0.87548620876E+02 -0.48641924316E+02  0.54028486093E+02  0.20707214957E+03  0.17300000000E+03 0.  1.
</event>
<event>
 4    1  0.6031777E+000  0.1000000E+03  0.7546771E-02  0.1280296E+00
         21   -1    0    0  501  502  0.00000000000E+00  0.00000000000E+00  0.22244115367E+03  0.22244115367E+03  0.00000000000E+00 0.  1.
         21   -1    0    0  502  503 -0.00000000000E+00 -0.00000000000E+00 -0.11668285709E+04  0.11668285709E+04  0.00000000000E+00 0.  1.
          6    1    1    2  501    0  0.17623493234E+03 -0.36677885326E+03 -0.12716255861E+03  0.46009215912E+03  0.17300000000E+03 0.  1.
         -6    1    1    2    0  503 -0.17623493234E+03  0.36677885326E+03 -0.81722485860E+03  0.92917756542E+03  0.17300000000E+03 0.  1.
</event>
<event>
 4    1  0.6031777E+000  0.1000000E+03  0.7546771E-02  0.1280296E+00
         21   -1    0    0  503  502  0.00000000000E+00  0.00000000000E+00  0.17084121290E+04  0.17084121290E+04  0.00000000000E+00 0. -1.
         21   -1    0    0  501  503 -0.00000000000E+00 -0.00000000000E+00 -0.25913695577E+02  0.25913695577E+02  0.00000000000E+00 0. -1.
          6    1    1    2  501    0 -0.11337386878E+03 -0.15452205992E+02  0.69554517348E+03  0.72581298772E+03  0.17300000000E+03 0.  1.
         -6    1    1    2    0  502  0.11337386878E+03  0.15452205992E+02  0.98695325995E+03  0.10085128369E+04  0.17300000000E+03 0.  1.
</event>
<event>
 4    1  0.6031777E+000  0.1000000E+03  0.7546771E-02  0.1280296E+00
         21   -1    0    0  503  502  0.00000000000E+00  0.00000000000E+00  0.85903444056E+03  0.85903444056E+03  0.00000000000E+00 0. -1.
         21   -1    0    0  501  503 -0.00000000000E+00 -0.00000000000E+00 -0.48890165788E+02  0.48890165788E+02  0.00000000000E+00 0. -1.
          6    1    1    2  501    0  0.12229830470E+02  0.56057204569E+02  0.19753986759E+03  0.26878053915E+03  0.17300000000E+03 0.  1.
         -6    1    1    2    0  502 -0.12229830470E+02 -0.56057204569E+02  0.61260440718E+03  0.63914406720E+03  0.17300000000E+03 0.  1.
</event>
<event>
 4    1  0.6031777E+000  0.1000000E+03  0.7546771E-02  0.1280296E+00
         21   -1    0    0  503  502  0.00000000000E+00  0.00000000000E+00  0.94112555996E+03  0.94112555996E+03  0.00000000000E+00 0. -1.
         21   -1    0    0  501  503 -0.00000000000E+00 -0.00000000000E+00 -0.37848651130E+02  0.37848651130E+02  0.00000000000E+00 0. -1.
          6    1    1    2  501    0 -0.70070919544E+02  0.27495563431E+02  0.43856919102E+03  0.47742839786E+03  0.17300000000E+03 0.  1.
         -6    1    1    2    0  502  0.70070919544E+02 -0.27495563431E+02  0.46470771781E+03  0.50154581323E+03  0.17300000000E+03 0.  1.
</event>
<event>
 4    1  0.6031777E+000  0.1000000E+03  0.7546771E-02  0.1280296E+00
         21   -1    0    0  503  502  0.00000000000E+00  0.00000000000E+00  0.16424996955E+04  0.16424996955E+04  0.00000000000E+00 0. -1.
         21   -1    0    0  501  503 -0.00000000000E+00 -0.00000000000E+00 -0.40301821437E+02  0.40301821437E+02  0.00000000000E+00 0. -1.
          6    1    1    2  501    0  0.52207048195E+02 -0.18235980716E+03  0.85641001803E+03  0.89406252250E+03  0.17300000000E+03 0.  1.
         -6    1    1    2    0  502 -0.52207048195E+02  0.18235980716E+03  0.74578785605E+03  0.78873899446E+03  0.17300000000E+03 0.  1.
</event>
<event>
 4    1  0.6031777E+000  0.1000000E+03  0.7546771E-02  0.1280296E+00
         21   -1    0    0  503  502  0.00000000000E+00  0.00000000000E+00  0.45612750969E+02  0.45612750969E+02  0.00000000000E+00 0. -1.
         21   -1    0    0  501  503 -0.00000000000E+00 -0.00000000000E+00 -0.14894566975E+04  0.14894566975E+04  0.00000000000E+00 0. -1.
          6    1    1    2  501    0  0.12189507425E+02 -0.11425271431E+03 -0.11857186685E+04  0.12037690924E+04  0.17300000000E+03 0.  1.
         -6    1    1    2    0  502 -0.12189507425E+02  0.11425271431E+03 -0.25812527802E+03  0.33130035613E+03  0.17300000000E+03 0.  1.
</event>
<event>
 4    1  0.6031777E+000  0.1000000E+03  0.7546771E-02  0.1280296E+00
         21   -1    0    0  501  502  0.00000000000E+00  0.00000000000E+00  0.17408168957E+04  0.17408168957E+04  0.00000000000E+00 0.  1.
         21   -1    0    0  502  503 -0.00000000000E+00 -0.00000000000E+00 -0.10307277009E+03  0.10307277009E+03  0.00000000000E+00 0. -1.
          6    1    1    2  501    0  0.18979639492E+03  0.46068626376E+02  0.15451700547E+04  0.15670432310E+04  0.17300000000E+03 0.  1.
         -6    1    1    2    0  503 -0.18979639492E+03 -0.46068626376E+02  0.92574070917E+02  0.27684643481E+03  0.17300000000E+03 0. -1.
</event>
<event>
 4    1  0.6031777E+000  0.1000000E+03  0.7546771E-02  0.1280296E+00
         21   -1    0    0  501  502  0.00000000000E+00  0.00000000000E+00  0.26702065844E+03  0.26702065844E+03  0.00000000000E+00 0.  1.
         21   -1    0    0  502  503 -0.00000000000E+00 -0.00000000000E+00 -0.34576469399E+03  0.34576469399E+03  0.00000000000E+00 0.  1.
          6    1    1    2  501    0  0.20335875868E+03 -0.14463249052E+03 -0.50599472118E+02  0.30783542458E+03  0.17300000000E+03 0.  1.
         -6    1    1    2    0  503 -0.20335875868E+03  0.14463249052E+03 -0.28144563438E+02  0.30494992785E+03  0.17300000000E+03 0.  1.
</event>
<event>
 4    1  0.6031777E+000  0.1000000E+03  0.7546771E-02  0.1280296E+00
         21   -1    0    0  501  502  0.00000000000E+00  0.00000000000E+00  0.15047882671E+03  0.15047882671E+03  0.00000000000E+00 0.  1.
         21   -1    0    0  502  503 -0.00000000000E+00 -0.00000000000E+00 -0.30243445748E+03  0.30243445748E+03  0.00000000000E+00 0.  1.
          6    1    1    2  501    0 -0.75689933943E+01 -0.10101079622E+03  0.14520370097E+01  0.20047837546E+03  0.17300000000E+03 0.  1.
         -6    1    1    2    0  503  0.75689933943E+01  0.10101079622E+03 -0.15340766778E+03  0.25243490873E+03  0.17300000000E+03 0.  1.
</event>
<event>
 4    1  0.6031777E+000  0.1000000E+03  0.7546771E-02  0.1280296E+00
         21   -1    0    0  501  502  0.00000000000E+00  0.00000000000E+00  0.25949287894E+03  0.25949287894E+03  0.00000000000E+00 0. -1.
         21   -1    0    0  502  503 -0.00000000000E+00 -0.00000000000E+00 -0.44827732852E+03  0.44827732852E+03  0.00000000000E+00 0.  1.
          6    1    1    2  501    0  0.28813751464E+03  0.58072843088E+02 -0.94077346338E+02  0.35380111580E+03  0.17300000000E+03 0. -1.
         -6    1    1    2    0  503 -0.28813751464E+03 -0.58072843088E+02 -0.94707103240E+02  0.35396909166E+03  0.17300000000E+03 0.  1.
</event>
<event>
 4    1  0.6031777E+000  0.1000000E+03  0.7546771E-02  0.1280296E+00
         21   -1    0    0  501  502  0.00000000000E+00  0.00000000000E+00  0.62378418167E+02  0.62378418167E+02  0.00000000000E+00 0. -1.
         21   -1    0    0  502  503 -0.00000000000E+00 -0.00000000000E+00 -0.59538116439E+03  0.59538116439E+03  0.00000000000E+00 0.  1.
          6    1    1    2  501    0 -0.61459884513E+02 -0.50390383783E+02 -0.21549176174E+03  0.28754514004E+03  0.17300000000E+03 0. -1.
         -6    1    1    2    0  503  0.61459884513E+02  0.50390383783E+02 -0.31751098448E+03  0.37021444252E+03  0.17300000000E+03 0.  1.
</event>
<event>
 4    1  0.6031777E+000  0.1000000E+03  0.7546771E-02  0.1280296E+00
         21   -1    0    0  501  502  0.00000000000E+00  0.00000000000E+00  0.14482617717E+03  0.14482617717E+03  0.00000000000E+00 0. -1.
         21   -1    0    0  502  503 -0.00000000000E+00 -0.00000000000E+00 -0.66960438098E+03  0.66960438098E+03  0.00000000000E+00 0.  1.
          6    1    1    2  501    0 -0.22331718433E+03 -0.22789549418E+01 -0.91034684029E+02  0.29680308649E+03  0.17300000000E+03 0. -1.
         -6    1    1    2    0  503  0.22331718433E+03  0.22789549418E+01 -0.43374351979E+03  0.51762747165E+03  0.17300000000E+03 0.  1.
</event>
<event>
 4    1  0.6031777E+000  0.1000000E+03  0.7546771E-02  0.1280296E+00
         21   -1    0    0  503  502  0.00000000000E+00  0.00000000000E+00  0.62222255658E+03  0.62222255658E+03  0.00000000000E+00 0. -1.
         21   -1    0    0  501  503 -0.00000000000E+00 -0.00000000000E+00 -0.11641111363E+03  0.11641111363E+03  0.00000000000E+00 0.  1.
          6    1    1    2  501    0 -0.19188581850E+03 -0.48851459403E+02  0.17410075949E+03  0.31535171933E+03  0.17300000000E+03 0. -1.
         -6    1    1    2    0  502  0.19188581850E+03  0.48851459403E+02  0.33171068346E+03  0.42328195089E+03  0.17300000000E+03 0.  1.
</event>
<event>
 4    1  0.6031777E+000  0.1000000E+03  0.7546771E-02  0.1280296E+00
         21   -1    0    0  503  502  0.00000000000E+00  0.00000000000E+00  0.14649523988E+04  0.14649523988E+04  0.00000000000E+00 0. -1.
         21   -1    0    0  501  503 -0.00000000000E+00 -0.00000000000E+00 -0.48675065499E+02  0.48675065499E+02  0.00000000000E+00 0.  1.
          6    1    1    2  501    0  0.14112227370E+03 -0.92838293084E+02  0.38694960064E+03  0.45628219145E+03  0.17300000000E+03 0. -1.
         -6    1    1    2    0  502 -0.14112227370E+03  0.92838293084E+02  0.10293277326E+04  0.10573452728E+04  0.17300000000E+03 0.  1.
</event>
<event>
 4    1  0.6031777E+000  0.1000000E+03  0.7546771E-02  0.1280296E+00
         21   -1    0    0  503  502  0.00000000000E+00  0.00000000000E+00  0.21234700026E+03  0.21234700026E+03  0.00000000000E+00 0. -1.
         21   -1    0    0  501  503 -0.00000000000E+00 -0.00000000000E+00 -0.24762698838E+03  0.24762698838E+03  0.00000000000E+00 0.  1.
          6    1    1    2  501    0 -0.39531277296E+02 -0.75896210536E+02 -0.14182378965E+03  0.23951188691E+03  0.17300000000E+03 0. -1.
         -6    1    1    2    0  502  0.39531277296E+02  0.75896210536E+02  0.10654380153E+03  0.22046210174E+03  0.17300000000E+03 0.  1.
</event>
<event>
 4    1  0.6031777E+000  0.1000000E+03  0.7546771E-02  0.1280296E+00
         21   -1    0    0  503  502  0.00000000000E+00  0.00000000000E+00  0.71542444334E+03  0.71542444334E+03  0.00000000000E+00 0. -1.
         21   -1    0    0  501  503 -0.00000000000E+00 -0.00000000000E+00 -0.12404540740E+03  0.12404540740E+03  0.00000000000E+00 0.  1.
          6    1    1    2  501    0  0.17995812960E+03 -0.19149518873E+02  0.68217782108E+02  0.25948853208E+03  0.17300000000E+03 0. -1.
         -6    1    1    2    0  502 -0.17995812960E+03  0.19149518873E+02  0.52316125384E+03  0.57998131866E+03  0.17300000000E+03 0.  1.
</event>
<event>
 4    1  0.6031777E+000  0.1000000E+03  0.7546771E-02  0.1280296E+00
         21   -1    0    0  501  502  0.00000000000E+00  0.00000000000E+00  0.13969650845E+03  0.13969650845E+03  0.00000000000E+00 0. -1.
         21   -1    0    0  502  503 -0.00000000000E+00 -0.00000000000E+00 -0.27546618180E+03  0.27546618180E+03  0.00000000000E+00 0. -1.
          6    1    1    2  501    0 -0.49074809562E+02  0.71003632656E+02 -0.32744012087E+02  0.19608932432E+03  0.17300000000E+03 0. -1.
         -6    1    1    2    0  503  0.49074809562E+02 -0.71003632656E+02 -0.10302566127E+03  0.21907336594E+03  0.17300000000E+03 0. -1.
</event>
<event>
 4    1  0.6031777E+000  0.1000000E+03  0.7546771E-02  0.1280296E+00
         21   -1    0    0  501  502  0.00000000000E+00  0.00000000000E+00  0.28587857284E+03  0.28587857284E+03  0.00000000000E+00 0. -1.
         21   -1    0    0  502  503 -0.00000000000E+00 -0.00000000000E+00 -0.31882886433E+03  0.31882886433E+03  0.00000000000E+00 0. -1.
          6    1    1    2  501    0 -0.29176693688E+02 -0.60816930522E+01  0.22951008149E+03  0.28895007173E+03  0.17300000000E+03 0. -1.
         -6    1    1    2    0  503  0.29176693688E+02  0.60816930522E+01 -0.26246037298E+03  0.31575736544E+03  0.17300000000E+03 0. -1.
</event>
<event>
 4    1  0.6031777E+000  0.1000000E+03  0.7546771E-02  0.1280296E+00
         21   -1    0    0  501  502  0.00000000000E+00  0.00000000000E+00  0.94435023661E+02  0.94435023661E+02  0.00000000000E+00 0. -1.
         21   -1    0    0  502  503 -0.00000000000E+00 -0.00000000000E+00 -0.11495930371E+04  0.11495930371E+04  0.00000000000E+00 0. -1.
          6    1    1    2  501    0  0.54305923429E+02  0.80958415051E+02 -0.31223191478E+02  0.20101563614E+03  0.17300000000E+03 0. -1.
         -6    1    1    2    0  503 -0.54305923429E+02 -0.80958415051E+02 -0.10239348219E+04  0.10430124246E+04  0.17300000000E+03 0. -1.
</event>
<event>
 4    1  0.6031777E+000  0.1000000E+03  0.7546771E-02  0.1280296E+00
         21   -1    0    0  503  502  0.00000000000E+00  0.00000000000E+00  0.42121966242E+02  0.42121966242E+02  0.00000000000E+00 0. -1.
         21   -1    0    0  501  503 -0.00000000000E+00 -0.00000000000E+00 -0.88483569242E+03  0.88483569242E+03  0.00000000000E+00 0. -1.
          6    1    1    2  501    0 -0.40688448377E+02  0.57176560012E+02 -0.53939177224E+03  0.57078646866E+03  0.17300000000E+03 0. -1.
         -6    1    1    2    0  502  0.40688448377E+02 -0.57176560012E+02 -0.30332195394E+03  0.35617119001E+03  0.17300000000E+03 0. -1.
</event>
<event>
 4    1  0.6031777E+000  0.1000000E+03  0.7546771E-02  0.1280296E+00
         21   -1    0    0  503  502  0.00000000000E+00  0.00000000000E+00  0.81169013063E+03  0.81169013063E+03  0.00000000000E+00 0. -1.
         21   -1    0    0  501  503 -0.00000000000E+00 -0.00000000000E+00 -0.94808267701E+02  0.94808267701E+02  0.00000000000E+00 0.  1.
          6    1    1    2  501    0  0.15946623953E+02 -0.16012827541E+01  0.50965392513E+01  0.17381551609E+03  0.17300000000E+03 0.  1.
         -6    1    1    2    0  502 -0.15946623953E+02  0.16012827541E+01  0.71178532368E+03  0.73268288224E+03  0.17300000000E+03 0. -1.
</event>
<event>
 4    1  0.6031777E+000  0.1000000E+03  0.7546771E-02  0.1280296E+00
         21   -1    0    0  503  502  0.00000000000E+00  0.00000000000E+00  0.73930529763E+02  0.73930529763E+02  0.00000000000E+00 0. -1.
         21   -1    0    0  501  503 -0.00000000000E+00 -0.00000000000E+00 -0.46003656339E+03  0.46003656339E+03  0.00000000000E+00 0.  1.
          6    1    1    2  501    0 -0.62147919779E+02 -0.79527880867E+01 -0.21114257818E+03  0.28006391965E+03  0.17300000000E+03 0.  1.
         -6    1    1    2    0  502  0.62147919779E+02  0.79527880867E+01 -0.17496345545E+03  0.25390317350E+03  0.17300000000E+03 0. -1.
</event>
<event>
 4    1  0.6031777E+000  0.1000000E+03  0.7546771E-02  0.1280296E+00
         21   -1    0    0  503  502  0.00000000000E+00  0.00000000000E+00  0.17133446330E+03  0.17133446330E+03  0.00000000000E+00 0. -1.
         21   -1    0    0  501  503 -0.00000000000E+00 -0.00000000000E+00 -0.17619051831E+03  0.17619051831E+03  0.00000000000E+00 0.  1.
          6    1    1    2  501    0  0.11747793372E+02 -0.34598236385E+01  0.79906124321E+01  0.17361690850E+03  0.17300000000E+03 0.  1.
         -6    1    1    2    0  502 -0.11747793372E+02  0.34598236385E+01 -0.12846667446E+02  0.17390807311E+03  0.17300000000E+03 0. -1.
</event>
<event>
 4    1  0.6031777E+000  0.1000000E+03  0.7546771E-02  0.1280296E+00
         21   -1    0    0  503  502  0.00000000000E+00  0.00000000000E+00  0.12570793009E+03  0.12570793009E+03  0.00000000000E+00 0. -1.
         21   -1    0    0  501  503 -0.00000000000E+00 -0.00000000000E+00 -0.53113234141E+03  0.53113234141E+03  0.00000000000E+00 0. -1.
          6    1    1    2  501    0 -0.13797063300E+03 -0.69050933438E+02 -0.34782184301E+03  0.41798679579E+03  0.17300000000E+03 0. -1.
         -6    1    1    2    0  502  0.13797063300E+03  0.69050933438E+02 -0.57602568308E+02  0.23885347570E+03  0.17300000000E+03 0. -1.
</event>
<event>
 4    1  0.6031777E+000  0.1000000E+03  0.7546771E-02  0.1280296E+00
         21   -1    0    0  503  502  0.00000000000E+00  0.00000000000E+00  0.39093733380E+03  0.39093733380E+03  0.00000000000E+00 0. -1.
         21   -1    0    0  501  503 -0.00000000000E+00 -0.00000000000E+00 -0.11040513964E+03  0.11040513964E+03  0.00000000000E+00 0. -1.
          6    1    1    2  501    0 -0.31491913525E+02  0.10295380238E+03  0.91384473349E+02  0.22331893787E+03  0.17300000000E+03 0. -1.
         -6    1    1    2    0  502  0.31491913525E+02 -0.10295380238E+03  0.18914772081E+03  0.27802353557E+03  0.17300000000E+03 0. -1.
</event>
<event>
 4    1  0.6031777E+000  0.1000000E+03  0.7546771E-02  0.1280296E+00
         21   -1    0    0  501  502  0.00000000000E+00  0.00000000000E+00  0.74260794590E+03  0.74260794590E+03  0.00000000000E+00 0. -1.
         21   -1    0    0  502  503 -0.00000000000E+00 -0.00000000000E+00 -0.64231507136E+02  0.64231507136E+02  0.00000000000E+00 0. -1.
          6    1    1    2  501    0  0.35607235064E+02  0.72282897826E+02  0.53534470389E+03  0.56834465291E+03  0.17300000000E+03 0. -1.
         -6    1    1    2    0  503 -0.35607235064E+02 -0.72282897826E+02  0.14303173488E+03  0.23849480013E+03  0.17300000000E+03 0. -1.
</event>
<event>
 4    1  0.6031777E+000  0.1000000E+03  0.7546771E-02  0.1280296E+00
         21   -1    0    0  501  502  0.00000000000E+00  0.00000000000E+00  0.19020077022E+03  0.19020077022E+03  0.00000000000E+00 0.  1.
         21   -1    0    0  502  503 -0.00000000000E+00 -0.00000000000E+00 -0.53788433517E+03  0.53788433517E+03  0.00000000000E+00 0.  1.
          6    1    1    2  501    0 -0.90174947468E+02 -0.11971393370E+02  0.11432105033E+03  0.22643572589E+03  0.17300000000E+03 0.  1.
         -6    1    1    2    0  503  0.90174947468E+02  0.11971393370E+02 -0.46200461528E+03  0.50164937950E+03  0.17300000000E+03 0.  1.
</event>
<event>
 4    1  0.6031777E+000  0.1000000E+03  0.7546771E-02  0.1280296E+00
         21   -1    0    0  503  502  0.00000000000E+00  0.00000000000E+00  0.24420544400E+03  0.24420544400E+03  0.00000000000E+00 0.  1.
         21   -1    0    0  501  503 -0.00000000000E+00 -0.00000000000E+00 -0.13829948791E+04  0.13829948791E+04  0.00000000000E+00 0. -1.
          6    1    1    2  501    0  0.27210383748E+02 -0.32941990871E+03 -0.11932097340E+04  0.12501745280E+04  0.17300000000E+03 0. -1.
         -6    1    1    2    0  502 -0.27210383748E+02  0.32941990871E+03  0.54420298857E+02  0.37702579510E+03  0.17300000000E+03 0.  1.
</event>
<event>
 4    1  0.6031777E+000  0.1000000E+03  0.7546771E-02  0.1280296E+00
         21   -1    0    0  503  502  0.00000000000E+00  0.00000000000E+00  0.23888873920E+03  0.23888873920E+03  0.00000000000E+00 0.  1.
         21   -1    0    0  501  503 -0.00000000000E+00 -0.00000000000E+00 -0.41328251046E+03  0.41328251046E+03  0.00000000000E+00 0. -1.
          6    1    1    2  501    0  0.22304666326E+03  0.60434401867E+02 -0.21597263775E+03  0.36052088869E+03  0.17300000000E+03 0. -1.
         -6    1    1    2    0  502 -0.22304666326E+03 -0.60434401867E+02  0.41578866492E+02  0.29165036098E+03  0.17300000000E+03 0.  1.
</event>
<event>
 4    1  0.6031777E+000  0.1000000E+03  0.7546771E-02  0.1280296E+00
         21   -1    0    0  503  502  0.00000000000E+00  0.00000000000E+00  0.35707046415E+03  0.35707046415E+03  0.00000000000E+00 0.  1.
         21   -1    0    0  501  503 -0.00000000000E+00 -0.00000000000E+00 -0.10770850259E+03  0.10770850259E+03  0.00000000000E+00 0. -1.
          6    1    1    2  501    0  0.62103241051E+02  0.67613384202E+02  0.13665715952E+03  0.23881491059E+03  0.17300000000E+03 0. -1.
         -6    1    1    2    0  502 -0.62103241051E+02 -0.67613384202E+02  0.11270480204E+03  0.22596405616E+03  0.17300000000E+03 0.  1.
</event>
<event>
 4    1  0.6031777E+000  0.1000000E+03  0.7546771E-02  0.1280296E+00
         21   -1    0    0  501  502  0.00000000000E+00  0.00000000000E+00  0.28393407424E+03  0.28393407424E+03  0.00000000000E+00 0. -1.
         21   -1    0    0  502  503 -0.00000000000E+00 -0.00000000000E+00 -0.64987878280E+03  0.64987878280E+03  0.00000000000E+00 0.  1.
          6    1    1    2  501    0  0.20135601634E+03 -0.22424020454E+03  0.91500170767E+02  0.35934551048E+03  0.17300000000E+03 0. -1.
         -6    1    1    2    0  503 -0.20135601634E+03  0.22424020454E+03 -0.45744487933E+03  0.57446734657E+03  0.17300000000E+03 0. -1.
</event>
<event>
 4    1  0.6031777E+000  0.1000000E+03  0.7546771E-02  0.1280296E+00
         21   -1    0    0  501  502  0.00000000000E+00  0.00000000000E+00  0.96902619238E+03  0.96902619238E+03  0.00000000000E+00 0. -1.
         21   -1    0    0  502  503 -0.00000000000E+00 -0.00000000000E+00 -0.60480895507E+02  0.60480895507E+02  0.00000000000E+00 0.  1.
          6    1    1    2  501    0 -0.15784789286E+03 -0.25461400195E+02  0.57293280429E+03  0.61947174142E+03  0.17300000000E+03 0. -1.
         -6    1    1    2    0  503  0.15784789286E+03  0.25461400195E+02  0.33561249258E+03  0.41003534647E+03  0.17300000000E+03 0. -1.
</event>
<event>
 4    1  0.6031777E+000  0.1000000E+03  0.7546771E-02  0.1280296E+00
         21   -1    0    0  501  502  0.00000000000E+00  0.00000000000E+00  0.24782341939E+03  0.24782341939E+03  0.00000000000E+00 0.  1.
         21   -1    0    0  502  503 -0.00000000000E+00 -0.00000000000E+00 -0.13396960484E+03  0.13396960484E+03  0.00000000000E+00 0.  1.
          6    1    1    2  501    0 -0.37811827420E+02  0.36782438913E+02  0.33756539373E+02  0.18398691816E+03  0.17300000000E+03 0.  1.
         -6    1    1    2    0  503  0.37811827420E+02 -0.36782438913E+02  0.80097275181E+02  0.19780610606E+03  0.17300000000E+03 0.  1.
</event>
<event>
 4    1  0.6031777E+000  0.1000000E+03  0.7546771E-02  0.1280296E+00
         21   -1    0    0  501  502  0.00000000000E+00  0.00000000000E+00  0.71575732060E+02  0.71575732060E+02  0.00000000000E+00 0.  1.
         21   -1    0    0  502  503 -0.00000000000E+00 -0.00000000000E+00 -0.68926105370E+03  0.68926105370E+03  0.00000000000E+00 0. -1.
          6    1    1    2  501    0 -0.76243295469E+02 -0.61002233081E+02 -0.13867835896E+03  0.24227050953E+03  0.17300000000E+03 0.  1.
         -6    1    1    2    0  503  0.76243295469E+02  0.61002233081E+02 -0.47900696268E+03  0.51856627623E+03  0.17300000000E+03 0. -1.
</event>
<event>
 4    1  0.6031777E+000  0.1000000E+03  0.7546771E-02  0.1280296E+00
         21   -1    0    0  501  502  0.00000000000E+00  0.00000000000E+00  0.78098774970E+02  0.78098774970E+02  0.00000000000E+00 0.  1.
         21   -1    0    0  502  503 -0.00000000000E+00 -0.00000000000E+00 -0.15116097329E+04  0.15116097329E+04  0.00000000000E+00 0. -1.
          6    1    1    2  501    0  0.11768734705E+03  0.95933683761E+02 -0.12663106671E+03  0.26271279069E+03  0.17300000000E+03 0.  1.
         -6    1    1    2    0  503 -0.11768734705E+03 -0.95933683761E+02 -0.13068798912E+04  0.13269957172E+04  0.17300000000E+03 0. -1.
</event>
<event>
 4    1  0.6031777E+000  0.1000000E+03  0.7546771E-02  0.1280296E+00
         21   -1    0    0  503  502  0.00000000000E+00  0.00000000000E+00  0.73419181505E+03  0.73419181505E+03  0.00000000000E+00 0. -1.
         21   -1    0    0  501  503 -0.00000000000E+00 -0.00000000000E+00 -0.44914834004E+02  0.44914834004E+02  0.00000000000E+00 0. -1.
          6    1    1    2  501    0  0.39437718940E+02  0.36915280207E+02  0.36900626198E+03  0.41111153349E+03  0.17300000000E+03 0. -1.
         -6    1    1    2    0  502 -0.39437718940E+02 -0.36915280207E+02  0.32027071907E+03  0.36799511557E+03  0.17300000000E+03 0. -1.
</event>
<event>
 4    1  0.6031777E+000  0.1000000E+03  0.7546771E-02  0.1280296E+00
         21   -1    0    0  503  502  0.00000000000E+00  0.00000000000E+00  0.17167308207E+03  0.17167308207E+03  0.00000000000E+00 0. -1.
         21   -1    0    0  501  503 -0.00000000000E+00 -0.00000000000E+00 -0.22815652968E+03  0.22815652968E+03  0.00000000000E+00 0. -1.
          6    1    1    2  501    0 -0.63367028727E+02 -0.52834583506E+02 -0.78061337785E+02  0.20695276273E+03  0.17300000000E+03 0. -1.
         -6    1    1    2    0  502  0.63367028727E+02  0.52834583506E+02  0.21577890184E+02  0.19287684902E+03  0.17300000000E+03 0. -1.
</event>
<event>
 4    1  0.6031777E+000  0.1000000E+03  0.7546771E-02  0.1280296E+00
         21   -1    0    0  503  502  0.00000000000E+00  0.00000000000E+00  0.32369695707E+03  0.32369695707E+03  0.00000000000E+00 0.  1.
         21   -1    0    0  501  503 -0.00000000000E+00 -0.00000000000E+00 -0.11366501199E+03  0.11366501199E+03  0.00000000000E+00 0.  1.
          6    1    1    2  501    0  0.54489497812E+02  0.59994335882E+02  0.85415107631E+02  0.20926816844E+03  0.17300000000E+03 0.  1.
         -6    1    1    2    0  502 -0.54489497812E+02 -0.59994335882E+02  0.12461683744E+03  0.22809380063E+03  0.17300000000E+03 0.  1.
</event>
<event>
 4    1  0.6031777E+000  0.1000000E+03  0.7546771E-02  0.1280296E+00
         21   -1    0    0  503  502  0.00000000000E+00  0.00000000000E+00  0.10978529860E+03  0.10978529860E+03  0.00000000000E+00 0.  1.
         21   -1    0    0  501  503 -0.00000000000E+00 -0.00000000000E+00 -0.38071517265E+03  0.38071517265E+03  0.00000000000E+00 0.  1.
          6    1    1    2  501    0  0.93645694893E-01  0.32116071152E+02 -0.26034161191E+03  0.31422636059E+03  0.17300000000E+03 0.  1.
         -6    1    1    2    0  502 -0.93645694893E-01 -0.32116071152E+02 -0.10588262136E+02  0.17627411067E+03  0.17300000000E+03 0.  1.
</event>
<event>
 4    1  0.6031777E+000  0.1000000E+03  0.7546771E-02  0.1280296E+00
         21   -1    0    0  501  502  0.00000000000E+00  0.00000000000E+00  0.71900542342E+03  0.71900542342E+03  0.00000000000E+00 0.  1.
         21   -1    0    0  502  503 -0.00000000000E+00 -0.00000000000E+00 -0.56172061934E+02  0.56172061934E+02  0.00000000000E+00 0.  1.
          6    1    1    2  501    0  0.16312402033E+02  0.77289135923E+02  0.45669205775E+03  0.49470833892E+03  0.17300000000E+03 0.  1.
         -6    1    1    2    0  503 -0.16312402033E+02 -0.77289135923E+02  0.20614130374E+03  0.28046914643E+03  0.17300000000E+03 0.  1.
</event>
<event>
 4    1  0.6031777E+000  0.1000000E+03  0.7546771E-02  0.1280296E+00
         21   -1    0    0  501  502  0.00000000000E+00  0.00000000000E+00  0.61405167605E+03  0.61405167605E+03  0.00000000000E+00 0.  1.
         21   -1    0    0  502  503 -0.00000000000E+00 -0.00000000000E+00 -0.11668968508E+03  0.11668968508E+03  0.00000000000E+00 0.  1.
          6    1    1    2  501    0  0.19439780191E+03 -0.31053240000E+02  0.32306342896E+03  0.41599734162E+03  0.17300000000E+03 0.  1.
         -6    1    1    2    0  503 -0.19439780191E+03  0.31053240000E+02  0.17429856200E+03  0.31474401951E+03  0.17300000000E+03 0.  1.
</event>
<event>
 4    1  0.6031777E+000  0.1000000E+03  0.7546771E-02  0.1280296E+00
         21   -1    0    0  501  502  0.00000000000E+00  0.00000000000E+00  0.96771231682E+02  0.96771231682E+02  0.00000000000E+00 0.  1.
         21   -1    0    0  502  503 -0.00000000000E+00 -0.00000000000E+00 -0.58861245902E+03  0.58861245902E+03  0.00000000000E+00 0.  1.
          6    1    1    2  501    0 -0.26132185275E+02  0.11360087118E+03 -0.79435512252E+02  0.22321973400E+03  0.17300000000E+03 0.  1.
         -6    1    1    2    0  503  0.26132185275E+02 -0.11360087118E+03 -0.41240571509E+03  0.46216395671E+03  0.17300000000E+03 0.  1.
</event>
<event>
 4    1  0.6031777E+000  0.1000000E+03  0.7546771E-02  0.1280296E+00
         21   -1    0    0  501  502  0.00000000000E+00  0.00000000000E+00  0.19113357990E+03  0.19113357990E+03  0.00000000000E+00 0.  1.
         21   -1    0    0  502  503 -0.00000000000E+00 -0.00000000000E+00 -0.20735605738E+03  0.20735605738E+03  0.00000000000E+00 0.  1.
          6    1    1    2  501    0 -0.54651393320E+02 -0.81826888848E+02 -0.34931898669E+01  0.19905681829E+03  0.17300000000E+03 0.  1.
         -6    1    1    2    0  503  0.54651393320E+02  0.81826888848E+02 -0.12729287611E+02  0.19943281900E+03  0.17300000000E+03 0.  1.
</event>
<event>
 4    1  0.6031777E+000  0.1000000E+03  0.7546771E-02  0.1280296E+00
         21   -1    0    0  501  502  0.00000000000E+00  0.00000000000E+00  0.38331028869E+03  0.38331028869E+03  0.00000000000E+00 0.  1.
         21   -1    0    0  502  503 -0.00000000000E+00 -0.00000000000E+00 -0.17293486801E+03  0.17293486801E+03  0.00000000000E+00 0. -1.
          6    1    1    2  501    0  0.16457751687E+03 -0.94452542397E+02  0.84930070651E+02  0.27046101147E+03  0.17300000000E+03 0.  1.
         -6    1    1    2    0  503 -0.16457751687E+03  0.94452542397E+02  0.12544535003E+03  0.28578414523E+03  0.17300000000E+03 0.  1.
</event>
<event>
 4    1  0.6031777E+000  0.1000000E+03  0.7546771E-02  0.1280296E+00
         21   -1    0    0  501  502  0.00000000000E+00  0.00000000000E+00  0.72080820663E+03  0.72080820663E+03  0.00000000000E+00 0.  1.
         21   -1    0    0  502  503 -0.00000000000E+00 -0.00000000000E+00 -0.91864500934E+02  0.91864500934E+02  0.00000000000E+00 0. -1.
          6    1    1    2  501    0 -0.46789326786E+02  0.14240710458E+03  0.50009620430E+03  0.54999476188E+03  0.17300000000E+03 0.  1.
         -6    1    1    2    0  503  0.46789326786E+02 -0.14240710458E+03  0.12884750140E+03  0.26267794569E+03  0.17300000000E+03 0.  1.
</event>
<event>
 4    1  0.6031777E+000  0.1000000E+03  0.7546771E-02  0.1280296E+00
         21   -1    0    0  501  502  0.00000000000E+00  0.00000000000E+00  0.46299038928E+03  0.46299038928E+03  0.00000000000E+00 0.  1.
         21   -1    0    0  502  503 -0.00000000000E+00 -0.00000000000E+00 -0.91605426290E+02  0.91605426290E+02  0.00000000000E+00 0.  1.
          6    1    1    2  501    0 -0.79446696285E+02  0.71189966005E+02  0.14096089059E+03  0.24734340801E+03  0.17300000000E+03 0.  1.
         -6    1    1    2    0  503  0.79446696285E+02 -0.71189966005E+02  0.23042407240E+03  0.30725240756E+03  0.17300000000E+03 0.  1.
</event>
<event>
 4    1  0.6031777E+000  0.1000000E+03  0.7546771E-02  0.1280296E+00
         21   -1    0    0  503  502  0.00000000000E+00  0.00000000000E+00  0.31914152639E+03  0.31914152639E+03  0.00000000000E+00 0.  1.
         21   -1    0    0  501  503 -0.00000000000E+00 -0.00000000000E+00 -0.13136556351E+03  0.13136556351E+03  0.00000000000E+00 0.  1.
          6    1    1    2  501    0 -0.94080784376E+02  0.19705297728E+02  0.36137413842E+02  0.20118251770E+03  0.17300000000E+03 0.  1.
         -6    1    1    2    0  502  0.94080784376E+02 -0.19705297728E+02  0.15163854904E+03  0.24932457220E+03  0.17300000000E+03 0.  1.
</event>
<event>
 4    1  0.6031777E+000  0.1000000E+03  0.7546771E-02  0.1280296E+00
         21   -1    0    0  503  502  0.00000000000E+00  0.00000000000E+00  0.85857320752E+03  0.85857320752E+03  0.00000000000E+00 0.  1.
         21   -1    0    0  501  503 -0.00000000000E+00 -0.00000000000E+00 -0.81259355514E+02  0.81259355514E+02  0.00000000000E+00 0.  1.
          6    1    1    2  501    0  0.71428862932E+02 -0.16776828759E+03  0.24423535275E+03  0.35046852685E+03  0.17300000000E+03 0.  1.
         -6    1    1    2    0  502 -0.71428862932E+02  0.16776828759E+03  0.53307849926E+03  0.58936403619E+03  0.17300000000E+03 0.  1.
</event>
<event>
 4    1  0.6031777E+000  0.1000000E+03  0.7546771E-02  0.1280296E+00
         21   -1    0    0  503  502  0.00000000000E+00  0.00000000000E+00  0.17004146116E+03  0.17004146116E+03  0.00000000000E+00 0.  1.
         21   -1    0    0  501  503 -0.00000000000E+00 -0.00000000000E+00 -0.39560129542E+03  0.39560129542E+03  0.00000000000E+00 0.  1.
          6    1    1    2  501    0 -0.15497200447E+03  0.28340261581E+02 -0.23479411860E+03  0.33147665185E+03  0.17300000000E+03 0.  1.
         -6    1    1    2    0  502  0.15497200447E+03 -0.28340261581E+02  0.92342843369E+01  0.23416610472E+03  0.17300000000E+03 0.  1.
</event>
<event>
 4    1  0.6031777E+000  0.1000000E+03  0.7546771E-02  0.1280296E+00
         21   -1    0    0  503  502  0.00000000000E+00  0.00000000000E+00  0.16935717829E+03  0.16935717829E+03  0.00000000000E+00 0.  1.
         21   -1    0    0  501  503 -0.00000000000E+00 -0.00000000000E+00 -0.33506317084E+03  0.33506317084E+03  0.00000000000E+00 0.  1.
          6    1    1    2  501    0  0.27777364327E+02  0.70015166955E+02 -0.23680208998E+03  0.30278364453E+03  0.17300000000E+03 0.  1.
         -6    1    1    2    0  502 -0.27777364327E+02 -0.70015166955E+02  0.71096097439E+02  0.20163670460E+03  0.17300000000E+03 0.  1.
</event>
<event>
 4    1  0.6031777E+000  0.1000000E+03  0.7546771E-02  0.1280296E+00
         21   -1    0    0  503  502  0.00000000000E+00  0.00000000000E+00  0.34458361154E+03  0.34458361154E+03  0.00000000000E+00 0.  1.
         21   -1    0    0  501  503 -0.00000000000E+00 -0.00000000000E+00 -0.13487470200E+03  0.13487470200E+03  0.00000000000E+00 0.  1.
          6    1    1    2  501    0 -0.65789936179E+02  0.15311877622E+01 -0.18051224849E+02  0.18597179076E+03  0.17300000000E+03 0.  1.
         -6    1    1    2    0  502  0.65789936179E+02 -0.15311877622E+01  0.22776013439E+03  0.29348652278E+03  0.17300000000E+03 0.  1.
</event>
<event>
 4    1  0.6031777E+000  0.1000000E+03  0.7546771E-02  0.1280296E+00
         21   -1    0    0  503  502  0.00000000000E+00  0.00000000000E+00  0.20496146590E+03  0.20496146590E+03  0.00000000000E+00 0. -1.
         21   -1    0    0  501  503 -0.00000000000E+00 -0.00000000000E+00 -0.55707446116E+03  0.55707446116E+03  0.00000000000E+00 0. -1.
          6    1    1    2  501    0 -0.22719221317E+03  0.14160927315E+03 -0.30252966434E+03  0.43945726274E+03  0.17300000000E+03 0. -1.
         -6    1    1    2    0  502  0.22719221317E+03 -0.14160927315E+03 -0.49583330924E+02  0.32257866432E+03  0.17300000000E+03 0. -1.
</event>
<event>
 4    1  0.6031777E+000  0.1000000E+03  0.7546771E-02  0.1280296E+00
         21   -1    0    0  503  502  0.00000000000E+00  0.00000000000E+00  0.15665615965E+03  0.15665615965E+03  0.00000000000E+00 0. -1.
         21   -1    0    0  501  503 -0.00000000000E+00 -0.00000000000E+00 -0.11673661927E+04  0.11673661927E+04  0.00000000000E+00 0. -1.
          6    1    1    2  501    0  0.27502348453E+03 -0.53472245817E+02 -0.92774848033E+03  0.98445083213E+03  0.17300000000E+03 0. -1.
         -6    1    1    2    0  502 -0.27502348453E+03  0.53472245817E+02 -0.82961552731E+02  0.33957152023E+03  0.17300000000E+03 0. -1.
</event>
<event>
 4    1  0.6031777E+000  0.1000000E+03  0.7546771E-02  0.1280296E+00
         21   -1    0    0  503  502  0.00000000000E+00  0.00000000000E+00  0.48156370944E+03  0.48156370944E+03  0.00000000000E+00 0. -1.
         21   -1    0    0  501  503 -0.00000000000E+00 -0.00000000000E+00 -0.31290211304E+03  0.31290211304E+03  0.00000000000E+00 0. -1.
          6    1    1    2  501    0  0.32454024326E+03  0.86883540717E+02 -0.64987460006E+01  0.37795019890E+03  0.17300000000E+03 0. -1.
         -6    1    1    2    0  502 -0.32454024326E+03 -0.86883540717E+02  0.17516034240E+03  0.41651562359E+03  0.17300000000E+03 0. -1.
</event>
<event>
 4    1  0.6031777E+000  0.1000000E+03  0.7546771E-02  0.1280296E+00
         21   -1    0    0  503  502  0.00000000000E+00  0.00000000000E+00  0.15134516450E+03  0.15134516450E+03  0.00000000000E+00 0.  1.
         21   -1    0    0  501  503 -0.00000000000E+00 -0.00000000000E+00 -0.54976270697E+03  0.54976270697E+03  0.00000000000E+00 0.  1.
          6    1    1    2  501    0  0.59361222598E+02 -0.19071571949E+03 -0.33977781149E+03  0.43043489820E+03  0.17300000000E+03 0.  1.
         -6    1    1    2    0  502 -0.59361222598E+02  0.19071571949E+03 -0.58639730979E+02  0.27067297327E+03  0.17300000000E+03 0.  1.
</event>
<event>
 4    1  0.6031777E+000  0.1000000E+03  0.7546771E-02  0.1280296E+00
         21   -1    0    0  503  502  0.00000000000E+00  0.00000000000E+00  0.11843502353E+03  0.11843502353E+03  0.00000000000E+00 0.  1.
         21   -1    0    0  501  503 -0.00000000000E+00 -0.00000000000E+00 -0.82479688499E+03  0.82479688499E+03  0.00000000000E+00 0.  1.
          6    1    1    2  501    0  0.10913643252E+03  0.22058520467E+03 -0.48110613923E+03  0.56741581810E+03  0.17300000000E+03 0.  1.
         -6    1    1    2    0  502 -0.10913643252E+03 -0.22058520467E+03 -0.22525572224E+03  0.37581609042E+03  0.17300000000E+03 0.  1.
</event>
<event>
 4    1  0.6031777E+000  0.1000000E+03  0.7546771E-02  0.1280296E+00
         21   -1    0    0  501  502  0.00000000000E+00  0.00000000000E+00  0.29112154520E+02  0.29112154520E+02  0.00000000000E+00 0. -1.
         21   -1    0    0  502  503 -0.00000000000E+00 -0.00000000000E+00 -0.21075888847E+04  0.21075888847E+04  0.00000000000E+00 0.  1.
          6    1    1    2  501    0 -0.13818039498E+03 -0.57741676777E+02 -0.63007798996E+03  0.67033961261E+03  0.17300000000E+03 0.  1.
         -6    1    1    2    0  503  0.13818039498E+03  0.57741676777E+02 -0.14483987402E+04  0.14663614266E+04  0.17300000000E+03 0. -1.
</event>
<event>
 4    1  0.6031777E+000  0.1000000E+03  0.7546771E-02  0.1280296E+00
         21   -1    0    0  501  502  0.00000000000E+00  0.00000000000E+00  0.52486145408E+03  0.52486145408E+03  0.00000000000E+00 0. -1.
         21   -1    0    0  502  503 -0.00000000000E+00 -0.00000000000E+00 -0.80027860288E+02  0.80027860288E+02  0.00000000000E+00 0.  1.
          6    1    1    2  501    0  0.91053780545E+02 -0.50344269848E+02  0.17025897768E+03  0.26408797007E+03  0.17300000000E+03 0.  1.
         -6    1    1    2    0  503 -0.91053780545E+02  0.50344269848E+02  0.27457461612E+03  0.34080134430E+03  0.17300000000E+03 0. -1.
</event>
<event>
 4    1  0.6031777E+000  0.1000000E+03  0.7546771E-02  0.1280296E+00
         21   -1    0    0  501  502  0.00000000000E+00  0.00000000000E+00  0.98991309051E+02  0.98991309051E+02  0.00000000000E+00 0. -1.
         21   -1    0    0  502  503 -0.00000000000E+00 -0.00000000000E+00 -0.48794046774E+03  0.48794046774E+03  0.00000000000E+00 0.  1.
          6    1    1    2  501    0  0.96545031210E+02  0.79675624302E+02 -0.12504311431E+03  0.24745490214E+03  0.17300000000E+03 0.  1.
         -6    1    1    2    0  503 -0.96545031210E+02 -0.79675624302E+02 -0.26390604439E+03  0.33947687465E+03  0.17300000000E+03 0. -1.
</event>
<event>
 4    1  0.6031777E+000  0.1000000E+03  0.7546771E-02  0.1280296E+00
         21   -1    0    0  503  502  0.00000000000E+00  0.00000000000E+00  0.60606946000E+03  0.60606946000E+03  0.00000000000E+00 0.  1.
         21   -1    0    0  501  503 -0.00000000000E+00 -0.00000000000E+00 -0.73462363412E+02  0.73462363412E+02  0.00000000000E+00 0.  1.
          6    1    1    2  501    0 -0.70301122909E+02  0.35915339048E+02  0.11905712460E+03  0.22435632012E+03  0.17300000000E+03 0.  1.
         -6    1    1    2    0  502  0.70301122909E+02 -0.35915339048E+02  0.41354997200E+03  0.45517550329E+03  0.17300000000E+03 0.  1.
</event>
<event>
 4    1  0.6031777E+000  0.1000000E+03  0.7546771E-02  0.1280296E+00
         21   -1    0    0  503  502  0.00000000000E+00  0.00000000000E+00  0.49216375797E+02  0.49216375797E+02  0.00000000000E+00 0.  1.
         21   -1    0    0  501  503 -0.00000000000E+00 -0.00000000000E+00 -0.67617987530E+03  0.67617987530E+03  0.00000000000E+00 0.  1.
          6    1    1    2  501    0 -0.11237178416E+02  0.32494751130E+02 -0.40605446172E+03  0.44270916967E+03  0.17300000000E+03 0.  1.
         -6    1    1    2    0  502  0.11237178416E+02 -0.32494751130E+02 -0.22090903778E+03  0.28268708142E+03  0.17300000000E+03 0.  1.
</event>
<event>
 4    1  0.6031777E+000  0.1000000E+03  0.7546771E-02  0.1280296E+00
         21   -1    0    0  503  502  0.00000000000E+00  0.00000000000E+00  0.99309144024E+03  0.99309144024E+03  0.00000000000E+00 0.  1.
         21   -1    0    0  501  503 -0.00000000000E+00 -0.00000000000E+00 -0.45773958123E+02  0.45773958123E+02  0.00000000000E+00 0.  1.
          6    1    1    2  501    0 -0.80757058396E+02  0.53941294901E+02  0.28342114075E+03  0.34595940340E+03  0.17300000000E+03 0.  1.
         -6    1    1    2    0  502  0.80757058396E+02 -0.53941294901E+02  0.66389634138E+03  0.69290599497E+03  0.17300000000E+03 0.  1.
</event>
<event>
 4    1  0.6031777E+000  0.1000000E+03  0.7546771E-02  0.1280296E+00
         21   -1    0    0  503  502  0.00000000000E+00  0.00000000000E+00  0.12680404996E+04  0.12680404996E+04  0.00000000000E+00 0.  1.
         21   -1    0    0  501  503 -0.00000000000E+00 -0.00000000000E+00 -0.32992603213E+03  0.32992603213E+03  0.00000000000E+00 0. -1.
          6    1    1    2  501    0 -0.10406398178E+03 -0.48205326384E+02 -0.28766953182E+03  0.35473345675E+03  0.17300000000E+03 0. -1.
         -6    1    1    2    0  502  0.10406398178E+03  0.48205326384E+02  0.12257839993E+04  0.12432330750E+04  0.17300000000E+03 0.  1.
</event>
<event>
 4    1  0.6031777E+000  0.1000000E+03  0.7546771E-02  0.1280296E+00
         21   -1    0    0  503  502  0.00000000000E+00  0.00000000000E+00  0.45942934760E+02  0.45942934760E+02  0.00000000000E+00 0.  1.
         21   -1    0    0  501  503 -0.00000000000E+00 -0.00000000000E+00 -0.13785474408E+04  0.13785474408E+04  0.00000000000E+00 0. -1.
          6    1    1    2  501    0 -0.34533681106E+02  0.20631514581E+02 -0.11708891707E+04  0.11842840388E+04  0.17300000000E+03 0. -1.
         -6    1    1    2    0  502  0.34533681106E+02 -0.20631514581E+02 -0.16171533531E+03  0.24020633672E+03  0.17300000000E+03 0.  1.
</event>
<event>
 4    1  0.6031777E+000  0.1000000E+03  0.7546771E-02  0.1280296E+00
         21   -1    0    0  501  502  0.00000000000E+00  0.00000000000E+00  0.96732189193E+03  0.96732189193E+03  0.00000000000E+00 0.  1.
         21   -1    0    0  502  503 -0.00000000000E+00 -0.00000000000E+00 -0.15252773578E+03  0.15252773578E+03  0.00000000000E+00 0.  1.
          6    1    1    2  501    0 -0.26239962862E+03  0.64193232668E+02  0.71538400667E+03  0.78401378382E+03  0.17300000000E+03 0. -1.
         -6    1    1    2    0  503  0.26239962862E+03 -0.64193232668E+02  0.99410149482E+02  0.33583584389E+03  0.17300000000E+03 0. -1.
</event>
<event>
 4    1  0.6031777E+000  0.1000000E+03  0.7546771E-02  0.1280296E+00
         21   -1    0    0  501  502  0.00000000000E+00  0.00000000000E+00  0.38556169239E+03  0.38556169239E+03  0.00000000000E+00 0.  1.
         21   -1    0    0  502  503 -0.00000000000E+00 -0.00000000000E+00 -0.24378490471E+03  0.24378490471E+03  0.00000000000E+00 0.  1.
          6    1    1    2  501    0  0.17544585001E+03  0.16283837304E+03  0.15532386155E+03  0.33369459688E+03  0.17300000000E+03 0. -1.
         -6    1    1    2    0  503 -0.17544585001E+03 -0.16283837304E+03 -0.13547073865E+02  0.29565200022E+03  0.17300000000E+03 0. -1.
</event>
<event>
 4    1  0.6031777E+000  0.1000000E+03  0.7546771E-02  0.1280296E+00
         21   -1    0    0  501  502  0.00000000000E+00  0.00000000000E+00  0.64265881449E+02  0.64265881449E+02  0.00000000000E+00 0. -1.
         21   -1    0    0  502  503 -0.00000000000E+00 -0.00000000000E+00 -0.68838059396E+03  0.68838059396E+03  0.00000000000E+00 0. -1.
          6    1    1    2  501    0  0.34027455174E+01  0.25382932872E+01 -0.98158467866E+02  0.19895252304E+03  0.17300000000E+03 0. -1.
         -6    1    1    2    0  503 -0.34027455174E+01 -0.25382932872E+01 -0.52595624464E+03  0.55369395237E+03  0.17300000000E+03 0. -1.
</event>
<event>
 4    1  0.6031777E+000  0.1000000E+03  0.7546771E-02  0.1280296E+00
         21   -1    0    0  501  502  0.00000000000E+00  0.00000000000E+00  0.44631852261E+03  0.44631852261E+03  0.00000000000E+00 0. -1.
         21   -1    0    0  502  503 -0.00000000000E+00 -0.00000000000E+00 -0.20107569412E+03  0.20107569412E+03  0.00000000000E+00 0.  1.
          6    1    1    2  501    0 -0.93449197978E-01  0.90097275197E+02  0.36830176234E+03  0.41676458088E+03  0.17300000000E+03 0. -1.
         -6    1    1    2    0  503  0.93449197978E-01 -0.90097275197E+02 -0.12305893385E+03  0.23062963585E+03  0.17300000000E+03 0.  1.
</event>
<event>
 4    1  0.6031777E+000  0.1000000E+03  0.7546771E-02  0.1280296E+00
         21   -1    0    0  501  502  0.00000000000E+00  0.00000000000E+00  0.20645268446E+03  0.20645268446E+03  0.00000000000E+00 0. -1.
         21   -1    0    0  502  503 -0.00000000000E+00 -0.00000000000E+00 -0.21709109065E+03  0.21709109065E+03  0.00000000000E+00 0.  1.
          6    1    1    2  501    0 -0.69770790762E+02  0.79768679903E+02  0.55189827786E+02  0.21025204548E+03  0.17300000000E+03 0. -1.
         -6    1    1    2    0  503  0.69770790762E+02 -0.79768679903E+02 -0.65828233978E+02  0.21329172962E+03  0.17300000000E+03 0.  1.
</event>
<event>
 4    1  0.6031777E+000  0.1000000E+03  0.7546771E-02  0.1280296E+00
         21   -1    0    0  501  502  0.00000000000E+00  0.00000000000E+00  0.44437120110E+02  0.44437120110E+02  0.00000000000E+00 0. -1.
         21   -1    0    0  502  503 -0.00000000000E+00 -0.00000000000E+00 -0.13909581809E+04  0.13909581809E+04  0.00000000000E+00 0.  1.
          6    1    1    2  501    0  0.11663460102E+03 -0.47127777473E+02 -0.30746598676E+03  0.37455171950E+03  0.17300000000E+03 0. -1.
         -6    1    1    2    0  503 -0.11663460102E+03  0.47127777473E+02 -0.10390550740E+04  0.10608435815E+04  0.17300000000E+03 0.  1.
</event>
<event>
 4    1  0.6031777E+000  0.1000000E+03  0.7546771E-02  0.1280296E+00
         21   -1    0    0  501  502  0.00000000000E+00  0.00000000000E+00  0.19186516917E+02  0.19186516917E+02  0.00000000000E+00 0. -1.
         21   -1    0    0  502  503 -0.00000000000E+00 -0.00000000000E+00 -0.19707472771E+04  0.19707472771E+04  0.00000000000E+00 0.  1.
          6    1    1    2  501    0 -0.18990184412E+02  0.79628141407E+02 -0.79990160984E+03  0.82247969789E+03  0.17300000000E+03 0. -1.
         -6    1    1    2    0  503  0.18990184412E+02 -0.79628141407E+02 -0.11516591503E+04  0.11674540961E+04  0.17300000000E+03 0.  1.
</event>
<event>
 4    1  0.6031777E+000  0.1000000E+03  0.7546771E-02  0.1280296E+00
         21   -1    0    0  501  502  0.00000000000E+00  0.00000000000E+00  0.77187756521E+03  0.77187756521E+03  0.00000000000E+00 0. -1.
         21   -1    0    0  502  503 -0.00000000000E+00 -0.00000000000E+00 -0.12913994217E+03  0.12913994217E+03  0.00000000000E+00 0.  1.
          6    1    1    2  501    0  0.14794815776E+03 -0.16276313532E+03  0.52996597324E+03  0.59931079450E+03  0.17300000000E+03 0. -1.
         -6    1    1    2    0  503 -0.14794815776E+03  0.16276313532E+03  0.11277164979E+03  0.30170671288E+03  0.17300000000E+03 0.  1.
</event>
<event>
 4    1  0.6031777E+000  0.1000000E+03  0.7546771E-02  0.1280296E+00
         21   -1    0    0  501  502  0.00000000000E+00  0.00000000000E+00  0.20333780654E+03  0.20333780654E+03  0.00000000000E+00 0. -1.
         21   -1    0    0  502  503 -0.00000000000E+00 -0.00000000000E+00 -0.19107416549E+03  0.19107416549E+03  0.00000000000E+00 0. -1.
          6    1    1    2  501    0 -0.27201182596E+02 -0.86683754636E+02  0.32021433609E+02  0.19801098420E+03  0.17300000000E+03 0. -1.
         -6    1    1    2    0  503  0.27201182596E+02  0.86683754636E+02 -0.19757792559E+02  0.19640098783E+03  0.17300000000E+03 0. -1.
</event>
<event>
 4    1  0.6031777E+000  0.1000000E+03  0.7546771E-02  0.1280296E+00
         21   -1    0    0  501  502  0.00000000000E+00  0.00000000000E+00  0.10269392476E+04  0.10269392476E+04  0.00000000000E+00 0. -1.
         21   -1    0    0  502  503 -0.00000000000E+00 -0.00000000000E+00 -0.77076301725E+02  0.77076301725E+02  0.00000000000E+00 0. -1.
          6    1    1    2  501    0  0.11598405794E+03 -0.65540730439E+02  0.82302881385E+03  0.85150062682E+03  0.17300000000E+03 0. -1.
         -6    1    1    2    0  503 -0.11598405794E+03  0.65540730439E+02  0.12683413203E+03  0.25251492251E+03  0.17300000000E+03 0. -1.
</event>
<event>
 4    1  0.6031777E+000  0.1000000E+03  0.7546771E-02  0.1280296E+00
         21   -1    0    0  501  502  0.00000000000E+00  0.00000000000E+00  0.74783344278E+02  0.74783344278E+02  0.00000000000E+00 0. -1.
         21   -1    0    0  502  503 -0.00000000000E+00 -0.00000000000E+00 -0.62204861964E+03  0.62204861964E+03  0.00000000000E+00 0. -1.
          6    1    1    2  501    0 -0.92502127327E+02  0.87844138439E+02 -0.24488737676E+03  0.32584054921E+03  0.17300000000E+03 0. -1.
         -6    1    1    2    0  503  0.92502127327E+02 -0.87844138439E+02 -0.30237789861E+03  0.37099141470E+03  0.17300000000E+03 0. -1.
</event>
<event>
 4    1  0.6031777E+000  0.1000000E+03  0.7546771E-02  0.1280296E+00
         21   -1    0    0  503  502  0.00000000000E+00  0.00000000000E+00  0.69812998675E+03  0.69812998675E+03  0.00000000000E+00 0. -1.
         21   -1    0    0  501  503 -0.00000000000E+00 -0.00000000000E+00 -0.79298083193E+02  0.79298083193E+02  0.00000000000E+00 0. -1.
          6    1    1    2  501    0 -0.73498067882E+02 -0.12411450001E+03  0.42176938527E+03  0.47814724661E+03  0.17300000000E+03 0. -1.
         -6    1    1    2    0  502  0.73498067882E+02  0.12411450001E+03  0.19706251829E+03  0.29928082332E+03  0.17300000000E+03 0. -1.
</event>
<event>
 4    1  0.6031777E+000  0.1000000E+03  0.7546771E-02  0.1280296E+00
         21   -1    0    0  503  502  0.00000000000E+00  0.00000000000E+00  0.48407551487E+02  0.48407551487E+02  0.00000000000E+00 0. -1.
         21   -1    0    0  501  503 -0.00000000000E+00 -0.00000000000E+00 -0.17448150800E+04  0.17448150800E+04  0.00000000000E+00 0. -1.
          6    1    1    2  501    0 -0.13187854947E+03 -0.70750577096E+02 -0.14012562680E+04  0.14198048191E+04  0.17300000000E+03 0. -1.
         -6    1    1    2    0  502  0.13187854947E+03  0.70750577096E+02 -0.29515126057E+03  0.37341781236E+03  0.17300000000E+03 0. -1.
</event>
<event>
 4    1  0.6031777E+000  0.1000000E+03  0.7546771E-02  0.1280296E+00
         21   -1    0    0  503  502  0.00000000000E+00  0.00000000000E+00  0.82467668538E+02  0.82467668538E+02  0.00000000000E+00 0.  1.
         21   -1    0    0  501  503 -0.00000000000E+00 -0.00000000000E+00 -0.53664643185E+03  0.53664643185E+03  0.00000000000E+00 0.  1.
          6    1    1    2  501    0 -0.93978855012E+02 -0.11355118866E+02 -0.33487993612E+03  0.38863161931E+03  0.17300000000E+03 0.  1.
         -6    1    1    2    0  502  0.93978855012E+02  0.11355118866E+02 -0.11929882719E+03  0.23048248108E+03  0.17300000000E+03 0.  1.
</event>
<event>
 4    1  0.6031777E+000  0.1000000E+03  0.7546771E-02  0.1280296E+00
         21   -1    0    0  503  502  0.00000000000E+00  0.00000000000E+00  0.33376556317E+03  0.33376556317E+03  0.00000000000E+00 0. -1.
         21   -1    0    0  501  503 -0.00000000000E+00 -0.00000000000E+00 -0.16035778053E+03  0.16035778053E+03  0.00000000000E+00 0.  1.
          6    1    1    2  501    0  0.23058016501E+02  0.73887930210E+02 -0.54979262939E+02  0.19733934658E+03  0.17300000000E+03 0.  1.
         -6    1    1    2    0  502 -0.23058016501E+02 -0.73887930210E+02  0.22838704558E+03  0.29678399711E+03  0.17300000000E+03 0. -1.
</event>
<event>
 4    1  0.6031777E+000  0.1000000E+03  0.7546771E-02  0.1280296E+00
         21   -1    0    0  503  502  0.00000000000E+00  0.00000000000E+00  0.14713433515E+03  0.14713433515E+03  0.00000000000E+00 0. -1.
         21   -1    0    0  501  503 -0.00000000000E+00 -0.00000000000E+00 -0.32658383402E+03  0.32658383402E+03  0.00000000000E+00 0.  1.
          6    1    1    2  501    0 -0.51243616857E+01  0.10843413636E+03 -0.17575041780E+03  0.26944652598E+03  0.17300000000E+03 0.  1.
         -6    1    1    2    0  502  0.51243616857E+01 -0.10843413636E+03 -0.36990810750E+01  0.20427164319E+03  0.17300000000E+03 0. -1.
</event>
<event>
 4    1  0.6031777E+000  0.1000000E+03  0.7546771E-02  0.1280296E+00
         21   -1    0    0  501  502  0.00000000000E+00  0.00000000000E+00  0.53022078197E+02  0.53022078197E+02  0.00000000000E+00 0. -1.
         21   -1    0    0  502  503 -0.00000000000E+00 -0.00000000000E+00 -0.73714068773E+03  0.73714068773E+03  0.00000000000E+00 0. -1.
          6    1    1    2  501    0  0.54337952007E+02  0.51890576597E+02 -0.46046337636E+03  0.49759498183E+03  0.17300000000E+03 0. -1.
         -6    1    1    2    0  503 -0.54337952007E+02 -0.51890576597E+02 -0.22365523317E+03  0.29256778410E+03  0.17300000000E+03 0. -1.
</event>
<event>
 4    1  0.6031777E+000  0.1000000E+03  0.7546771E-02  0.1280296E+00
         21   -1    0    0  501  502  0.00000000000E+00  0.00000000000E+00  0.20423477554E+03  0.20423477554E+03  0.00000000000E+00 0. -1.
         21   -1    0    0  502  503 -0.00000000000E+00 -0.00000000000E+00 -0.25931043653E+03  0.25931043653E+03  0.00000000000E+00 0. -1.
          6    1    1    2  501    0 -0.70342281467E+02 -0.10727228643E+03 -0.10920782167E+03  0.24147614440E+03  0.17300000000E+03 0. -1.
         -6    1    1    2    0  503  0.70342281467E+02  0.10727228643E+03  0.54132160678E+02  0.22206906767E+03  0.17300000000E+03 0. -1.
</event>
<event>
 4    1  0.6031777E+000  0.1000000E+03  0.7546771E-02  0.1280296E+00
         21   -1    0    0  503  502  0.00000000000E+00  0.00000000000E+00  0.62223471842E+03  0.62223471842E+03  0.00000000000E+00 0.  1.
         21   -1    0    0  501  503 -0.00000000000E+00 -0.00000000000E+00 -0.18514853483E+03  0.18514853483E+03  0.00000000000E+00 0.  1.
          6    1    1    2  501    0  0.73897836558E+01  0.14420007215E+03 -0.83349009705E+02  0.24025887523E+03  0.17300000000E+03 0.  1.
         -6    1    1    2    0  502 -0.73897836558E+01 -0.14420007215E+03  0.52043519330E+03  0.56712437801E+03  0.17300000000E+03 0.  1.
</event>
<event>
 4    1  0.6031777E+000  0.1000000E+03  0.7546771E-02  0.1280296E+00
         21   -1    0    0  503  502  0.00000000000E+00  0.00000000000E+00  0.89273954864E+02  0.89273954864E+02  0.00000000000E+00 0.  1.
         21   -1    0    0  501  503 -0.00000000000E+00 -0.00000000000E+00 -0.35176336707E+03  0.35176336707E+03  0.00000000000E+00 0.  1.
          6    1    1    2  501    0 -0.17811378628E+02 -0.18302679408E+02 -0.16692373493E+03  0.24175352441E+03  0.17300000000E+03 0.  1.
         -6    1    1    2    0  502  0.17811378628E+02  0.18302679408E+02 -0.95565677280E+02  0.19928379753E+03  0.17300000000E+03 0.  1.
</event>
<event>
 4    1  0.6031777E+000  0.1000000E+03  0.7546771E-02  0.1280296E+00
         21   -1    0    0  503  502  0.00000000000E+00  0.00000000000E+00  0.31437789743E+03  0.31437789743E+03  0.00000000000E+00 0. -1.
         21   -1    0    0  501  503 -0.00000000000E+00 -0.00000000000E+00 -0.22737258993E+03  0.22737258993E+03  0.00000000000E+00 0. -1.
          6    1    1    2  501    0 -0.13390345044E+03 -0.69241029766E+02 -0.95515063825E+02  0.24854895224E+03  0.17300000000E+03 0. -1.
         -6    1    1    2    0  502  0.13390345044E+03  0.69241029766E+02  0.18252037133E+03  0.29320153511E+03  0.17300000000E+03 0. -1.
</event>
<event>
 4    1  0.6031777E+000  0.1000000E+03  0.7546771E-02  0.1280296E+00
         21   -1    0    0  503  502  0.00000000000E+00  0.00000000000E+00  0.20918538782E+03  0.20918538782E+03  0.00000000000E+00 0. -1.
         21   -1    0    0  501  503 -0.00000000000E+00 -0.00000000000E+00 -0.24798681921E+03  0.24798681921E+03  0.00000000000E+00 0. -1.
          6    1    1    2  501    0  0.25357677559E+02  0.99076758874E+02 -0.12696627021E+03  0.23771548063E+03  0.17300000000E+03 0. -1.
         -6    1    1    2    0  502 -0.25357677559E+02 -0.99076758874E+02  0.88164838814E+02  0.21945672640E+03  0.17300000000E+03 0. -1.
</event>
<event>
 4    1  0.6031777E+000  0.1000000E+03  0.7546771E-02  0.1280296E+00
         21   -1    0    0  503  502  0.00000000000E+00  0.00000000000E+00  0.85909455725E+02  0.85909455725E+02  0.00000000000E+00 0. -1.
         21   -1    0    0  501  503 -0.00000000000E+00 -0.00000000000E+00 -0.11596424084E+04  0.11596424084E+04  0.00000000000E+00 0. -1.
          6    1    1    2  501    0  0.15184723531E+03  0.16696724367E+03 -0.80711363387E+03  0.85574357217E+03  0.17300000000E+03 0. -1.
         -6    1    1    2    0  502 -0.15184723531E+03 -0.16696724367E+03 -0.26661931885E+03  0.38980829200E+03  0.17300000000E+03 0. -1.
</event>
<event>
 4    1  0.6031777E+000  0.1000000E+03  0.7546771E-02  0.1280296E+00
         21   -1    0    0  503  502  0.00000000000E+00  0.00000000000E+00  0.47011475415E+02  0.47011475415E+02  0.00000000000E+00 0. -1.
         21   -1    0    0  501  503 -0.00000000000E+00 -0.00000000000E+00 -0.98293064002E+03  0.98293064002E+03  0.00000000000E+00 0. -1.
          6    1    1    2  501    0 -0.58348542151E+02 -0.11196859354E+03 -0.51203532304E+03  0.55502314398E+03  0.17300000000E+03 0. -1.
         -6    1    1    2    0  502  0.58348542151E+02  0.11196859354E+03 -0.42388384156E+03  0.47491897145E+03  0.17300000000E+03 0. -1.
</event>
<event>
 4    1  0.6031777E+000  0.1000000E+03  0.7546771E-02  0.1280296E+00
         21   -1    0    0  503  502  0.00000000000E+00  0.00000000000E+00  0.11133846980E+04  0.11133846980E+04  0.00000000000E+00 0. -1.
         21   -1    0    0  501  503 -0.00000000000E+00 -0.00000000000E+00 -0.29590749529E+02  0.29590749529E+02  0.00000000000E+00 0. -1.
          6    1    1    2  501    0 -0.27048519335E+02 -0.10884095903E+02  0.39533682753E+03  0.43251623454E+03  0.17300000000E+03 0. -1.
         -6    1    1    2    0  502  0.27048519335E+02  0.10884095903E+02  0.68845712093E+03  0.71045921298E+03  0.17300000000E+03 0. -1.
</event>
<event>
 4    1  0.6031777E+000  0.1000000E+03  0.7546771E-02  0.1280296E+00
         21   -1    0    0  501  502  0.00000000000E+00  0.00000000000E+00  0.62894888992E+02  0.62894888992E+02  0.00000000000E+00 0.  1.
         21   -1    0    0  502  503 -0.00000000000E+00 -0.00000000000E+00 -0.11405911223E+04  0.11405911223E+04  0.00000000000E+00 0. -1.
          6    1    1    2  501    0 -0.92184559888E+01  0.16568906967E+03 -0.27046323986E+03  0.36141003286E+03  0.17300000000E+03 0.  1.
         -6    1    1    2    0  503  0.92184559888E+01 -0.16568906967E+03 -0.80723299343E+03  0.84207597841E+03  0.17300000000E+03 0. -1.
</event>
<event>
 4    1  0.6031777E+000  0.1000000E+03  0.7546771E-02  0.1280296E+00
         21   -1    0    0  501  502  0.00000000000E+00  0.00000000000E+00  0.14548616031E+03  0.14548616031E+03  0.00000000000E+00 0.  1.
         21   -1    0    0  502  503 -0.00000000000E+00 -0.00000000000E+00 -0.63091858334E+03  0.63091858334E+03  0.00000000000E+00 0.  1.
          6    1    1    2  501    0  0.10383105564E+03 -0.17237683950E+03 -0.55421751968E+02  0.27110004335E+03  0.17300000000E+03 0. -1.
         -6    1    1    2    0  503 -0.10383105564E+03  0.17237683950E+03 -0.43001067106E+03  0.50530470030E+03  0.17300000000E+03 0. -1.
</event>
<event>
 4    1  0.6031777E+000  0.1000000E+03  0.7546771E-02  0.1280296E+00
         21   -1    0    0  503  502  0.00000000000E+00  0.00000000000E+00  0.14914536891E+03  0.14914536891E+03  0.00000000000E+00 0.  1.
         21   -1    0    0  501  503 -0.00000000000E+00 -0.00000000000E+00 -0.54999939094E+03  0.54999939094E+03  0.00000000000E+00 0. -1.
          6    1    1    2  501    0  0.39567207969E+02 -0.19440291266E+03 -0.33820620843E+03  0.42856795940E+03  0.17300000000E+03 0.  1.
         -6    1    1    2    0  502 -0.39567207969E+02  0.19440291266E+03 -0.62647813599E+02  0.27057680046E+03  0.17300000000E+03 0.  1.
</event>
<event>
 4    1  0.6031777E+000  0.1000000E+03  0.7546771E-02  0.1280296E+00
         21   -1    0    0  503  502  0.00000000000E+00  0.00000000000E+00  0.27799122009E+03  0.27799122009E+03  0.00000000000E+00 0.  1.
         21   -1    0    0  501  503 -0.00000000000E+00 -0.00000000000E+00 -0.12684895917E+03  0.12684895917E+03  0.00000000000E+00 0. -1.
          6    1    1    2  501    0  0.25453430588E+02 -0.45180614756E+02  0.13100630783E+03  0.22311615309E+03  0.17300000000E+03 0. -1.
         -6    1    1    2    0  502 -0.25453430588E+02  0.45180614756E+02  0.20135953085E+02  0.18172402616E+03  0.17300000000E+03 0.  1.
</event>
<event>
 4    1  0.6031777E+000  0.1000000E+03  0.7546771E-02  0.1280296E+00
         21   -1    0    0  503  502  0.00000000000E+00  0.00000000000E+00  0.27589900544E+02  0.27589900544E+02  0.00000000000E+00 0.  1.
         21   -1    0    0  501  503 -0.00000000000E+00 -0.00000000000E+00 -0.23198184035E+04  0.23198184035E+04  0.00000000000E+00 0. -1.
          6    1    1    2  501    0 -0.46282766467E+02 -0.14793527962E+03 -0.68107658804E+03  0.71959798513E+03  0.17300000000E+03 0. -1.
         -6    1    1    2    0  502  0.46282766467E+02  0.14793527962E+03 -0.16111519149E+04  0.16278103189E+04  0.17300000000E+03 0.  1.
</event>
<event>
 4    1  0.6031777E+000  0.1000000E+03  0.7546771E-02  0.1280296E+00
         21   -1    0    0  503  502  0.00000000000E+00  0.00000000000E+00  0.18193600078E+03  0.18193600078E+03  0.00000000000E+00 0.  1.
         21   -1    0    0  501  503 -0.00000000000E+00 -0.00000000000E+00 -0.29647268823E+03  0.29647268823E+03  0.00000000000E+00 0. -1.
          6    1    1    2  501    0  0.70661881770E+02 -0.54100209839E+02 -0.18791462442E+03  0.27048260630E+03  0.17300000000E+03 0. -1.
         -6    1    1    2    0  502 -0.70661881770E+02  0.54100209839E+02  0.73377936966E+02  0.20792608272E+03  0.17300000000E+03 0.  1.
</event>
<event>
 4    1  0.6031777E+000  0.1000000E+03  0.7546771E-02  0.1280296E+00
         21   -1    0    0  503  502  0.00000000000E+00  0.00000000000E+00  0.55918046001E+03  0.55918046001E+03  0.00000000000E+00 0.  1.
         21   -1    0    0  501  503 -0.00000000000E+00 -0.00000000000E+00 -0.70609303065E+02  0.70609303065E+02  0.00000000000E+00 0. -1.
          6    1    1    2  501    0  0.34286778038E+02 -0.25230490327E+02  0.10484463024E+03  0.20672096478E+03  0.17300000000E+03 0. -1.
         -6    1    1    2    0  502 -0.34286778038E+02  0.25230490327E+02  0.38372652671E+03  0.42306879830E+03  0.17300000000E+03 0.  1.
</event>
<event>
 4    1  0.6031777E+000  0.1000000E+03  0.7546771E-02  0.1280296E+00
         21   -1    0    0  503  502  0.00000000000E+00  0.00000000000E+00  0.64087254722E+02  0.64087254722E+02  0.00000000000E+00 0.  1.
         21   -1    0    0  501  503 -0.00000000000E+00 -0.00000000000E+00 -0.54134069415E+03  0.54134069415E+03  0.00000000000E+00 0. -1.
          6    1    1    2  501    0  0.34851243526E+02  0.44200894705E+02 -0.30354819426E+03  0.35389099241E+03  0.17300000000E+03 0. -1.
         -6    1    1    2    0  502 -0.34851243526E+02 -0.44200894705E+02 -0.17370524516E+03  0.25153695646E+03  0.17300000000E+03 0.  1.
</event>
<event>
 4    1  0.6031777E+000  0.1000000E+03  0.7546771E-02  0.1280296E+00
         21   -1    0    0  503  502  0.00000000000E+00  0.00000000000E+00  0.14776607702E+03  0.14776607702E+03  0.00000000000E+00 0.  1.
         21   -1    0    0  501  503 -0.00000000000E+00 -0.00000000000E+00 -0.51083864276E+03  0.51083864276E+03  0.00000000000E+00 0. -1.
          6    1    1    2  501    0  0.25517271316E+02 -0.88670455251E+02 -0.41221793695E+03  0.45647147590E+03  0.17300000000E+03 0. -1.
         -6    1    1    2    0  502 -0.25517271316E+02  0.88670455251E+02  0.49145371209E+02  0.20213324388E+03  0.17300000000E+03 0.  1.
</event>
<event>
 4    1  0.6031777E+000  0.1000000E+03  0.7546771E-02  0.1280296E+00
         21   -1    0    0  503  502  0.00000000000E+00  0.00000000000E+00  0.59643237683E+03  0.59643237683E+03  0.00000000000E+00 0.  1.
         21   -1    0    0  501  503 -0.00000000000E+00 -0.00000000000E+00 -0.53330253243E+02  0.53330253243E+02  0.00000000000E+00 0.  1.
          6    1    1    2  501    0 -0.36579262302E+02  0.17103467396E+01  0.22930201138E+03  0.28956757440E+03  0.17300000000E+03 0.  1.
         -6    1    1    2    0  502  0.36579262302E+02 -0.17103467396E+01  0.31380011221E+03  0.36019505568E+03  0.17300000000E+03 0.  1.
</event>
<event>
 4    1  0.6031777E+000  0.1000000E+03  0.7546771E-02  0.1280296E+00
         21   -1    0    0  501  502  0.00000000000E+00  0.00000000000E+00  0.44937722890E+03  0.44937722890E+03  0.00000000000E+00 0. -1.
         21   -1    0    0  502  503 -0.00000000000E+00 -0.00000000000E+00 -0.12457636154E+03  0.12457636154E+03  0.00000000000E+00 0. -1.
          6    1    1    2  501    0  0.34851773710E+02  0.11236318045E+03  0.29643856949E+03  0.36282910017E+03  0.17300000000E+03 0. -1.
         -6    1    1    2    0  503 -0.34851773710E+02 -0.11236318045E+03  0.28362297880E+02  0.21112449027E+03  0.17300000000E+03 0. -1.
</event>
<event>
 4    1  0.6031777E+000  0.1000000E+03  0.7546771E-02  0.1280296E+00
         21   -1    0    0  501  502  0.00000000000E+00  0.00000000000E+00  0.43291130347E+02  0.43291130347E+02  0.00000000000E+00 0. -1.
         21   -1    0    0  502  503 -0.00000000000E+00 -0.00000000000E+00 -0.90545528317E+03  0.90545528317E+03  0.00000000000E+00 0. -1.
          6    1    1    2  501    0 -0.87548779860E+02  0.39448131663E+01 -0.33557705359E+03  0.38758393840E+03  0.17300000000E+03 0. -1.
         -6    1    1    2    0  503  0.87548779860E+02 -0.39448131663E+01 -0.52658709923E+03  0.56116247512E+03  0.17300000000E+03 0. -1.
</event>
<event>
 4    1  0.6031777E+000  0.1000000E+03  0.7546771E-02  0.1280296E+00
         21   -1    0    0  501  502  0.00000000000E+00  0.00000000000E+00  0.78866171945E+03  0.78866171945E+03  0.00000000000E+00 0. -1.
         21   -1    0    0  502  503 -0.00000000000E+00 -0.00000000000E+00 -0.11256369348E+03  0.11256369348E+03  0.00000000000E+00 0. -1.
          6    1    1    2  501    0 -0.43828312694E+02 -0.38957465724E+02  0.69404203213E+03  0.71767816428E+03  0.17300000000E+03 0. -1.
         -6    1    1    2    0  503  0.43828312694E+02  0.38957465724E+02 -0.17944006157E+02  0.18354724865E+03  0.17300000000E+03 0. -1.
</event>
<event>
 4    1  0.6031777E+000  0.1000000E+03  0.7546771E-02  0.1280296E+00
         21   -1    0    0  503  502  0.00000000000E+00  0.00000000000E+00  0.98348021291E+03  0.98348021291E+03  0.00000000000E+00 0.  1.
         21   -1    0    0  501  503 -0.00000000000E+00 -0.00000000000E+00 -0.11265107494E+03  0.11265107494E+03  0.00000000000E+00 0.  1.
          6    1    1    2  501    0 -0.19624186644E+03 -0.18400272458E+03  0.28366811635E+03  0.42750961747E+03  0.17300000000E+03 0.  1.
         -6    1    1    2    0  502  0.19624186644E+03  0.18400272458E+03  0.58716102161E+03  0.66862167038E+03  0.17300000000E+03 0.  1.
</event>
<event>
 4    1  0.6031777E+000  0.1000000E+03  0.7546771E-02  0.1280296E+00
         21   -1    0    0  501  502  0.00000000000E+00  0.00000000000E+00  0.14940586547E+04  0.14940586547E+04  0.00000000000E+00 0. -1.
         21   -1    0    0  502  503 -0.00000000000E+00 -0.00000000000E+00 -0.96948906999E+03  0.96948906999E+03  0.00000000000E+00 0. -1.
          6    1    1    2  501    0 -0.26322480421E+03  0.38854343962E+03  0.13826429816E+04  0.14703346274E+04  0.17300000000E+03 0. -1.
         -6    1    1    2    0  503  0.26322480421E+03 -0.38854343962E+03 -0.85807339693E+03  0.99321309724E+03  0.17300000000E+03 0. -1.
</event>
<event>
 4    1  0.6031777E+000  0.1000000E+03  0.7546771E-02  0.1280296E+00
         21   -1    0    0  503  502  0.00000000000E+00  0.00000000000E+00  0.16020503860E+03  0.16020503860E+03  0.00000000000E+00 0.  1.
         21   -1    0    0  501  503 -0.00000000000E+00 -0.00000000000E+00 -0.24660081924E+03  0.24660081924E+03  0.00000000000E+00 0. -1.
          6    1    1    2  501    0  0.69851473843E+02  0.24534545357E+02  0.22300326408E+02  0.18949268290E+03  0.17300000000E+03 0.  1.
         -6    1    1    2    0  502 -0.69851473843E+02 -0.24534545357E+02 -0.10869610705E+03  0.21731317494E+03  0.17300000000E+03 0. -1.
</event>
<event>
 4    1  0.6031777E+000  0.1000000E+03  0.7546771E-02  0.1280296E+00
         21   -1    0    0  503  502  0.00000000000E+00  0.00000000000E+00  0.14846330250E+03  0.14846330250E+03  0.00000000000E+00 0.  1.
         21   -1    0    0  501  503 -0.00000000000E+00 -0.00000000000E+00 -0.47288183821E+03  0.47288183821E+03  0.00000000000E+00 0. -1.
          6    1    1    2  501    0  0.19629827988E+03  0.39675972088E+02 -0.17747003029E+03  0.31864056411E+03  0.17300000000E+03 0.  1.
         -6    1    1    2    0  502 -0.19629827988E+03 -0.39675972088E+02 -0.14694850543E+03  0.30270457660E+03  0.17300000000E+03 0. -1.
</event>
<event>
 4    1  0.6031777E+000  0.1000000E+03  0.7546771E-02  0.1280296E+00
         21   -1    0    0  503  502  0.00000000000E+00  0.00000000000E+00  0.17903961278E+03  0.17903961278E+03  0.00000000000E+00 0.  1.
         21   -1    0    0  501  503 -0.00000000000E+00 -0.00000000000E+00 -0.42817075028E+03  0.42817075028E+03  0.00000000000E+00 0. -1.
          6    1    1    2  501    0 -0.14410984562E+03  0.92536919377E+02 -0.26920882763E+03  0.36295057780E+03  0.17300000000E+03 0. -1.
         -6    1    1    2    0  502  0.14410984562E+03 -0.92536919377E+02  0.20077690131E+02  0.24425978526E+03  0.17300000000E+03 0.  1.
</event>
<event>
 4    1  0.6031777E+000  0.1000000E+03  0.7546771E-02  0.1280296E+00
         21   -1    0    0  503  502  0.00000000000E+00  0.00000000000E+00  0.15039687792E+03  0.15039687792E+03  0.00000000000E+00 0.  1.
         21   -1    0    0  501  503 -0.00000000000E+00 -0.00000000000E+00 -0.12324446883E+04  0.12324446883E+04  0.00000000000E+00 0. -1.
          6    1    1    2  501    0  0.15517714098E+03 -0.89233088704E+02 -0.11051410887E+04  0.11328319890E+04  0.17300000000E+03 0. -1.
         -6    1    1    2    0  502 -0.15517714098E+03  0.89233088704E+02  0.23093278379E+02  0.25000957723E+03  0.17300000000E+03 0.  1.
</event>
<event>
 4    1  0.6031777E+000  0.1000000E+03  0.7546771E-02  0.1280296E+00
         21   -1    0    0  503  502  0.00000000000E+00  0.00000000000E+00  0.16666963215E+03  0.16666963215E+03  0.00000000000E+00 0. -1.
         21   -1    0    0  501  503 -0.00000000000E+00 -0.00000000000E+00 -0.91141733259E+03  0.91141733259E+03  0.00000000000E+00 0.  1.
          6    1    1    2  501    0  0.18775491057E+03 -0.12435835461E+03 -0.74157144880E+03  0.79408697287E+03  0.17300000000E+03 0. -1.
         -6    1    1    2    0  502 -0.18775491057E+03  0.12435835461E+03 -0.31762516396E+01  0.28399999186E+03  0.17300000000E+03 0. -1.
</event>
<event>
 4    1  0.6031777E+000  0.1000000E+03  0.7546771E-02  0.1280296E+00
         21   -1    0    0  503  502  0.00000000000E+00  0.00000000000E+00  0.22785510728E+04  0.22785510728E+04  0.00000000000E+00 0.  1.
         21   -1    0    0  501  503 -0.00000000000E+00 -0.00000000000E+00 -0.31725240388E+02  0.31725240388E+02  0.00000000000E+00 0. -1.
          6    1    1    2  501    0  0.83715731633E+01  0.20337191782E+03  0.99250666946E+03  0.10278271786E+04  0.17300000000E+03 0. -1.
         -6    1    1    2    0  502 -0.83715731633E+01 -0.20337191782E+03  0.12543191630E+04  0.12824491346E+04  0.17300000000E+03 0. -1.
</event>
<event>
 4    1  0.6031777E+000  0.1000000E+03  0.7546771E-02  0.1280296E+00
         21   -1    0    0  503  502  0.00000000000E+00  0.00000000000E+00  0.68977445163E+02  0.68977445163E+02  0.00000000000E+00 0.  1.
         21   -1    0    0  501  503 -0.00000000000E+00 -0.00000000000E+00 -0.52138203709E+03  0.52138203709E+03  0.00000000000E+00 0. -1.
          6    1    1    2  501    0  0.95630405739E+01  0.75267025000E+02 -0.25215580981E+03  0.31506845164E+03  0.17300000000E+03 0. -1.
         -6    1    1    2    0  502 -0.95630405739E+01 -0.75267025000E+02 -0.20024878212E+03  0.27529103062E+03  0.17300000000E+03 0. -1.
</event>
<event>
 4    1  0.6031777E+000  0.1000000E+03  0.7546771E-02  0.1280296E+00
         21   -1    0    0  503  502  0.00000000000E+00  0.00000000000E+00  0.15863680714E+04  0.15863680714E+04  0.00000000000E+00 0.  1.
         21   -1    0    0  501  503 -0.00000000000E+00 -0.00000000000E+00 -0.54065376997E+02  0.54065376997E+02  0.00000000000E+00 0.  1.
          6    1    1    2  501    0  0.18674394649E+03  0.47619949011E+02  0.38318530619E+03  0.46249425940E+03  0.17300000000E+03 0.  1.
         -6    1    1    2    0  502 -0.18674394649E+03 -0.47619949011E+02  0.11491173882E+04  0.11779391890E+04  0.17300000000E+03 0.  1.
</event>
<event>
 4    1  0.6031777E+000  0.1000000E+03  0.7546771E-02  0.1280296E+00
         21   -1    0    0  503  502  0.00000000000E+00  0.00000000000E+00  0.90080057510E+03  0.90080057510E+03  0.00000000000E+00 0.  1.
         21   -1    0    0  501  503 -0.00000000000E+00 -0.00000000000E+00 -0.40605478461E+02  0.40605478461E+02  0.00000000000E+00 0.  1.
          6    1    1    2  501    0 -0.35392636624E+02  0.73384492025E+02  0.42211641314E+03  0.46341038901E+03  0.17300000000E+03 0.  1.
         -6    1    1    2    0  502  0.35392636624E+02 -0.73384492025E+02  0.43807868350E+03  0.47799566455E+03  0.17300000000E+03 0.  1.
</event>
<event>
 4    1  0.6031777E+000  0.1000000E+03  0.7546771E-02  0.1280296E+00
         21   -1    0    0  503  502  0.00000000000E+00  0.00000000000E+00  0.21807488358E+03  0.21807488358E+03  0.00000000000E+00 0.  1.
         21   -1    0    0  501  503 -0.00000000000E+00 -0.00000000000E+00 -0.18755126528E+03  0.18755126528E+03  0.00000000000E+00 0. -1.
          6    1    1    2  501    0 -0.57810040576E+02 -0.42815166382E+02 -0.61086663002E+02  0.19706780473E+03  0.17300000000E+03 0.  1.
         -6    1    1    2    0  502  0.57810040576E+02  0.42815166382E+02  0.91610281301E+02  0.20855834412E+03  0.17300000000E+03 0. -1.
</event>
<event>
 4    1  0.6031777E+000  0.1000000E+03  0.7546771E-02  0.1280296E+00
         21   -1    0    0  503  502  0.00000000000E+00  0.00000000000E+00  0.52962846152E+03  0.52962846152E+03  0.00000000000E+00 0.  1.
         21   -1    0    0  501  503 -0.00000000000E+00 -0.00000000000E+00 -0.14861891624E+03  0.14861891624E+03  0.00000000000E+00 0. -1.
          6    1    1    2  501    0 -0.22455115171E+02 -0.12298743032E+03 -0.29585685976E+02  0.21548654953E+03  0.17300000000E+03 0.  1.
         -6    1    1    2    0  502  0.22455115171E+02  0.12298743032E+03  0.41059523125E+03  0.46276082823E+03  0.17300000000E+03 0. -1.
</event>
<event>
 4    1  0.6031777E+000  0.1000000E+03  0.7546771E-02  0.1280296E+00
         21   -1    0    0  503  502  0.00000000000E+00  0.00000000000E+00  0.43595682958E+02  0.43595682958E+02  0.00000000000E+00 0.  1.
         21   -1    0    0  501  503 -0.00000000000E+00 -0.00000000000E+00 -0.15258231669E+04  0.15258231669E+04  0.00000000000E+00 0. -1.
          6    1    1    2  501    0  0.13878662212E+03 -0.25115816597E+01 -0.11415536998E+04  0.11629023536E+04  0.17300000000E+03 0. -1.
         -6    1    1    2    0  502 -0.13878662212E+03  0.25115816597E+01 -0.34067378420E+03  0.40651649630E+03  0.17300000000E+03 0.  1.
</event>
<event>
 4    1  0.6031777E+000  0.1000000E+03  0.7546771E-02  0.1280296E+00
         21   -1    0    0  501  502  0.00000000000E+00  0.00000000000E+00  0.39252133410E+03  0.39252133410E+03  0.00000000000E+00 0. -1.
         21   -1    0    0  502  503 -0.00000000000E+00 -0.00000000000E+00 -0.10418741102E+03  0.10418741102E+03  0.00000000000E+00 0. -1.
          6    1    1    2  501    0 -0.89282629201E+02 -0.48847145082E+01  0.21111268695E+03  0.28721562441E+03  0.17300000000E+03 0. -1.
         -6    1    1    2    0  503  0.89282629201E+02  0.48847145082E+01  0.77221236127E+02  0.20949312070E+03  0.17300000000E+03 0. -1.
</event>
<event>
 4    1  0.6031777E+000  0.1000000E+03  0.7546771E-02  0.1280296E+00
         21   -1    0    0  501  502  0.00000000000E+00  0.00000000000E+00  0.64241697103E+02  0.64241697103E+02  0.00000000000E+00 0. -1.
         21   -1    0    0  502  503 -0.00000000000E+00 -0.00000000000E+00 -0.55363474177E+03  0.55363474177E+03  0.00000000000E+00 0. -1.
          6    1    1    2  501    0  0.20123844616E+02  0.71138501746E+02 -0.22322624975E+03  0.29193255066E+03  0.17300000000E+03 0. -1.
         -6    1    1    2    0  503 -0.20123844616E+02 -0.71138501746E+02 -0.26616679492E+03  0.32594388822E+03  0.17300000000E+03 0. -1.
</event>
<event>
 4    1  0.6031777E+000  0.1000000E+03  0.7546771E-02  0.1280296E+00
         21   -1    0    0  501  502  0.00000000000E+00  0.00000000000E+00  0.13621991858E+03  0.13621991858E+03  0.00000000000E+00 0. -1.
         21   -1    0    0  502  503 -0.00000000000E+00 -0.00000000000E+00 -0.10888766254E+04  0.10888766254E+04  0.00000000000E+00 0. -1.
          6    1    1    2  501    0 -0.15904258793E+03  0.47878842575E+02  0.29626986005E+01  0.23984308605E+03  0.17300000000E+03 0. -1.
         -6    1    1    2    0  503  0.15904258793E+03 -0.47878842575E+02 -0.95561940539E+03  0.98525345790E+03  0.17300000000E+03 0. -1.
</event>
<event>
 4    1  0.6031777E+000  0.1000000E+03  0.7546771E-02  0.1280296E+00
         21   -1    0    0  501  502  0.00000000000E+00  0.00000000000E+00  0.46014363163E+03  0.46014363163E+03  0.00000000000E+00 0. -1.
         21   -1    0    0  502  503 -0.00000000000E+00 -0.00000000000E+00 -0.28770214131E+03  0.28770214131E+03  0.00000000000E+00 0. -1.
          6    1    1    2  501    0 -0.10126207105E+02  0.98668832350E+02  0.39897965131E+03  0.44604017835E+03  0.17300000000E+03 0. -1.
         -6    1    1    2    0  503  0.10126207105E+02 -0.98668832350E+02 -0.22653816098E+03  0.30180559459E+03  0.17300000000E+03 0. -1.
</event>
<event>
 4    1  0.6031777E+000  0.1000000E+03  0.7546771E-02  0.1280296E+00
         21   -1    0    0  503  502  0.00000000000E+00  0.00000000000E+00  0.11505827104E+03  0.11505827104E+03  0.00000000000E+00 0.  1.
         21   -1    0    0  501  503 -0.00000000000E+00 -0.00000000000E+00 -0.32131142530E+03  0.32131142530E+03  0.00000000000E+00 0.  1.
          6    1    1    2  501    0  0.17897042292E+02  0.55180355651E+02 -0.17192089993E+03  0.25070096052E+03  0.17300000000E+03 0.  1.
         -6    1    1    2    0  502 -0.17897042292E+02 -0.55180355651E+02 -0.34332254323E+02  0.18566873582E+03  0.17300000000E+03 0.  1.
</event>
<event>
 4    1  0.6031777E+000  0.1000000E+03  0.7546771E-02  0.1280296E+00
         21   -1    0    0  503  502  0.00000000000E+00  0.00000000000E+00  0.76151120275E+02  0.76151120275E+02  0.00000000000E+00 0.  1.
         21   -1    0    0  501  503 -0.00000000000E+00 -0.00000000000E+00 -0.17322956155E+04  0.17322956155E+04  0.00000000000E+00 0.  1.
          6    1    1    2  501    0 -0.61051171786E+02 -0.23481824245E+03 -0.31109912909E+03  0.43078825505E+03  0.17300000000E+03 0.  1.
         -6    1    1    2    0  502  0.61051171786E+02  0.23481824245E+03 -0.13450453661E+04  0.13776584807E+04  0.17300000000E+03 0.  1.
</event>
<event>
 4    1  0.6031777E+000  0.1000000E+03  0.7546771E-02  0.1280296E+00
         21   -1    0    0  501  502  0.00000000000E+00  0.00000000000E+00  0.22341864417E+03  0.22341864417E+03  0.00000000000E+00 0. -1.
         21   -1    0    0  502  503 -0.00000000000E+00 -0.00000000000E+00 -0.26647308710E+03  0.26647308710E+03  0.00000000000E+00 0. -1.
          6    1    1    2  501    0  0.80745274662E+02 -0.65050415874E+02  0.11631857988E+03  0.23283120068E+03  0.17300000000E+03 0. -1.
         -6    1    1    2    0  503 -0.80745274662E+02  0.65050415874E+02 -0.15937302281E+03  0.25706053059E+03  0.17300000000E+03 0. -1.
</event>
<event>
 4    1  0.6031777E+000  0.1000000E+03  0.7546771E-02  0.1280296E+00
         21   -1    0    0  501  502  0.00000000000E+00  0.00000000000E+00  0.96552252288E+02  0.96552252288E+02  0.00000000000E+00 0. -1.
         21   -1    0    0  502  503 -0.00000000000E+00 -0.00000000000E+00 -0.72750159568E+03  0.72750159568E+03  0.00000000000E+00 0. -1.
          6    1    1    2  501    0 -0.11135434193E+02  0.18126038542E+03 -0.18234164663E+03  0.31009160149E+03  0.17300000000E+03 0. -1.
         -6    1    1    2    0  503  0.11135434193E+02 -0.18126038542E+03 -0.44860769676E+03  0.51396224648E+03  0.17300000000E+03 0. -1.
</event>
<event>
 4    1  0.6031777E+000  0.1000000E+03  0.7546771E-02  0.1280296E+00
         21   -1    0    0  503  502  0.00000000000E+00  0.00000000000E+00  0.58314244824E+03  0.58314244824E+03  0.00000000000E+00 0.  1.
         21   -1    0    0  501  503 -0.00000000000E+00 -0.00000000000E+00 -0.64664854871E+02  0.64664854871E+02  0.00000000000E+00 0. -1.
          6    1    1    2  501    0  0.54952622401E+02  0.80366706489E+01  0.14494237105E+03  0.23242562189E+03  0.17300000000E+03 0. -1.
         -6    1    1    2    0  502 -0.54952622401E+02 -0.80366706489E+01  0.37353522232E+03  0.41538168123E+03  0.17300000000E+03 0.  1.
</event>
<event>
 4    1  0.6031777E+000  0.1000000E+03  0.7546771E-02  0.1280296E+00
         21   -1    0    0  501  502  0.00000000000E+00  0.00000000000E+00  0.19698560030E+03  0.19698560030E+03  0.00000000000E+00 0. -1.
         21   -1    0    0  502  503 -0.00000000000E+00 -0.00000000000E+00 -0.12142496392E+04  0.12142496392E+04  0.00000000000E+00 0.  1.
          6    1    1    2  501    0  0.78547588927E+02  0.11105480717E+03  0.12151130225E+03  0.25138991725E+03  0.17300000000E+03 0. -1.
         -6    1    1    2    0  503 -0.78547588927E+02 -0.11105480717E+03 -0.11387753412E+04  0.11598453223E+04  0.17300000000E+03 0.  1.
</event>
<event>
 4    1  0.6031777E+000  0.1000000E+03  0.7546771E-02  0.1280296E+00
         21   -1    0    0  501  502  0.00000000000E+00  0.00000000000E+00  0.19066567138E+03  0.19066567138E+03  0.00000000000E+00 0. -1.
         21   -1    0    0  502  503 -0.00000000000E+00 -0.00000000000E+00 -0.39831067477E+03  0.39831067477E+03  0.00000000000E+00 0.  1.
          6    1    1    2  501    0 -0.65199767020E+02 -0.11909912223E+03  0.73643151261E+02  0.23192223753E+03  0.17300000000E+03 0. -1.
         -6    1    1    2    0  503  0.65199767020E+02  0.11909912223E+03 -0.28128815465E+03  0.35705410862E+03  0.17300000000E+03 0.  1.
</event>
<event>
 4    1  0.6031777E+000  0.1000000E+03  0.7546771E-02  0.1280296E+00
         21   -1    0    0  501  502  0.00000000000E+00  0.00000000000E+00  0.10988294654E+03  0.10988294654E+03  0.00000000000E+00 0. -1.
         21   -1    0    0  502  503 -0.00000000000E+00 -0.00000000000E+00 -0.41833263245E+03  0.41833263245E+03  0.00000000000E+00 0.  1.
          6    1    1    2  501    0  0.11470984444E+03 -0.32018400448E+02 -0.10116837021E+03  0.23312564319E+03  0.17300000000E+03 0. -1.
         -6    1    1    2    0  503 -0.11470984444E+03  0.32018400448E+02 -0.20728131570E+03  0.29508993581E+03  0.17300000000E+03 0.  1.
</event>
<event>
 4    1  0.6031777E+000  0.1000000E+03  0.7546771E-02  0.1280296E+00
         21   -1    0    0  501  502  0.00000000000E+00  0.00000000000E+00  0.36275852746E+02  0.36275852746E+02  0.00000000000E+00 0. -1.
         21   -1    0    0  502  503 -0.00000000000E+00 -0.00000000000E+00 -0.31070347945E+04  0.31070347945E+04  0.00000000000E+00 0. -1.
          6    1    1    2  501    0  0.21083258447E+03 -0.14538548498E+03 -0.92152682436E+03  0.97197119604E+03  0.17300000000E+03 0. -1.
         -6    1    1    2    0  503 -0.21083258447E+03  0.14538548498E+03 -0.21492321174E+04  0.21713394512E+04  0.17300000000E+03 0. -1.
</event>
<event>
 4    1  0.6031777E+000  0.1000000E+03  0.7546771E-02  0.1280296E+00
         21   -1    0    0  501  502  0.00000000000E+00  0.00000000000E+00  0.22196196515E+04  0.22196196515E+04  0.00000000000E+00 0. -1.
         21   -1    0    0  502  503 -0.00000000000E+00 -0.00000000000E+00 -0.20258735855E+02  0.20258735855E+02  0.00000000000E+00 0. -1.
          6    1    1    2  501    0 -0.92296247672E+02 -0.61115970284E+02  0.82101824965E+03  0.84631774494E+03  0.17300000000E+03 0. -1.
         -6    1    1    2    0  503  0.92296247672E+02  0.61115970284E+02  0.13783426660E+04  0.13935606424E+04  0.17300000000E+03 0. -1.
</event>
<event>
 4    1  0.6031777E+000  0.1000000E+03  0.7546771E-02  0.1280296E+00
         21   -1    0    0  501  502  0.00000000000E+00  0.00000000000E+00  0.69618723711E+03  0.69618723711E+03  0.00000000000E+00 0. -1.
         21   -1    0    0  502  503 -0.00000000000E+00 -0.00000000000E+00 -0.10784063998E+03  0.10784063998E+03  0.00000000000E+00 0. -1.
          6    1    1    2  501    0 -0.37209476707E+02  0.62524844904E+02  0.58707700009E+03  0.61634593000E+03  0.17300000000E+03 0. -1.
         -6    1    1    2    0  503  0.37209476707E+02 -0.62524844904E+02  0.12695970452E+01  0.18768194709E+03  0.17300000000E+03 0. -1.
</event>
<event>
 4    1  0.6031777E+000  0.1000000E+03  0.7546771E-02  0.1280296E+00
         21   -1    0    0  503  502  0.00000000000E+00  0.00000000000E+00  0.14698853200E+03  0.14698853200E+03  0.00000000000E+00 0.  1.
         21   -1    0    0  501  503 -0.00000000000E+00 -0.00000000000E+00 -0.48284023430E+03  0.48284023430E+03  0.00000000000E+00 0.  1.
          6    1    1    2  501    0  0.17162113137E+03  0.98325179358E+02 -0.11611159076E+03  0.28728479796E+03  0.17300000000E+03 0.  1.
         -6    1    1    2    0  502 -0.17162113137E+03 -0.98325179358E+02 -0.21974011154E+03  0.34254396834E+03  0.17300000000E+03 0.  1.
</event>
<event>
 4    1  0.6031777E+000  0.1000000E+03  0.7546771E-02  0.1280296E+00
         21   -1    0    0  503  502  0.00000000000E+00  0.00000000000E+00  0.31011808557E+03  0.31011808557E+03  0.00000000000E+00 0.  1.
         21   -1    0    0  501  503 -0.00000000000E+00 -0.00000000000E+00 -0.14336245643E+03  0.14336245643E+03  0.00000000000E+00 0.  1.
          6    1    1    2  501    0  0.41414621881E+02  0.13085385004E+02 -0.37539304621E+02  0.18227615751E+03  0.17300000000E+03 0.  1.
         -6    1    1    2    0  502 -0.41414621881E+02 -0.13085385004E+02  0.20429493376E+03  0.27120438449E+03  0.17300000000E+03 0.  1.
</event>
<event>
 4    1  0.6031777E+000  0.1000000E+03  0.7546771E-02  0.1280296E+00
         21   -1    0    0  503  502  0.00000000000E+00  0.00000000000E+00  0.25629938049E+03  0.25629938049E+03  0.00000000000E+00 0.  1.
         21   -1    0    0  501  503 -0.00000000000E+00 -0.00000000000E+00 -0.28445390171E+03  0.28445390171E+03  0.00000000000E+00 0.  1.
          6    1    1    2  501    0  0.12833473589E+03  0.98755029159E+02 -0.14369029547E+03  0.27712499207E+03  0.17300000000E+03 0.  1.
         -6    1    1    2    0  502 -0.12833473589E+03 -0.98755029159E+02  0.11553577425E+03  0.26362829012E+03  0.17300000000E+03 0.  1.
</event>
<event>
 4    1  0.6031777E+000  0.1000000E+03  0.7546771E-02  0.1280296E+00
         21   -1    0    0  501  502  0.00000000000E+00  0.00000000000E+00  0.13238501008E+04  0.13238501008E+04  0.00000000000E+00 0. -1.
         21   -1    0    0  502  503 -0.00000000000E+00 -0.00000000000E+00 -0.51274883734E+02  0.51274883734E+02  0.00000000000E+00 0. -1.
          6    1    1    2  501    0 -0.92388820758E+02  0.19078043028E+02  0.10860937826E+04  0.11038244292E+04  0.17300000000E+03 0. -1.
         -6    1    1    2    0  503  0.92388820758E+02 -0.19078043028E+02  0.18648143453E+03  0.27130055538E+03  0.17300000000E+03 0. -1.
</event>
<event>
 4    1  0.6031777E+000  0.1000000E+03  0.7546771E-02  0.1280296E+00
         21   -1    0    0  501  502  0.00000000000E+00  0.00000000000E+00  0.58433197980E+03  0.58433197980E+03  0.00000000000E+00 0. -1.
         21   -1    0    0  502  503 -0.00000000000E+00 -0.00000000000E+00 -0.64965590218E+02  0.64965590218E+02  0.00000000000E+00 0. -1.
          6    1    1    2  501    0 -0.79170329263E+02 -0.38087933057E+02  0.28920185180E+03  0.34826045248E+03  0.17300000000E+03 0. -1.
         -6    1    1    2    0  503  0.79170329263E+02  0.38087933057E+02  0.23016453778E+03  0.30103711753E+03  0.17300000000E+03 0. -1.
</event>
<event>
 4    1  0.6031777E+000  0.1000000E+03  0.7546771E-02  0.1280296E+00
         21   -1    0    0  501  502  0.00000000000E+00  0.00000000000E+00  0.13511874435E+03  0.13511874435E+03  0.00000000000E+00 0. -1.
         21   -1    0    0  502  503 -0.00000000000E+00 -0.00000000000E+00 -0.46273330380E+03  0.46273330380E+03  0.00000000000E+00 0. -1.
          6    1    1    2  501    0  0.89581191519E+02  0.14332977762E+03 -0.87946606725E+02  0.25735543643E+03  0.17300000000E+03 0. -1.
         -6    1    1    2    0  503 -0.89581191519E+02 -0.14332977762E+03 -0.23966795272E+03  0.34049661171E+03  0.17300000000E+03 0. -1.
</event>
<event>
 4    1  0.6031777E+000  0.1000000E+03  0.7546771E-02  0.1280296E+00
         21   -1    0    0  501  502  0.00000000000E+00  0.00000000000E+00  0.10570138373E+03  0.10570138373E+03  0.00000000000E+00 0. -1.
         21   -1    0    0  502  503 -0.00000000000E+00 -0.00000000000E+00 -0.11044401115E+04  0.11044401115E+04  0.00000000000E+00 0. -1.
          6    1    1    2  501    0 -0.28214710193E+03  0.19686505583E+01 -0.64964573467E+03  0.72909494806E+03  0.17300000000E+03 0. -1.
         -6    1    1    2    0  503  0.28214710193E+03 -0.19686505583E+01 -0.34909299310E+03  0.48104654717E+03  0.17300000000E+03 0. -1.
</event>
<event>
 4    1  0.6031777E+000  0.1000000E+03  0.7546771E-02  0.1280296E+00
         21   -1    0    0  503  502  0.00000000000E+00  0.00000000000E+00  0.16589556165E+03  0.16589556165E+03  0.00000000000E+00 0. -1.
         21   -1    0    0  501  503 -0.00000000000E+00 -0.00000000000E+00 -0.25189820567E+03  0.25189820567E+03  0.00000000000E+00 0.  1.
          6    1    1    2  501    0  0.56120318851E+02  0.48069570839E+02 -0.12474970115E+03  0.22572474779E+03  0.17300000000E+03 0.  1.
         -6    1    1    2    0  502 -0.56120318851E+02 -0.48069570839E+02  0.38747057129E+02  0.19206901953E+03  0.17300000000E+03 0. -1.
</event>
<event>
 4    1  0.6031777E+000  0.1000000E+03  0.7546771E-02  0.1280296E+00
         21   -1    0    0  503  502  0.00000000000E+00  0.00000000000E+00  0.30136260869E+03  0.30136260869E+03  0.00000000000E+00 0. -1.
         21   -1    0    0  501  503 -0.00000000000E+00 -0.00000000000E+00 -0.51342300096E+03  0.51342300096E+03  0.00000000000E+00 0.  1.
          6    1    1    2  501    0  0.74745082945E+02 -0.27940716226E+03 -0.31610565528E+03  0.46206814978E+03  0.17300000000E+03 0.  1.
         -6    1    1    2    0  502 -0.74745082945E+02  0.27940716226E+03  0.10404526301E+03  0.35271745987E+03  0.17300000000E+03 0. -1.
</event>
<event>
 4    1  0.6031777E+000  0.1000000E+03  0.7546771E-02  0.1280296E+00
         21   -1    0    0  503  502  0.00000000000E+00  0.00000000000E+00  0.35041424989E+03  0.35041424989E+03  0.00000000000E+00 0. -1.
         21   -1    0    0  501  503 -0.00000000000E+00 -0.00000000000E+00 -0.21489901792E+03  0.21489901792E+03  0.00000000000E+00 0.  1.
          6    1    1    2  501    0  0.14520858124E+03 -0.10958775827E+03 -0.46384107052E+02  0.25529491616E+03  0.17300000000E+03 0.  1.
         -6    1    1    2    0  502 -0.14520858124E+03  0.10958775827E+03  0.18189933903E+03  0.31001835166E+03  0.17300000000E+03 0. -1.
</event>
<event>
 4    1  0.6031777E+000  0.1000000E+03  0.7546771E-02  0.1280296E+00
         21   -1    0    0  503  502  0.00000000000E+00  0.00000000000E+00  0.10166806845E+04  0.10166806845E+04  0.00000000000E+00 0. -1.
         21   -1    0    0  501  503 -0.00000000000E+00 -0.00000000000E+00 -0.57668740308E+02  0.57668740308E+02  0.00000000000E+00 0.  1.
          6    1    1    2  501    0 -0.15176932790E+02 -0.11463436368E+03  0.20482497237E+03  0.29198226989E+03  0.17300000000E+03 0.  1.
         -6    1    1    2    0  502  0.15176932790E+02  0.11463436368E+03  0.75418697177E+03  0.78236715487E+03  0.17300000000E+03 0. -1.
</event>
<event>
 4    1  0.6031777E+000  0.1000000E+03  0.7546771E-02  0.1280296E+00
         21   -1    0    0  503  502  0.00000000000E+00  0.00000000000E+00  0.12139874704E+03  0.12139874704E+03  0.00000000000E+00 0. -1.
         21   -1    0    0  501  503 -0.00000000000E+00 -0.00000000000E+00 -0.43300483885E+03  0.43300483885E+03  0.00000000000E+00 0.  1.
          6    1    1    2  501    0  0.74940343632E+02 -0.12355797888E+03 -0.20644769392E+03  0.30566694223E+03  0.17300000000E+03 0.  1.
         -6    1    1    2    0  502 -0.74940343632E+02  0.12355797888E+03 -0.10515839789E+03  0.24873664365E+03  0.17300000000E+03 0. -1.
</event>
<event>
 4    1  0.6031777E+000  0.1000000E+03  0.7546771E-02  0.1280296E+00
         21   -1    0    0  501  502  0.00000000000E+00  0.00000000000E+00  0.65468121659E+02  0.65468121659E+02  0.00000000000E+00 0. -1.
         21   -1    0    0  502  503 -0.00000000000E+00 -0.00000000000E+00 -0.66627102123E+03  0.66627102123E+03  0.00000000000E+00 0. -1.
          6    1    1    2  501    0 -0.36126023968E+02  0.11066429768E+03 -0.27976016350E+03  0.34892180423E+03  0.17300000000E+03 0. -1.
         -6    1    1    2    0  503  0.36126023968E+02 -0.11066429768E+03 -0.32104273608E+03  0.38281733866E+03  0.17300000000E+03 0. -1.
</event>
<event>
 4    1  0.6031777E+000  0.1000000E+03  0.7546771E-02  0.1280296E+00
         21   -1    0    0  503  502  0.00000000000E+00  0.00000000000E+00  0.78486376498E+03  0.78486376498E+03  0.00000000000E+00 0. -1.
         21   -1    0    0  501  503 -0.00000000000E+00 -0.00000000000E+00 -0.56025539803E+03  0.56025539803E+03  0.00000000000E+00 0. -1.
          6    1    1    2  501    0 -0.10254042348E+03 -0.44275842835E+03 -0.34494314045E+03  0.59620829789E+03  0.17300000000E+03 0. -1.
         -6    1    1    2    0  502  0.10254042348E+03  0.44275842835E+03  0.56955150739E+03  0.74891086512E+03  0.17300000000E+03 0. -1.
</event>
<event>
 4    1  0.6031777E+000  0.1000000E+03  0.7546771E-02  0.1280296E+00
         21   -1    0    0  503  502  0.00000000000E+00  0.00000000000E+00  0.11942973174E+04  0.11942973174E+04  0.00000000000E+00 0. -1.
         21   -1    0    0  501  503 -0.00000000000E+00 -0.00000000000E+00 -0.71860942791E+02  0.71860942791E+02  0.00000000000E+00 0. -1.
          6    1    1    2  501    0 -0.87638287768E+02  0.12124269690E+03  0.16560669378E+03  0.28237357889E+03  0.17300000000E+03 0. -1.
         -6    1    1    2    0  502  0.87638287768E+02 -0.12124269690E+03  0.95682968085E+03  0.98378468131E+03  0.17300000000E+03 0. -1.
</event>
<event>
 4    1  0.6031777E+000  0.1000000E+03  0.7546771E-02  0.1280296E+00
         21   -1    0    0  503  502  0.00000000000E+00  0.00000000000E+00  0.95341749104E+02  0.95341749104E+02  0.00000000000E+00 0. -1.
         21   -1    0    0  501  503 -0.00000000000E+00 -0.00000000000E+00 -0.60388466572E+03  0.60388466572E+03  0.00000000000E+00 0. -1.
          6    1    1    2  501    0 -0.97549285660E+02  0.10220640575E+03 -0.38199603549E+03  0.44250647864E+03  0.17300000000E+03 0. -1.
         -6    1    1    2    0  502  0.97549285660E+02 -0.10220640575E+03 -0.12654688112E+03  0.25671993618E+03  0.17300000000E+03 0. -1.
</event>
<event>
 4    1  0.6031777E+000  0.1000000E+03  0.7546771E-02  0.1280296E+00
         21   -1    0    0  503  502  0.00000000000E+00  0.00000000000E+00  0.36780598544E+03  0.36780598544E+03  0.00000000000E+00 0.  1.
         21   -1    0    0  501  503 -0.00000000000E+00 -0.00000000000E+00 -0.19190702289E+03  0.19190702289E+03  0.00000000000E+00 0.  1.
          6    1    1    2  501    0  0.84442977496E+02  0.14125729109E+03  0.21066274500E+03  0.31842115329E+03  0.17300000000E+03 0.  1.
         -6    1    1    2    0  502 -0.84442977496E+02 -0.14125729109E+03 -0.34763782449E+02  0.24129185503E+03  0.17300000000E+03 0.  1.
</event>
<event>
 4    1  0.6031777E+000  0.1000000E+03  0.7546771E-02  0.1280296E+00
         21   -1    0    0  503  502  0.00000000000E+00  0.00000000000E+00  0.11500230319E+04  0.11500230319E+04  0.00000000000E+00 0.  1.
         21   -1    0    0  501  503 -0.00000000000E+00 -0.00000000000E+00 -0.17926080708E+03  0.17926080708E+03  0.00000000000E+00 0.  1.
          6    1    1    2  501    0 -0.46610995495E+02  0.12285046125E+02 -0.12505963056E+03  0.21884336512E+03  0.17300000000E+03 0.  1.
         -6    1    1    2    0  502  0.46610995495E+02 -0.12285046125E+02  0.10958218554E+04  0.11104404738E+04  0.17300000000E+03 0.  1.
</event>
<event>
 4    1  0.6031777E+000  0.1000000E+03  0.7546771E-02  0.1280296E+00
         21   -1    0    0  503  502  0.00000000000E+00  0.00000000000E+00  0.54071743629E+03  0.54071743629E+03  0.00000000000E+00 0.  1.
         21   -1    0    0  501  503 -0.00000000000E+00 -0.00000000000E+00 -0.11608412885E+03  0.11608412885E+03  0.00000000000E+00 0.  1.
          6    1    1    2  501    0  0.11660930916E+03  0.12997582098E+03  0.27583604954E+03  0.36946714502E+03  0.17300000000E+03 0.  1.
         -6    1    1    2    0  502 -0.11660930916E+03 -0.12997582098E+03  0.14879725790E+03  0.28733442011E+03  0.17300000000E+03 0.  1.
</event>
<event>
 4    1  0.6031777E+000  0.1000000E+03  0.7546771E-02  0.1280296E+00
         21   -1    0    0  503  502  0.00000000000E+00  0.00000000000E+00  0.57623278796E+03  0.57623278796E+03  0.00000000000E+00 0.  1.
         21   -1    0    0  501  503 -0.00000000000E+00 -0.00000000000E+00 -0.14832564134E+03  0.14832564134E+03  0.00000000000E+00 0.  1.
          6    1    1    2  501    0  0.13822670375E+03 -0.10213312136E+03  0.14128231401E+02  0.24426707316E+03  0.17300000000E+03 0.  1.
         -6    1    1    2    0  502 -0.13822670375E+03  0.10213312136E+03  0.41377891522E+03  0.48029135614E+03  0.17300000000E+03 0.  1.
</event>
<event>
 4    1  0.6031777E+000  0.1000000E+03  0.7546771E-02  0.1280296E+00
         21   -1    0    0  501  502  0.00000000000E+00  0.00000000000E+00  0.32891512457E+03  0.32891512457E+03  0.00000000000E+00 0.  1.
         21   -1    0    0  502  503 -0.00000000000E+00 -0.00000000000E+00 -0.16159813741E+03  0.16159813741E+03  0.00000000000E+00 0.  1.
          6    1    1    2  501    0  0.10956561711E+03  0.35359005382E+02  0.18986931463E+03  0.28148577291E+03  0.17300000000E+03 0.  1.
         -6    1    1    2    0  503 -0.10956561711E+03 -0.35359005382E+02 -0.22552327474E+02  0.20902748907E+03  0.17300000000E+03 0.  1.
</event>
<event>
 4    1  0.6031777E+000  0.1000000E+03  0.7546771E-02  0.1280296E+00
         21   -1    0    0  501  502  0.00000000000E+00  0.00000000000E+00  0.65781005258E+02  0.65781005258E+02  0.00000000000E+00 0. -1.
         21   -1    0    0  502  503 -0.00000000000E+00 -0.00000000000E+00 -0.59619263415E+03  0.59619263415E+03  0.00000000000E+00 0. -1.
          6    1    1    2  501    0 -0.26821035085E+02 -0.71333472142E+02 -0.16659171090E+03  0.25197148710E+03  0.17300000000E+03 0. -1.
         -6    1    1    2    0  503  0.26821035085E+02  0.71333472142E+02 -0.36381991799E+03  0.41000215231E+03  0.17300000000E+03 0. -1.
</event>
<event>
 4    1  0.6031777E+000  0.1000000E+03  0.7546771E-02  0.1280296E+00
         21   -1    0    0  501  502  0.00000000000E+00  0.00000000000E+00  0.59958074677E+02  0.59958074677E+02  0.00000000000E+00 0.  1.
         21   -1    0    0  502  503 -0.00000000000E+00 -0.00000000000E+00 -0.12951778306E+04  0.12951778306E+04  0.00000000000E+00 0. -1.
          6    1    1    2  501    0  0.30236418603E+02 -0.32590114513E+02 -0.97536442495E+02  0.20351588191E+03  0.17300000000E+03 0.  1.
         -6    1    1    2    0  503 -0.30236418603E+02  0.32590114513E+02 -0.11376833134E+04  0.11516200234E+04  0.17300000000E+03 0. -1.
</event>
<event>
 4    1  0.6031777E+000  0.1000000E+03  0.7546771E-02  0.1280296E+00
         21   -1    0    0  501  502  0.00000000000E+00  0.00000000000E+00  0.39479601778E+03  0.39479601778E+03  0.00000000000E+00 0.  1.
         21   -1    0    0  502  503 -0.00000000000E+00 -0.00000000000E+00 -0.25216362286E+04  0.25216362286E+04  0.00000000000E+00 0. -1.
          6    1    1    2  501    0 -0.30002544567E+03 -0.14580637538E+03  0.28742844429E+03  0.47309499864E+03  0.17300000000E+03 0.  1.
         -6    1    1    2    0  503  0.30002544567E+03  0.14580637538E+03 -0.24142686552E+04  0.24433372478E+04  0.17300000000E+03 0. -1.
</event>
<event>
 4    1  0.6031777E+000  0.1000000E+03  0.7546771E-02  0.1280296E+00
         21   -1    0    0  501  502  0.00000000000E+00  0.00000000000E+00  0.19843868751E+03  0.19843868751E+03  0.00000000000E+00 0.  1.
         21   -1    0    0  502  503 -0.00000000000E+00 -0.00000000000E+00 -0.23327619347E+03  0.23327619347E+03  0.00000000000E+00 0. -1.
          6    1    1    2  501    0  0.88190051349E+02 -0.92279116721E+02 -0.25758659429E+02  0.21653043452E+03  0.17300000000E+03 0.  1.
         -6    1    1    2    0  503 -0.88190051349E+02  0.92279116721E+02 -0.90788465307E+01  0.21518444645E+03  0.17300000000E+03 0. -1.
</event>
<event>
 4    1  0.6031777E+000  0.1000000E+03  0.7546771E-02  0.1280296E+00
         21   -1    0    0  503  502  0.00000000000E+00  0.00000000000E+00  0.50557171339E+03  0.50557171339E+03  0.00000000000E+00 0.  1.
         21   -1    0    0  501  503 -0.00000000000E+00 -0.00000000000E+00 -0.16252440762E+03  0.16252440762E+03  0.00000000000E+00 0. -1.
          6    1    1    2  501    0 -0.18188341380E+02 -0.52960295021E+02 -0.86710026748E+02  0.20145281668E+03  0.17300000000E+03 0. -1.
         -6    1    1    2    0  502  0.18188341380E+02  0.52960295021E+02  0.42975733252E+03  0.46664330432E+03  0.17300000000E+03 0. -1.
</event>
<event>
 4    1  0.6031777E+000  0.1000000E+03  0.7546771E-02  0.1280296E+00
         21   -1    0    0  503  502  0.00000000000E+00  0.00000000000E+00  0.35278313855E+03  0.35278313855E+03  0.00000000000E+00 0. -1.
         21   -1    0    0  501  503 -0.00000000000E+00 -0.00000000000E+00 -0.33320117750E+03  0.33320117750E+03  0.00000000000E+00 0. -1.
          6    1    1    2  501    0  0.23152581723E+02 -0.14613682732E+03 -0.24668581125E+03  0.33567082657E+03  0.17300000000E+03 0.  1.
         -6    1    1    2    0  502 -0.23152581723E+02  0.14613682732E+03  0.26626777231E+03  0.35031348948E+03  0.17300000000E+03 0.  1.
</event>
<event>
 4    1  0.6031777E+000  0.1000000E+03  0.7546771E-02  0.1280296E+00
         21   -1    0    0  503  502  0.00000000000E+00  0.00000000000E+00  0.83034531784E+03  0.83034531784E+03  0.00000000000E+00 0. -1.
         21   -1    0    0  501  503 -0.00000000000E+00 -0.00000000000E+00 -0.90986701408E+02  0.90986701408E+02  0.00000000000E+00 0. -1.
          6    1    1    2  501    0  0.71551884028E+01 -0.12188301293E+03  0.75954188409E+02  0.22495489392E+03  0.17300000000E+03 0.  1.
         -6    1    1    2    0  502 -0.71551884028E+01  0.12188301293E+03  0.66340442803E+03  0.69637712533E+03  0.17300000000E+03 0.  1.
</event>
<event>
 4    1  0.6031777E+000  0.1000000E+03  0.7546771E-02  0.1280296E+00
         21   -1    0    0  501  502  0.00000000000E+00  0.00000000000E+00  0.61456334489E+02  0.61456334489E+02  0.00000000000E+00 0. -1.
         21   -1    0    0  502  503 -0.00000000000E+00 -0.00000000000E+00 -0.66929843528E+03  0.66929843528E+03  0.00000000000E+00 0. -1.
          6    1    1    2  501    0  0.15174766332E+02  0.99957375828E+02 -0.36037277254E+03  0.41233394925E+03  0.17300000000E+03 0.  1.
         -6    1    1    2    0  503 -0.15174766332E+02 -0.99957375828E+02 -0.24746932826E+03  0.31842082053E+03  0.17300000000E+03 0.  1.
</event>
<event>
 4    1  0.6031777E+000  0.1000000E+03  0.7546771E-02  0.1280296E+00
         21   -1    0    0  503  502  0.00000000000E+00  0.00000000000E+00  0.24215653366E+03  0.24215653366E+03  0.00000000000E+00 0. -1.
         21   -1    0    0  501  503 -0.00000000000E+00 -0.00000000000E+00 -0.25041892984E+03  0.25041892984E+03  0.00000000000E+00 0. -1.
          6    1    1    2  501    0  0.13226211407E+03 -0.11425916981E+03  0.86438254788E+01  0.24607344518E+03  0.17300000000E+03 0. -1.
         -6    1    1    2    0  502 -0.13226211407E+03  0.11425916981E+03 -0.16906221668E+02  0.24650201832E+03  0.17300000000E+03 0. -1.
</event>
<event>
 4    1  0.6031777E+000  0.1000000E+03  0.7546771E-02  0.1280296E+00
         21   -1    0    0  503  502  0.00000000000E+00  0.00000000000E+00  0.22840625313E+03  0.22840625313E+03  0.00000000000E+00 0. -1.
         21   -1    0    0  501  503 -0.00000000000E+00 -0.00000000000E+00 -0.16652084833E+03  0.16652084833E+03  0.00000000000E+00 0. -1.
          6    1    1    2  501    0  0.87390864039E+01  0.20601185305E+02 -0.57352574322E+02  0.18362760753E+03  0.17300000000E+03 0. -1.
         -6    1    1    2    0  502 -0.87390864039E+01 -0.20601185305E+02  0.11923797913E+03  0.21129949393E+03  0.17300000000E+03 0. -1.
</event>
<event>
 4    1  0.6031777E+000  0.1000000E+03  0.7546771E-02  0.1280296E+00
         21   -1    0    0  503  502  0.00000000000E+00  0.00000000000E+00  0.10645736482E+04  0.10645736482E+04  0.00000000000E+00 0. -1.
         21   -1    0    0  501  503 -0.00000000000E+00 -0.00000000000E+00 -0.66918650948E+02  0.66918650948E+02  0.00000000000E+00 0. -1.
          6    1    1    2  501    0 -0.63781359755E+00 -0.96362758213E+02  0.11951048699E+03  0.23129622668E+03  0.17300000000E+03 0. -1.
         -6    1    1    2    0  502  0.63781359755E+00  0.96362758213E+02  0.87814451023E+03  0.90019607243E+03  0.17300000000E+03 0. -1.
</event>
<event>
 4    1  0.6031777E+000  0.1000000E+03  0.7546771E-02  0.1280296E+00
         21   -1    0    0  503  502  0.00000000000E+00  0.00000000000E+00  0.22938336366E+03  0.22938336366E+03  0.00000000000E+00 0. -1.
         21   -1    0    0  501  503 -0.00000000000E+00 -0.00000000000E+00 -0.59461203827E+03  0.59461203827E+03  0.00000000000E+00 0. -1.
          6    1    1    2  501    0 -0.11261120781E+03  0.71788732935E+02 -0.51472885298E+03  0.55920452287E+03  0.17300000000E+03 0. -1.
         -6    1    1    2    0  502  0.11261120781E+03 -0.71788732935E+02  0.14950017837E+03  0.26479087906E+03  0.17300000000E+03 0. -1.
</event>
<event>
 4    1  0.6031777E+000  0.1000000E+03  0.7546771E-02  0.1280296E+00
         21   -1    0    0  503  502  0.00000000000E+00  0.00000000000E+00  0.43256044449E+03  0.43256044449E+03  0.00000000000E+00 0. -1.
         21   -1    0    0  501  503 -0.00000000000E+00 -0.00000000000E+00 -0.32384721912E+03  0.32384721912E+03  0.00000000000E+00 0. -1.
          6    1    1    2  501    0 -0.43787344231E+02  0.23332985446E+03 -0.18001270048E+03  0.34451955653E+03  0.17300000000E+03 0. -1.
         -6    1    1    2    0  502  0.43787344231E+02 -0.23332985446E+03  0.28872592585E+03  0.41188810708E+03  0.17300000000E+03 0. -1.
</event>
<event>
 4    1  0.6031777E+000  0.1000000E+03  0.7546771E-02  0.1280296E+00
         21   -1    0    0  501  502  0.00000000000E+00  0.00000000000E+00  0.60225098286E+03  0.60225098286E+03  0.00000000000E+00 0. -1.
         21   -1    0    0  502  503 -0.00000000000E+00 -0.00000000000E+00 -0.98685244516E+02  0.98685244516E+02  0.00000000000E+00 0.  1.
          6    1    1    2  501    0  0.11494843495E+03  0.47347667146E+01  0.43514531693E+03  0.48219913683E+03  0.17300000000E+03 0. -1.
         -6    1    1    2    0  503 -0.11494843495E+03 -0.47347667146E+01  0.68420421410E+02  0.21873709054E+03  0.17300000000E+03 0.  1.
</event>
<event>
 4    1  0.6031777E+000  0.1000000E+03  0.7546771E-02  0.1280296E+00
         21   -1    0    0  501  502  0.00000000000E+00  0.00000000000E+00  0.31481433041E+03  0.31481433041E+03  0.00000000000E+00 0. -1.
         21   -1    0    0  502  503 -0.00000000000E+00 -0.00000000000E+00 -0.12328136435E+03  0.12328136435E+03  0.00000000000E+00 0.  1.
          6    1    1    2  501    0  0.12611186397E+02 -0.76162892496E+02  0.15586954387E+03  0.24532456649E+03  0.17300000000E+03 0. -1.
         -6    1    1    2    0  503 -0.12611186397E+02  0.76162892496E+02  0.35663422191E+02  0.19277112828E+03  0.17300000000E+03 0.  1.
</event>
<event>
 4    1  0.6031777E+000  0.1000000E+03  0.7546771E-02  0.1280296E+00
         21   -1    0    0  501  502  0.00000000000E+00  0.00000000000E+00  0.12041137295E+04  0.12041137295E+04  0.00000000000E+00 0.  1.
         21   -1    0    0  502  503 -0.00000000000E+00 -0.00000000000E+00 -0.70322603816E+02  0.70322603816E+02  0.00000000000E+00 0. -1.
          6    1    1    2  501    0  0.10479311185E+03 -0.10327999787E+03  0.96529135555E+03  0.99164749551E+03  0.17300000000E+03 0.  1.
         -6    1    1    2    0  503 -0.10479311185E+03  0.10327999787E+03  0.16849977012E+03  0.28278883779E+03  0.17300000000E+03 0. -1.
</event>
<event>
 4    1  0.6031777E+000  0.1000000E+03  0.7546771E-02  0.1280296E+00
         21   -1    0    0  501  502  0.00000000000E+00  0.00000000000E+00  0.33805056705E+03  0.33805056705E+03  0.00000000000E+00 0. -1.
         21   -1    0    0  502  503 -0.00000000000E+00 -0.00000000000E+00 -0.11197299494E+03  0.11197299494E+03  0.00000000000E+00 0. -1.
          6    1    1    2  501    0  0.20791870653E+02 -0.19886754670E+02  0.21046075763E+03  0.27395349131E+03  0.17300000000E+03 0. -1.
         -6    1    1    2    0  503 -0.20791870653E+02  0.19886754670E+02  0.15616814476E+02  0.17607007068E+03  0.17300000000E+03 0. -1.
</event>
<event>
 4    1  0.6031777E+000  0.1000000E+03  0.7546771E-02  0.1280296E+00
         21   -1    0    0  501  502  0.00000000000E+00  0.00000000000E+00  0.32108311658E+03  0.32108311658E+03  0.00000000000E+00 0. -1.
         21   -1    0    0  502  503 -0.00000000000E+00 -0.00000000000E+00 -0.13495960462E+03  0.13495960462E+03  0.00000000000E+00 0. -1.
          6    1    1    2  501    0  0.93875644088E+02 -0.59755915854E+02  0.12805987318E+03  0.24230504979E+03  0.17300000000E+03 0. -1.
         -6    1    1    2    0  503 -0.93875644088E+02  0.59755915854E+02  0.58063638778E+02  0.21373767141E+03  0.17300000000E+03 0. -1.
</event>
<event>
 4    1  0.6031777E+000  0.1000000E+03  0.7546771E-02  0.1280296E+00
         21   -1    0    0  501  502  0.00000000000E+00  0.00000000000E+00  0.16537747423E+03  0.16537747423E+03  0.00000000000E+00 0.  1.
         21   -1    0    0  502  503 -0.00000000000E+00 -0.00000000000E+00 -0.33554415102E+03  0.33554415102E+03  0.00000000000E+00 0. -1.
          6    1    1    2  501    0 -0.13349201031E+03 -0.59298016009E+02 -0.15964687628E+02  0.22698071013E+03  0.17300000000E+03 0. -1.
         -6    1    1    2    0  503  0.13349201031E+03  0.59298016009E+02 -0.15420198915E+03  0.27394091512E+03  0.17300000000E+03 0.  1.
</event>
<event>
 4    1  0.6031777E+000  0.1000000E+03  0.7546771E-02  0.1280296E+00
         21   -1    0    0  501  502  0.00000000000E+00  0.00000000000E+00  0.97281216330E+02  0.97281216330E+02  0.00000000000E+00 0.  1.
         21   -1    0    0  502  503 -0.00000000000E+00 -0.00000000000E+00 -0.45481796331E+03  0.45481796331E+03  0.00000000000E+00 0. -1.
          6    1    1    2  501    0 -0.10199102948E+03 -0.16850882013E+01 -0.96693397492E+02  0.22289823403E+03  0.17300000000E+03 0. -1.
         -6    1    1    2    0  503  0.10199102948E+03  0.16850882013E+01 -0.26084334949E+03  0.32920094561E+03  0.17300000000E+03 0.  1.
</event>
<event>
 4    1  0.6031777E+000  0.1000000E+03  0.7546771E-02  0.1280296E+00
         21   -1    0    0  501  502  0.00000000000E+00  0.00000000000E+00  0.14154244048E+03  0.14154244048E+03  0.00000000000E+00 0.  1.
         21   -1    0    0  502  503 -0.00000000000E+00 -0.00000000000E+00 -0.29821756051E+03  0.29821756051E+03  0.00000000000E+00 0. -1.
          6    1    1    2  501    0  0.46782697867E+02  0.35330206005E+02  0.22312678480E+02  0.18402092244E+03  0.17300000000E+03 0. -1.
         -6    1    1    2    0  503 -0.46782697867E+02 -0.35330206005E+02 -0.17898779851E+03  0.25573907854E+03  0.17300000000E+03 0.  1.
</event>
<event>
 4    1  0.6031777E+000  0.1000000E+03  0.7546771E-02  0.1280296E+00
         21   -1    0    0  501  502  0.00000000000E+00  0.00000000000E+00  0.50268996356E+02  0.50268996356E+02  0.00000000000E+00 0.  1.
         21   -1    0    0  502  503 -0.00000000000E+00 -0.00000000000E+00 -0.10896718142E+04  0.10896718142E+04  0.00000000000E+00 0. -1.
          6    1    1    2  501    0 -0.24914767190E+02 -0.10701493613E+03 -0.24444919427E+03  0.31899428013E+03  0.17300000000E+03 0. -1.
         -6    1    1    2    0  503  0.24914767190E+02  0.10701493613E+03 -0.79495362357E+03  0.82094653042E+03  0.17300000000E+03 0.  1.
</event>
<event>
 4    1  0.6031777E+000  0.1000000E+03  0.7546771E-02  0.1280296E+00
         21   -1    0    0  501  502  0.00000000000E+00  0.00000000000E+00  0.21509111027E+03  0.21509111027E+03  0.00000000000E+00 0.  1.
         21   -1    0    0  502  503 -0.00000000000E+00 -0.00000000000E+00 -0.29616217740E+03  0.29616217740E+03  0.00000000000E+00 0.  1.
          6    1    1    2  501    0 -0.21236768197E+02 -0.18245899406E+03 -0.46135101573E+02  0.25651458523E+03  0.17300000000E+03 0.  1.
         -6    1    1    2    0  503  0.21236768197E+02  0.18245899406E+03 -0.34935965554E+02  0.25473870245E+03  0.17300000000E+03 0.  1.
</event>
<event>
 4    1  0.6031777E+000  0.1000000E+03  0.7546771E-02  0.1280296E+00
         21   -1    0    0  501  502  0.00000000000E+00  0.00000000000E+00  0.95261877572E+03  0.95261877572E+03  0.00000000000E+00 0.  1.
         21   -1    0    0  502  503 -0.00000000000E+00 -0.00000000000E+00 -0.54731471972E+02  0.54731471972E+02  0.00000000000E+00 0.  1.
          6    1    1    2  501    0  0.77727434463E+01  0.80368976063E+02  0.72524236244E+03  0.74995004643E+03  0.17300000000E+03 0.  1.
         -6    1    1    2    0  503 -0.77727434463E+01 -0.80368976063E+02  0.17264494131E+03  0.25740020127E+03  0.17300000000E+03 0.  1.
</event>
<event>
 4    1  0.6031777E+000  0.1000000E+03  0.7546771E-02  0.1280296E+00
         21   -1    0    0  501  502  0.00000000000E+00  0.00000000000E+00  0.10895224364E+04  0.10895224364E+04  0.00000000000E+00 0.  1.
         21   -1    0    0  502  503 -0.00000000000E+00 -0.00000000000E+00 -0.26661195937E+03  0.26661195937E+03  0.00000000000E+00 0.  1.
          6    1    1    2  501    0 -0.51277575343E+02 -0.32080497716E+03  0.90677809771E+03  0.97863207672E+03  0.17300000000E+03 0.  1.
         -6    1    1    2    0  503  0.51277575343E+02  0.32080497716E+03 -0.83867620659E+02  0.37750231907E+03  0.17300000000E+03 0.  1.
</event>
<event>
 4    1  0.6031777E+000  0.1000000E+03  0.7546771E-02  0.1280296E+00
         21   -1    0    0  503  502  0.00000000000E+00  0.00000000000E+00  0.34590389011E+02  0.34590389011E+02  0.00000000000E+00 0. -1.
         21   -1    0    0  501  503 -0.00000000000E+00 -0.00000000000E+00 -0.13133155660E+04  0.13133155660E+04  0.00000000000E+00 0. -1.
          6    1    1    2  501    0 -0.56884134153E+01  0.26862411219E+02 -0.10233278305E+04  0.10382113445E+04  0.17300000000E+03 0. -1.
         -6    1    1    2    0  502  0.56884134153E+01 -0.26862411219E+02 -0.25539734650E+03  0.30969461052E+03  0.17300000000E+03 0. -1.
</event>
<event>
 4    1  0.6031777E+000  0.1000000E+03  0.7546771E-02  0.1280296E+00
         21   -1    0    0  503  502  0.00000000000E+00  0.00000000000E+00  0.24978282579E+03  0.24978282579E+03  0.00000000000E+00 0. -1.
         21   -1    0    0  501  503 -0.00000000000E+00 -0.00000000000E+00 -0.14712828989E+04  0.14712828989E+04  0.00000000000E+00 0. -1.
          6    1    1    2  501    0 -0.23635628650E+03  0.79014338403E+02 -0.13557753153E+04  0.13893031582E+04  0.17300000000E+03 0. -1.
         -6    1    1    2    0  502  0.23635628650E+03 -0.79014338403E+02  0.13427524220E+03  0.33176256647E+03  0.17300000000E+03 0. -1.
</event>
<event>
 4    1  0.6031777E+000  0.1000000E+03  0.7546771E-02  0.1280296E+00
         21   -1    0    0  503  502  0.00000000000E+00  0.00000000000E+00  0.10618503289E+03  0.10618503289E+03  0.00000000000E+00 0. -1.
         21   -1    0    0  501  503 -0.00000000000E+00 -0.00000000000E+00 -0.78681808264E+03  0.78681808264E+03  0.00000000000E+00 0. -1.
          6    1    1    2  501    0  0.46829873958E+02  0.10019005354E+03 -0.65457900535E+03  0.68602751998E+03  0.17300000000E+03 0. -1.
         -6    1    1    2    0  502 -0.46829873958E+02 -0.10019005354E+03 -0.26054044407E+02  0.20697559555E+03  0.17300000000E+03 0. -1.
</event>
<event>
 4    1  0.6031777E+000  0.1000000E+03  0.7546771E-02  0.1280296E+00
         21   -1    0    0  503  502  0.00000000000E+00  0.00000000000E+00  0.20152263629E+03  0.20152263629E+03  0.00000000000E+00 0. -1.
         21   -1    0    0  501  503 -0.00000000000E+00 -0.00000000000E+00 -0.33171978244E+03  0.33171978244E+03  0.00000000000E+00 0. -1.
          6    1    1    2  501    0  0.14085644498E+03  0.95928687707E+02 -0.15662212298E+03  0.28896771554E+03  0.17300000000E+03 0. -1.
         -6    1    1    2    0  502 -0.14085644498E+03 -0.95928687707E+02  0.26424976837E+02  0.24427470319E+03  0.17300000000E+03 0. -1.
</event>
<event>
 4    1  0.6031777E+000  0.1000000E+03  0.7546771E-02  0.1280296E+00
         21   -1    0    0  501  502  0.00000000000E+00  0.00000000000E+00  0.29115384841E+02  0.29115384841E+02  0.00000000000E+00 0. -1.
         21   -1    0    0  502  503 -0.00000000000E+00 -0.00000000000E+00 -0.10761604910E+04  0.10761604910E+04  0.00000000000E+00 0. -1.
          6    1    1    2  501    0  0.11099133087E+02  0.27630777856E+02 -0.45252225468E+03  0.48537824593E+03  0.17300000000E+03 0. -1.
         -6    1    1    2    0  503 -0.11099133087E+02 -0.27630777856E+02 -0.59452285150E+03  0.61989762993E+03  0.17300000000E+03 0. -1.
</event>
<event>
 4    1  0.6031777E+000  0.1000000E+03  0.7546771E-02  0.1280296E+00
         21   -1    0    0  503  502  0.00000000000E+00  0.00000000000E+00  0.42112291251E+02  0.42112291251E+02  0.00000000000E+00 0. -1.
         21   -1    0    0  501  503 -0.00000000000E+00 -0.00000000000E+00 -0.12243301857E+04  0.12243301857E+04  0.00000000000E+00 0.  1.
          6    1    1    2  501    0  0.16139694697E+02  0.14977035530E+02 -0.99662796966E+03  0.10117712742E+04  0.17300000000E+03 0.  1.
         -6    1    1    2    0  502 -0.16139694697E+02 -0.14977035530E+02 -0.18558992478E+03  0.25467120276E+03  0.17300000000E+03 0. -1.
</event>
<event>
 4    1  0.6031777E+000  0.1000000E+03  0.7546771E-02  0.1280296E+00
         21   -1    0    0  503  502  0.00000000000E+00  0.00000000000E+00  0.97891902859E+02  0.97891902859E+02  0.00000000000E+00 0. -1.
         21   -1    0    0  501  503 -0.00000000000E+00 -0.00000000000E+00 -0.46196716537E+03  0.46196716537E+03  0.00000000000E+00 0.  1.
          6    1    1    2  501    0 -0.10572523089E+02  0.49963380775E+02 -0.33029881586E+03  0.37634349393E+03  0.17300000000E+03 0.  1.
         -6    1    1    2    0  502  0.10572523089E+02 -0.49963380775E+02 -0.33776446649E+02  0.18351557430E+03  0.17300000000E+03 0. -1.
</event>
<event>
 4    1  0.6031777E+000  0.1000000E+03  0.7546771E-02  0.1280296E+00
         21   -1    0    0  503  502  0.00000000000E+00  0.00000000000E+00  0.16573031295E+04  0.16573031295E+04  0.00000000000E+00 0. -1.
         21   -1    0    0  501  503 -0.00000000000E+00 -0.00000000000E+00 -0.28130282708E+02  0.28130282708E+02  0.00000000000E+00 0.  1.
          6    1    1    2  501    0 -0.25759479584E+02  0.62102106063E+02  0.38400034959E+03  0.42650379934E+03  0.17300000000E+03 0.  1.
         -6    1    1    2    0  502  0.25759479584E+02 -0.62102106063E+02  0.12451724972E+04  0.12589296129E+04  0.17300000000E+03 0. -1.
</event>
<event>
 4    1  0.6031777E+000  0.1000000E+03  0.7546771E-02  0.1280296E+00
         21   -1    0    0  503  502  0.00000000000E+00  0.00000000000E+00  0.79830025906E+03  0.79830025906E+03  0.00000000000E+00 0.  1.
         21   -1    0    0  501  503 -0.00000000000E+00 -0.00000000000E+00 -0.79381177128E+02  0.79381177128E+02  0.00000000000E+00 0.  1.
          6    1    1    2  501    0  0.31399864198E+01 -0.28057090544E+02  0.44491567617E+02  0.18084678442E+03  0.17300000000E+03 0. -1.
         -6    1    1    2    0  502 -0.31399864198E+01  0.28057090544E+02  0.67442751432E+03  0.69683465177E+03  0.17300000000E+03 0. -1.
</event>
<event>
 4    1  0.6031777E+000  0.1000000E+03  0.7546771E-02  0.1280296E+00
         21   -1    0    0  503  502  0.00000000000E+00  0.00000000000E+00  0.85687890584E+03  0.85687890584E+03  0.00000000000E+00 0.  1.
         21   -1    0    0  501  503 -0.00000000000E+00 -0.00000000000E+00 -0.94028476533E+02  0.94028476533E+02  0.00000000000E+00 0.  1.
          6    1    1    2  501    0 -0.12034903125E+03  0.11211097727E+03  0.12416304164E+03  0.26906917597E+03  0.17300000000E+03 0. -1.
         -6    1    1    2    0  502  0.12034903125E+03 -0.11211097727E+03  0.63868738767E+03  0.68183820641E+03  0.17300000000E+03 0. -1.
</event>
<event>
 4    1  0.6031777E+000  0.1000000E+03  0.7546771E-02  0.1280296E+00
         21   -1    0    0  503  502  0.00000000000E+00  0.00000000000E+00  0.40993004719E+02  0.40993004719E+02  0.00000000000E+00 0.  1.
         21   -1    0    0  501  503 -0.00000000000E+00 -0.00000000000E+00 -0.13028139374E+04  0.13028139374E+04  0.00000000000E+00 0.  1.
          6    1    1    2  501    0  0.11241093234E+03 -0.68555430569E+02 -0.85875425179E+03  0.88584644817E+03  0.17300000000E+03 0. -1.
         -6    1    1    2    0  502 -0.11241093234E+03  0.68555430569E+02 -0.40306668085E+03  0.45796049391E+03  0.17300000000E+03 0. -1.
</event>
<event>
 4    1  0.6031777E+000  0.1000000E+03  0.7546771E-02  0.1280296E+00
         21   -1    0    0  501  502  0.00000000000E+00  0.00000000000E+00  0.33202503431E+03  0.33202503431E+03  0.00000000000E+00 0. -1.
         21   -1    0    0  502  503 -0.00000000000E+00 -0.00000000000E+00 -0.25579187779E+03  0.25579187779E+03  0.00000000000E+00 0. -1.
          6    1    1    2  501    0  0.81422099880E+02  0.21382963697E+03  0.90010004804E+02  0.30063844225E+03  0.17300000000E+03 0. -1.
         -6    1    1    2    0  503 -0.81422099880E+02 -0.21382963697E+03 -0.13776848283E+02  0.28717846985E+03  0.17300000000E+03 0. -1.
</event>
<event>
 4    1  0.6031777E+000  0.1000000E+03  0.7546771E-02  0.1280296E+00
         21   -1    0    0  503  502  0.00000000000E+00  0.00000000000E+00  0.43739749330E+03  0.43739749330E+03  0.00000000000E+00 0.  1.
         21   -1    0    0  501  503 -0.00000000000E+00 -0.00000000000E+00 -0.15666139554E+03  0.15666139554E+03  0.00000000000E+00 0. -1.
          6    1    1    2  501    0 -0.68363766549E+02  0.17948046131E+03  0.18725540847E+03  0.31918713722E+03  0.17300000000E+03 0.  1.
         -6    1    1    2    0  502  0.68363766549E+02 -0.17948046131E+03  0.93480689286E+02  0.27487175162E+03  0.17300000000E+03 0. -1.
</event>
<event>
 4    1  0.6031777E+000  0.1000000E+03  0.7546771E-02  0.1280296E+00
         21   -1    0    0  503  502  0.00000000000E+00  0.00000000000E+00  0.14995506403E+04  0.14995506403E+04  0.00000000000E+00 0.  1.
         21   -1    0    0  501  503 -0.00000000000E+00 -0.00000000000E+00 -0.22482822331E+02  0.22482822331E+02  0.00000000000E+00 0. -1.
          6    1    1    2  501    0  0.36737578942E+02  0.17475065804E+02  0.54724555788E+03  0.57537963837E+03  0.17300000000E+03 0.  1.
         -6    1    1    2    0  502 -0.36737578942E+02 -0.17475065804E+02  0.92982226008E+03  0.94665382426E+03  0.17300000000E+03 0. -1.
</event>
<event>
 4    1  0.6031777E+000  0.1000000E+03  0.7546771E-02  0.1280296E+00
         21   -1    0    0  503  502  0.00000000000E+00  0.00000000000E+00  0.10512679699E+04  0.10512679699E+04  0.00000000000E+00 0.  1.
         21   -1    0    0  501  503 -0.00000000000E+00 -0.00000000000E+00 -0.13173697587E+03  0.13173697587E+03  0.00000000000E+00 0. -1.
          6    1    1    2  501    0  0.26471744980E+03  0.19055651193E+03  0.38564287995E+03  0.53388813747E+03  0.17300000000E+03 0.  1.
         -6    1    1    2    0  502 -0.26471744980E+03 -0.19055651193E+03  0.53388811409E+03  0.64911680831E+03  0.17300000000E+03 0. -1.
</event>
<event>
 4    1  0.6031777E+000  0.1000000E+03  0.7546771E-02  0.1280296E+00
         21   -1    0    0  503  502  0.00000000000E+00  0.00000000000E+00  0.55054030062E+02  0.55054030062E+02  0.00000000000E+00 0. -1.
         21   -1    0    0  501  503 -0.00000000000E+00 -0.00000000000E+00 -0.12008207369E+04  0.12008207369E+04  0.00000000000E+00 0. -1.
          6    1    1    2  501    0 -0.90355573703E+02 -0.15736925486E+03 -0.71214938414E+03  0.75499334925E+03  0.17300000000E+03 0. -1.
         -6    1    1    2    0  502  0.90355573703E+02  0.15736925486E+03 -0.43361732271E+03  0.50088141773E+03  0.17300000000E+03 0. -1.
</event>
<event>
 4    1  0.6031777E+000  0.1000000E+03  0.7546771E-02  0.1280296E+00
         21   -1    0    0  503  502  0.00000000000E+00  0.00000000000E+00  0.91531907332E+02  0.91531907332E+02  0.00000000000E+00 0. -1.
         21   -1    0    0  501  503 -0.00000000000E+00 -0.00000000000E+00 -0.13108783022E+04  0.13108783022E+04  0.00000000000E+00 0. -1.
          6    1    1    2  501    0 -0.82361032568E+01  0.97030656976E+02 -0.11842907474E+04  0.12008148718E+04  0.17300000000E+03 0. -1.
         -6    1    1    2    0  502  0.82361032568E+01 -0.97030656976E+02 -0.35055647424E+02  0.20159533776E+03  0.17300000000E+03 0. -1.
</event>
<event>
 4    1  0.6031777E+000  0.1000000E+03  0.7546771E-02  0.1280296E+00
         21   -1    0    0  503  502  0.00000000000E+00  0.00000000000E+00  0.63723475770E+03  0.63723475770E+03  0.00000000000E+00 0. -1.
         21   -1    0    0  501  503 -0.00000000000E+00 -0.00000000000E+00 -0.86644913604E+02  0.86644913604E+02  0.00000000000E+00 0. -1.
          6    1    1    2  501    0 -0.40471664484E+02 -0.48164427786E+02  0.50351281087E+02  0.19084553764E+03  0.17300000000E+03 0. -1.
         -6    1    1    2    0  502  0.40471664484E+02  0.48164427786E+02  0.50023856301E+03  0.53303413366E+03  0.17300000000E+03 0. -1.
</event>
<event>
 4    1  0.6031777E+000  0.1000000E+03  0.7546771E-02  0.1280296E+00
         21   -1    0    0  503  502  0.00000000000E+00  0.00000000000E+00  0.83691396851E+02  0.83691396851E+02  0.00000000000E+00 0.  1.
         21   -1    0    0  501  503 -0.00000000000E+00 -0.00000000000E+00 -0.61641814919E+03  0.61641814919E+03  0.00000000000E+00 0.  1.
          6    1    1    2  501    0 -0.86634011794E+02 -0.10298182324E+03 -0.35818022658E+03  0.41991997170E+03  0.17300000000E+03 0.  1.
         -6    1    1    2    0  502  0.86634011794E+02  0.10298182324E+03 -0.17454652576E+03  0.28018957434E+03  0.17300000000E+03 0.  1.
</event>
<event>
 4    1  0.6031777E+000  0.1000000E+03  0.7546771E-02  0.1280296E+00
         21   -1    0    0  501  502  0.00000000000E+00  0.00000000000E+00  0.15764973172E+03  0.15764973172E+03  0.00000000000E+00 0. -1.
         21   -1    0    0  502  503 -0.00000000000E+00 -0.00000000000E+00 -0.49194768262E+03  0.49194768262E+03  0.00000000000E+00 0.  1.
          6    1    1    2  501    0 -0.12647926959E+03  0.69302641787E+02  0.23876238345E+02  0.22649268543E+03  0.17300000000E+03 0. -1.
         -6    1    1    2    0  503  0.12647926959E+03 -0.69302641787E+02 -0.35817418925E+03  0.42310472892E+03  0.17300000000E+03 0.  1.
</event>
<event>
 4    1  0.6031777E+000  0.1000000E+03  0.7546771E-02  0.1280296E+00
         21   -1    0    0  501  502  0.00000000000E+00  0.00000000000E+00  0.52648299293E+02  0.52648299293E+02  0.00000000000E+00 0. -1.
         21   -1    0    0  502  503 -0.00000000000E+00 -0.00000000000E+00 -0.12508750924E+04  0.12508750924E+04  0.00000000000E+00 0.  1.
          6    1    1    2  501    0 -0.59337971841E+02 -0.35452554225E+02 -0.15086814281E+03  0.23972499873E+03  0.17300000000E+03 0. -1.
         -6    1    1    2    0  503  0.59337971841E+02  0.35452554225E+02 -0.10473586503E+04  0.10637983929E+04  0.17300000000E+03 0.  1.
</event>
<event>
 4    1  0.6031777E+000  0.1000000E+03  0.7546771E-02  0.1280296E+00
         21   -1    0    0  501  502  0.00000000000E+00  0.00000000000E+00  0.70484867577E+02  0.70484867577E+02  0.00000000000E+00 0. -1.
         21   -1    0    0  502  503 -0.00000000000E+00 -0.00000000000E+00 -0.78640712977E+03  0.78640712977E+03  0.00000000000E+00 0.  1.
          6    1    1    2  501    0  0.18607579568E+02  0.92651908416E+02 -0.12370654887E+03  0.23272930280E+03  0.17300000000E+03 0. -1.
         -6    1    1    2    0  503 -0.18607579568E+02 -0.92651908416E+02 -0.59221571332E+03  0.62416269454E+03  0.17300000000E+03 0.  1.
</event>
<event>
 4    1  0.6031777E+000  0.1000000E+03  0.7546771E-02  0.1280296E+00
         21   -1    0    0  503  502  0.00000000000E+00  0.00000000000E+00  0.24811025140E+04  0.24811025140E+04  0.00000000000E+00 0. -1.
         21   -1    0    0  501  503 -0.00000000000E+00 -0.00000000000E+00 -0.61121141919E+02  0.61121141919E+02  0.00000000000E+00 0. -1.
          6    1    1    2  501    0  0.84058666825E+00 -0.11043737989E+02  0.71772331332E+02  0.18762446077E+03  0.17300000000E+03 0.  1.
         -6    1    1    2    0  502 -0.84058666825E+00  0.11043737989E+02  0.23482090408E+04  0.23545991952E+04  0.17300000000E+03 0.  1.
</event>
<event>
 4    1  0.6031777E+000  0.1000000E+03  0.7546771E-02  0.1280296E+00
         21   -1    0    0  503  502  0.00000000000E+00  0.00000000000E+00  0.13856218159E+03  0.13856218159E+03  0.00000000000E+00 0. -1.
         21   -1    0    0  501  503 -0.00000000000E+00 -0.00000000000E+00 -0.41528962119E+03  0.41528962119E+03  0.00000000000E+00 0. -1.
          6    1    1    2  501    0  0.88771000798E+02 -0.54216263723E+02  0.11243431058E+02  0.20217593471E+03  0.17300000000E+03 0.  1.
         -6    1    1    2    0  502 -0.88771000798E+02  0.54216263723E+02 -0.28797087066E+03  0.35167586807E+03  0.17300000000E+03 0.  1.
</event>
<event>
 4    1  0.6031777E+000  0.1000000E+03  0.7546771E-02  0.1280296E+00
         21   -1    0    0  501  502  0.00000000000E+00  0.00000000000E+00  0.26520097793E+03  0.26520097793E+03  0.00000000000E+00 0.  1.
         21   -1    0    0  502  503 -0.00000000000E+00 -0.00000000000E+00 -0.19278653547E+03  0.19278653547E+03  0.00000000000E+00 0.  1.
          6    1    1    2  501    0 -0.63069132343E+02 -0.35856062847E+02  0.16404850085E+03  0.24920730994E+03  0.17300000000E+03 0.  1.
         -6    1    1    2    0  503  0.63069132343E+02  0.35856062847E+02 -0.91634058394E+02  0.20878020346E+03  0.17300000000E+03 0.  1.
</event>
<event>
 4    1  0.6031777E+000  0.1000000E+03  0.7546771E-02  0.1280296E+00
         21   -1    0    0  501  502  0.00000000000E+00  0.00000000000E+00  0.20795492927E+03  0.20795492927E+03  0.00000000000E+00 0. -1.
         21   -1    0    0  502  503 -0.00000000000E+00 -0.00000000000E+00 -0.36554329984E+03  0.36554329984E+03  0.00000000000E+00 0. -1.
          6    1    1    2  501    0 -0.22006158167E+02  0.16668525827E+03  0.60038970562E+02  0.24859992821E+03  0.17300000000E+03 0. -1.
         -6    1    1    2    0  503  0.22006158167E+02 -0.16668525827E+03 -0.21762734113E+03  0.32489830090E+03  0.17300000000E+03 0. -1.
</event>
<event>
 4    1  0.6031777E+000  0.1000000E+03  0.7546771E-02  0.1280296E+00
         21   -1    0    0  501  502  0.00000000000E+00  0.00000000000E+00  0.21031248957E+03  0.21031248957E+03  0.00000000000E+00 0. -1.
         21   -1    0    0  502  503 -0.00000000000E+00 -0.00000000000E+00 -0.20580246232E+03  0.20580246232E+03  0.00000000000E+00 0. -1.
          6    1    1    2  501    0 -0.51277990375E+01  0.43147802706E+02  0.10933978410E+03  0.20921810531E+03  0.17300000000E+03 0. -1.
         -6    1    1    2    0  503  0.51277990375E+01 -0.43147802706E+02 -0.10482975686E+03  0.20689684658E+03  0.17300000000E+03 0. -1.
</event>
<event>
 4    1  0.6031777E+000  0.1000000E+03  0.7546771E-02  0.1280296E+00
         21   -1    0    0  501  502  0.00000000000E+00  0.00000000000E+00  0.10006527305E+04  0.10006527305E+04  0.00000000000E+00 0. -1.
         21   -1    0    0  502  503 -0.00000000000E+00 -0.00000000000E+00 -0.73265739302E+02  0.73265739302E+02  0.00000000000E+00 0. -1.
          6    1    1    2  501    0 -0.15493427292E+03  0.13062805774E+03  0.55913587997E+03  0.61937892333E+03  0.17300000000E+03 0. -1.
         -6    1    1    2    0  503  0.15493427292E+03 -0.13062805774E+03  0.36825111127E+03  0.45453954652E+03  0.17300000000E+03 0. -1.
</event>
<event>
 4    1  0.6031777E+000  0.1000000E+03  0.7546771E-02  0.1280296E+00
         21   -1    0    0  503  502  0.00000000000E+00  0.00000000000E+00  0.15169027407E+03  0.15169027407E+03  0.00000000000E+00 0. -1.
         21   -1    0    0  501  503 -0.00000000000E+00 -0.00000000000E+00 -0.20498046496E+03  0.20498046496E+03  0.00000000000E+00 0.  1.
          6    1    1    2  501    0 -0.18996328301E+02  0.73115434745E+01  0.10560537217E+01  0.17419653959E+03  0.17300000000E+03 0.  1.
         -6    1    1    2    0  502  0.18996328301E+02 -0.73115434745E+01 -0.54346244615E+02  0.18247419944E+03  0.17300000000E+03 0. -1.
</event>
<event>
 4    1  0.6031777E+000  0.1000000E+03  0.7546771E-02  0.1280296E+00
         21   -1    0    0  503  502  0.00000000000E+00  0.00000000000E+00  0.13679556400E+03  0.13679556400E+03  0.00000000000E+00 0. -1.
         21   -1    0    0  501  503 -0.00000000000E+00 -0.00000000000E+00 -0.25571170823E+03  0.25571170823E+03  0.00000000000E+00 0.  1.
          6    1    1    2  501    0 -0.35301336314E+02  0.61670848981E+02 -0.58070199865E+02  0.19583315877E+03  0.17300000000E+03 0.  1.
         -6    1    1    2    0  502  0.35301336314E+02 -0.61670848981E+02 -0.60845944366E+02  0.19667411346E+03  0.17300000000E+03 0. -1.
</event>
<event>
 4    1  0.6031777E+000  0.1000000E+03  0.7546771E-02  0.1280296E+00
         21   -1    0    0  501  502  0.00000000000E+00  0.00000000000E+00  0.15346894283E+04  0.15346894283E+04  0.00000000000E+00 0. -1.
         21   -1    0    0  502  503 -0.00000000000E+00 -0.00000000000E+00 -0.13215955788E+03  0.13215955788E+03  0.00000000000E+00 0. -1.
          6    1    1    2  501    0  0.90230268189E+02  0.14591237386E+01  0.14524052540E+04  0.14654533947E+04  0.17300000000E+03 0. -1.
         -6    1    1    2    0  503 -0.90230268189E+02 -0.14591237386E+01 -0.49875383615E+02  0.20139559139E+03  0.17300000000E+03 0. -1.
</event>
<event>
 4    1  0.6031777E+000  0.1000000E+03  0.7546771E-02  0.1280296E+00
         21   -1    0    0  501  502  0.00000000000E+00  0.00000000000E+00  0.12354327413E+03  0.12354327413E+03  0.00000000000E+00 0. -1.
         21   -1    0    0  502  503 -0.00000000000E+00 -0.00000000000E+00 -0.25065238118E+03  0.25065238118E+03  0.00000000000E+00 0.  1.
          6    1    1    2  501    0 -0.30727896469E+02 -0.92680313902E+01 -0.60678781180E+02  0.18612096742E+03  0.17300000000E+03 0.  1.
         -6    1    1    2    0  503  0.30727896469E+02  0.92680313902E+01 -0.66430325871E+02  0.18807468788E+03  0.17300000000E+03 0. -1.
</event>
<event>
 4    1  0.6031777E+000  0.1000000E+03  0.7546771E-02  0.1280296E+00
         21   -1    0    0  501  502  0.00000000000E+00  0.00000000000E+00  0.30480348941E+03  0.30480348941E+03  0.00000000000E+00 0. -1.
         21   -1    0    0  502  503 -0.00000000000E+00 -0.00000000000E+00 -0.14060384422E+03  0.14060384422E+03  0.00000000000E+00 0.  1.
          6    1    1    2  501    0 -0.53466130583E+02  0.92245595476E+02  0.12458471410E+03  0.23836574417E+03  0.17300000000E+03 0.  1.
         -6    1    1    2    0  503  0.53466130583E+02 -0.92245595476E+02  0.39614931081E+02  0.20704158947E+03  0.17300000000E+03 0. -1.
</event>
<event>
 4    1  0.6031777E+000  0.1000000E+03  0.7546771E-02  0.1280296E+00
         21   -1    0    0  501  502  0.00000000000E+00  0.00000000000E+00  0.18949303538E+03  0.18949303538E+03  0.00000000000E+00 0. -1.
         21   -1    0    0  502  503 -0.00000000000E+00 -0.00000000000E+00 -0.30053810923E+03  0.30053810923E+03  0.00000000000E+00 0.  1.
          6    1    1    2  501    0  0.10277795210E+03 -0.82544565825E+02  0.45304061711E+02  0.22216743864E+03  0.17300000000E+03 0.  1.
         -6    1    1    2    0  503 -0.10277795210E+03  0.82544565825E+02 -0.15634913556E+03  0.26786370597E+03  0.17300000000E+03 0. -1.
</event>
<event>
 4    1  0.6031777E+000  0.1000000E+03  0.7546771E-02  0.1280296E+00
         21   -1    0    0  501  502  0.00000000000E+00  0.00000000000E+00  0.11726701683E+03  0.11726701683E+03  0.00000000000E+00 0. -1.
         21   -1    0    0  502  503 -0.00000000000E+00 -0.00000000000E+00 -0.36992608311E+03  0.36992608311E+03  0.00000000000E+00 0.  1.
          6    1    1    2  501    0 -0.46785801057E+02 -0.30288427704E+02 -0.73732575462E+01  0.18190564851E+03  0.17300000000E+03 0.  1.
         -6    1    1    2    0  503  0.46785801057E+02  0.30288427704E+02 -0.24528580874E+03  0.30528745143E+03  0.17300000000E+03 0. -1.
</event>
<event>
 4    1  0.6031777E+000  0.1000000E+03  0.7546771E-02  0.1280296E+00
         21   -1    0    0  501  502  0.00000000000E+00  0.00000000000E+00  0.80451743855E+03  0.80451743855E+03  0.00000000000E+00 0.  1.
         21   -1    0    0  502  503 -0.00000000000E+00 -0.00000000000E+00 -0.26500421033E+03  0.26500421033E+03  0.00000000000E+00 0. -1.
          6    1    1    2  501    0  0.33352909547E+03 -0.16516055972E+03  0.51475934015E+03  0.65835085348E+03  0.17300000000E+03 0.  1.
         -6    1    1    2    0  503 -0.33352909547E+03  0.16516055972E+03  0.24753888073E+02  0.41117079540E+03  0.17300000000E+03 0. -1.
</event>
<event>
 4    1  0.6031777E+000  0.1000000E+03  0.7546771E-02  0.1280296E+00
         21   -1    0    0  501  502  0.00000000000E+00  0.00000000000E+00  0.65403383343E+02  0.65403383343E+02  0.00000000000E+00 0. -1.
         21   -1    0    0  502  503 -0.00000000000E+00 -0.00000000000E+00 -0.12827805592E+04  0.12827805592E+04  0.00000000000E+00 0. -1.
          6    1    1    2  501    0  0.38023261831E+02 -0.18561224945E+02 -0.77082033803E+02  0.19406423536E+03  0.17300000000E+03 0. -1.
         -6    1    1    2    0  503 -0.38023261831E+02  0.18561224945E+02 -0.11402951421E+04  0.11541197072E+04  0.17300000000E+03 0. -1.
</event>
<event>
 4    1  0.6031777E+000  0.1000000E+03  0.7546771E-02  0.1280296E+00
         21   -1    0    0  501  502  0.00000000000E+00  0.00000000000E+00  0.19591397491E+03  0.19591397491E+03  0.00000000000E+00 0. -1.
         21   -1    0    0  502  503 -0.00000000000E+00 -0.00000000000E+00 -0.36667080464E+03  0.36667080464E+03  0.00000000000E+00 0. -1.
          6    1    1    2  501    0 -0.65345155372E+02  0.72458583618E+02  0.10349483466E+03  0.22396521264E+03  0.17300000000E+03 0. -1.
         -6    1    1    2    0  503  0.65345155372E+02 -0.72458583618E+02 -0.27425166439E+03  0.33861956690E+03  0.17300000000E+03 0. -1.
</event>
<event>
 4    1  0.6031777E+000  0.1000000E+03  0.7546771E-02  0.1280296E+00
         21   -1    0    0  501  502  0.00000000000E+00  0.00000000000E+00  0.11063935972E+03  0.11063935972E+03  0.00000000000E+00 0. -1.
         21   -1    0    0  502  503 -0.00000000000E+00 -0.00000000000E+00 -0.35585516527E+03  0.35585516527E+03  0.00000000000E+00 0. -1.
          6    1    1    2  501    0 -0.88775652266E+02  0.22922122994E+02 -0.84771057317E+02  0.21335808472E+03  0.17300000000E+03 0. -1.
         -6    1    1    2    0  503  0.88775652266E+02 -0.22922122994E+02 -0.16044474823E+03  0.25313644027E+03  0.17300000000E+03 0. -1.
</event>
<event>
 4    1  0.6031777E+000  0.1000000E+03  0.7546771E-02  0.1280296E+00
         21   -1    0    0  503  502  0.00000000000E+00  0.00000000000E+00  0.70667245011E+03  0.70667245011E+03  0.00000000000E+00 0. -1.
         21   -1    0    0  501  503 -0.00000000000E+00 -0.00000000000E+00 -0.47603667653E+02  0.47603667653E+02  0.00000000000E+00 0.  1.
          6    1    1    2  501    0  0.40838521931E+02 -0.37083610239E+02  0.27638096372E+03  0.33069384048E+03  0.17300000000E+03 0. -1.
         -6    1    1    2    0  502 -0.40838521931E+02  0.37083610239E+02  0.38268781873E+03  0.42358227728E+03  0.17300000000E+03 0.  1.
</event>
<event>
 4    1  0.6031777E+000  0.1000000E+03  0.7546771E-02  0.1280296E+00
         21   -1    0    0  501  502  0.00000000000E+00  0.00000000000E+00  0.21434110726E+03  0.21434110726E+03  0.00000000000E+00 0. -1.
         21   -1    0    0  502  503 -0.00000000000E+00 -0.00000000000E+00 -0.16703629791E+03  0.16703629791E+03  0.00000000000E+00 0. -1.
          6    1    1    2  501    0 -0.43220185069E+02 -0.56995770728E+02 -0.40797981487E+01  0.18724889060E+03  0.17300000000E+03 0. -1.
         -6    1    1    2    0  503  0.43220185069E+02  0.56995770728E+02  0.51384607501E+02  0.19412851456E+03  0.17300000000E+03 0. -1.
</event>
<event>
 4    1  0.6031777E+000  0.1000000E+03  0.7546771E-02  0.1280296E+00
         21   -1    0    0  501  502  0.00000000000E+00  0.00000000000E+00  0.88231128240E+03  0.88231128240E+03  0.00000000000E+00 0. -1.
         21   -1    0    0  502  503 -0.00000000000E+00 -0.00000000000E+00 -0.80424583779E+02  0.80424583779E+02  0.00000000000E+00 0. -1.
          6    1    1    2  501    0 -0.90341051402E+02  0.47573757445E+02  0.71707890201E+03  0.74468511444E+03  0.17300000000E+03 0. -1.
         -6    1    1    2    0  503  0.90341051402E+02 -0.47573757445E+02  0.84807796608E+02  0.21805075173E+03  0.17300000000E+03 0. -1.
</event>
<event>
 4    1  0.6031777E+000  0.1000000E+03  0.7546771E-02  0.1280296E+00
         21   -1    0    0  501  502  0.00000000000E+00  0.00000000000E+00  0.57994354836E+02  0.57994354836E+02  0.00000000000E+00 0. -1.
         21   -1    0    0  502  503 -0.00000000000E+00 -0.00000000000E+00 -0.18316953634E+04  0.18316953634E+04  0.00000000000E+00 0. -1.
          6    1    1    2  501    0 -0.19005466961E+03 -0.20044491782E+03 -0.88748783061E+03  0.94544306651E+03  0.17300000000E+03 0. -1.
         -6    1    1    2    0  503  0.19005466961E+03  0.20044491782E+03 -0.88621317790E+03  0.94424665168E+03  0.17300000000E+03 0. -1.
</event>
<event>
 4    1  0.6031777E+000  0.1000000E+03  0.7546771E-02  0.1280296E+00
         21   -1    0    0  501  502  0.00000000000E+00  0.00000000000E+00  0.13366509715E+04  0.13366509715E+04  0.00000000000E+00 0. -1.
         21   -1    0    0  502  503 -0.00000000000E+00 -0.00000000000E+00 -0.34311416516E+02  0.34311416516E+02  0.00000000000E+00 0.  1.
          6    1    1    2  501    0  0.96268516175E+02 -0.65683116214E+02  0.80638657228E+03  0.83292869018E+03  0.17300000000E+03 0. -1.
         -6    1    1    2    0  503 -0.96268516175E+02  0.65683116214E+02  0.49595298272E+03  0.53803369785E+03  0.17300000000E+03 0.  1.
</event>
<event>
 4    1  0.6031777E+000  0.1000000E+03  0.7546771E-02  0.1280296E+00
         21   -1    0    0  501  502  0.00000000000E+00  0.00000000000E+00  0.18817997917E+04  0.18817997917E+04  0.00000000000E+00 0. -1.
         21   -1    0    0  502  503 -0.00000000000E+00 -0.00000000000E+00 -0.51112008388E+02  0.51112008388E+02  0.00000000000E+00 0.  1.
          6    1    1    2  501    0 -0.16269808735E+03  0.45633129330E+02  0.15204165255E+04  0.15395286490E+04  0.17300000000E+03 0. -1.
         -6    1    1    2    0  503  0.16269808735E+03 -0.45633129330E+02  0.31027125778E+03  0.39338315104E+03  0.17300000000E+03 0.  1.
</event>
<event>
 4    1  0.6031777E+000  0.1000000E+03  0.7546771E-02  0.1280296E+00
         21   -1    0    0  503  502  0.00000000000E+00  0.00000000000E+00  0.37219750984E+03  0.37219750984E+03  0.00000000000E+00 0. -1.
         21   -1    0    0  501  503 -0.00000000000E+00 -0.00000000000E+00 -0.37010209405E+03  0.37010209405E+03  0.00000000000E+00 0. -1.
          6    1    1    2  501    0  0.62003037802E+02  0.19962266764E+02 -0.32079081433E+03  0.37024129342E+03  0.17300000000E+03 0. -1.
         -6    1    1    2    0  502 -0.62003037802E+02 -0.19962266764E+02  0.32288623012E+03  0.37205831048E+03  0.17300000000E+03 0. -1.
</event>
<event>
 4    1  0.6031777E+000  0.1000000E+03  0.7546771E-02  0.1280296E+00
         21   -1    0    0  503  502  0.00000000000E+00  0.00000000000E+00  0.28753948443E+03  0.28753948443E+03  0.00000000000E+00 0. -1.
         21   -1    0    0  501  503 -0.00000000000E+00 -0.00000000000E+00 -0.20178383932E+03  0.20178383932E+03  0.00000000000E+00 0. -1.
          6    1    1    2  501    0 -0.29137045482E+02  0.23658763820E+02 -0.12303970332E+03  0.21558402798E+03  0.17300000000E+03 0. -1.
         -6    1    1    2    0  502  0.29137045482E+02 -0.23658763820E+02  0.20879534843E+03  0.27373929577E+03  0.17300000000E+03 0. -1.
</event>
<event>
 4    1  0.6031777E+000  0.1000000E+03  0.7546771E-02  0.1280296E+00
         21   -1    0    0  501  502  0.00000000000E+00  0.00000000000E+00  0.97298548137E+03  0.97298548137E+03  0.00000000000E+00 0. -1.
         21   -1    0    0  502  503 -0.00000000000E+00 -0.00000000000E+00 -0.72855148908E+02  0.72855148908E+02  0.00000000000E+00 0. -1.
          6    1    1    2  501    0 -0.11780509740E+03  0.16391640775E+03  0.42151054674E+03  0.49834402847E+03  0.17300000000E+03 0. -1.
         -6    1    1    2    0  503  0.11780509740E+03 -0.16391640775E+03  0.47861978573E+03  0.54749660181E+03  0.17300000000E+03 0. -1.
</event>
<event>
 4    1  0.6031777E+000  0.1000000E+03  0.7546771E-02  0.1280296E+00
         21   -1    0    0  501  502  0.00000000000E+00  0.00000000000E+00  0.39378949043E+02  0.39378949043E+02  0.00000000000E+00 0. -1.
         21   -1    0    0  502  503 -0.00000000000E+00 -0.00000000000E+00 -0.25082879714E+04  0.25082879714E+04  0.00000000000E+00 0. -1.
          6    1    1    2  501    0  0.11266212063E+03  0.20258535759E+03 -0.73621192077E+03  0.79099340883E+03  0.17300000000E+03 0. -1.
         -6    1    1    2    0  503 -0.11266212063E+03 -0.20258535759E+03 -0.17326971015E+04  0.17566735116E+04  0.17300000000E+03 0. -1.
</event>
<event>
 4    1  0.6031777E+000  0.1000000E+03  0.7546771E-02  0.1280296E+00
         21   -1    0    0  503  502  0.00000000000E+00  0.00000000000E+00  0.14535319630E+03  0.14535319630E+03  0.00000000000E+00 0. -1.
         21   -1    0    0  501  503 -0.00000000000E+00 -0.00000000000E+00 -0.79558814335E+03  0.79558814335E+03  0.00000000000E+00 0. -1.
          6    1    1    2  501    0 -0.61043546858E+02 -0.29795181305E+02 -0.71910434416E+03  0.74273422247E+03  0.17300000000E+03 0. -1.
         -6    1    1    2    0  502  0.61043546858E+02  0.29795181305E+02  0.68869397112E+02  0.19820711718E+03  0.17300000000E+03 0. -1.
</event>
<event>
 4    1  0.6031777E+000  0.1000000E+03  0.7546771E-02  0.1280296E+00
         21   -1    0    0  503  502  0.00000000000E+00  0.00000000000E+00  0.83600062589E+02  0.83600062589E+02  0.00000000000E+00 0. -1.
         21   -1    0    0  501  503 -0.00000000000E+00 -0.00000000000E+00 -0.82321351816E+03  0.82321351816E+03  0.00000000000E+00 0. -1.
          6    1    1    2  501    0  0.17746699842E+02 -0.21453992399E+01 -0.70924860101E+03  0.73026168332E+03  0.17300000000E+03 0. -1.
         -6    1    1    2    0  502 -0.17746699842E+02  0.21453992399E+01 -0.30364854562E+02  0.17655189743E+03  0.17300000000E+03 0. -1.
</event>
<event>
 4    1  0.6031777E+000  0.1000000E+03  0.7546771E-02  0.1280296E+00
         21   -1    0    0  501  502  0.00000000000E+00  0.00000000000E+00  0.12841512992E+04  0.12841512992E+04  0.00000000000E+00 0. -1.
         21   -1    0    0  502  503 -0.00000000000E+00 -0.00000000000E+00 -0.46247837418E+02  0.46247837418E+02  0.00000000000E+00 0. -1.
          6    1    1    2  501    0  0.11099163337E+03 -0.39908734476E+01  0.26174852514E+03  0.33283082814E+03  0.17300000000E+03 0. -1.
         -6    1    1    2    0  503 -0.11099163337E+03  0.39908734476E+01  0.97615493668E+03  0.99756830852E+03  0.17300000000E+03 0. -1.
</event>
<event>
 4    1  0.6031777E+000  0.1000000E+03  0.7546771E-02  0.1280296E+00
         21   -1    0    0  501  502  0.00000000000E+00  0.00000000000E+00  0.18980929200E+03  0.18980929200E+03  0.00000000000E+00 0. -1.
         21   -1    0    0  502  503 -0.00000000000E+00 -0.00000000000E+00 -0.82638044165E+03  0.82638044165E+03  0.00000000000E+00 0. -1.
          6    1    1    2  501    0  0.46558111957E+02  0.12490142080E+03  0.10557514757E+03  0.24257603858E+03  0.17300000000E+03 0. -1.
         -6    1    1    2    0  503 -0.46558111957E+02 -0.12490142080E+03 -0.74214629723E+03  0.77361369507E+03  0.17300000000E+03 0. -1.
</event>
<event>
 4    1  0.6031777E+000  0.1000000E+03  0.7546771E-02  0.1280296E+00
         21   -1    0    0  503  502  0.00000000000E+00  0.00000000000E+00  0.21861629198E+03  0.21861629198E+03  0.00000000000E+00 0.  1.
         21   -1    0    0  501  503 -0.00000000000E+00 -0.00000000000E+00 -0.21364905552E+03  0.21364905552E+03  0.00000000000E+00 0.  1.
          6    1    1    2  501    0 -0.95396422932E+02 -0.53795831727E+02 -0.66685211745E+02  0.21533784267E+03  0.17300000000E+03 0.  1.
         -6    1    1    2    0  502  0.95396422932E+02  0.53795831727E+02  0.71652448197E+02  0.21692750483E+03  0.17300000000E+03 0.  1.
</event>
<event>
 4    1  0.6031777E+000  0.1000000E+03  0.7546771E-02  0.1280296E+00
         21   -1    0    0  501  502  0.00000000000E+00  0.00000000000E+00  0.43498050779E+03  0.43498050779E+03  0.00000000000E+00 0. -1.
         21   -1    0    0  502  503 -0.00000000000E+00 -0.00000000000E+00 -0.93947474082E+02  0.93947474082E+02  0.00000000000E+00 0. -1.
          6    1    1    2  501    0 -0.10297010813E+03 -0.98201672949E+01  0.19065844068E+03  0.27745075213E+03  0.17300000000E+03 0. -1.
         -6    1    1    2    0  503  0.10297010813E+03  0.98201672949E+01  0.15037459303E+03  0.25147722975E+03  0.17300000000E+03 0. -1.
</event>
<event>
 4    1  0.6031777E+000  0.1000000E+03  0.7546771E-02  0.1280296E+00
         21   -1    0    0  501  502  0.00000000000E+00  0.00000000000E+00  0.94384868098E+02  0.94384868098E+02  0.00000000000E+00 0. -1.
         21   -1    0    0  502  503 -0.00000000000E+00 -0.00000000000E+00 -0.75612891036E+03  0.75612891036E+03  0.00000000000E+00 0. -1.
          6    1    1    2  501    0 -0.10730002706E+02 -0.19072845565E+03 -0.21892463176E+03  0.33815598641E+03  0.17300000000E+03 0. -1.
         -6    1    1    2    0  503  0.10730002706E+02  0.19072845565E+03 -0.44281941050E+03  0.51235779205E+03  0.17300000000E+03 0. -1.
</event>
<event>
 4    1  0.6031777E+000  0.1000000E+03  0.7546771E-02  0.1280296E+00
         21   -1    0    0  501  502  0.00000000000E+00  0.00000000000E+00  0.26128692661E+03  0.26128692661E+03  0.00000000000E+00 0.  1.
         21   -1    0    0  502  503 -0.00000000000E+00 -0.00000000000E+00 -0.20451518227E+03  0.20451518227E+03  0.00000000000E+00 0.  1.
          6    1    1    2  501    0  0.62758517754E+02  0.11623177980E+03  0.10681454584E+03  0.24245990470E+03  0.17300000000E+03 0.  1.
         -6    1    1    2    0  503 -0.62758517754E+02 -0.11623177980E+03 -0.50042801496E+02  0.22334220418E+03  0.17300000000E+03 0.  1.
</event>
<event>
 4    1  0.6031777E+000  0.1000000E+03  0.7546771E-02  0.1280296E+00
         21   -1    0    0  501  502  0.00000000000E+00  0.00000000000E+00  0.46226541119E+02  0.46226541119E+02  0.00000000000E+00 0.  1.
         21   -1    0    0  502  503 -0.00000000000E+00 -0.00000000000E+00 -0.77667182687E+03  0.77667182687E+03  0.00000000000E+00 0.  1.
          6    1    1    2  501    0 -0.54188955569E+02 -0.17200873904E+02 -0.25152565537E+03  0.31052611529E+03  0.17300000000E+03 0.  1.
         -6    1    1    2    0  503  0.54188955569E+02  0.17200873904E+02 -0.47891963038E+03  0.51237225270E+03  0.17300000000E+03 0.  1.
</event>
<event>
 4    1  0.6031777E+000  0.1000000E+03  0.7546771E-02  0.1280296E+00
         21   -1    0    0  503  502  0.00000000000E+00  0.00000000000E+00  0.48044575182E+03  0.48044575182E+03  0.00000000000E+00 0. -1.
         21   -1    0    0  501  503 -0.00000000000E+00 -0.00000000000E+00 -0.15629050627E+03  0.15629050627E+03  0.00000000000E+00 0. -1.
          6    1    1    2  501    0  0.18585459760E+03  0.42645412411E+00  0.42358811540E+02  0.25742063287E+03  0.17300000000E+03 0. -1.
         -6    1    1    2    0  502 -0.18585459760E+03 -0.42645412411E+00  0.28179643401E+03  0.37931562522E+03  0.17300000000E+03 0. -1.
</event>
<event>
 4    1  0.6031777E+000  0.1000000E+03  0.7546771E-02  0.1280296E+00
         21   -1    0    0  503  502  0.00000000000E+00  0.00000000000E+00  0.78213210709E+03  0.78213210709E+03  0.00000000000E+00 0. -1.
         21   -1    0    0  501  503 -0.00000000000E+00 -0.00000000000E+00 -0.19318520114E+03  0.19318520114E+03  0.00000000000E+00 0. -1.
          6    1    1    2  501    0 -0.11005261568E+02  0.13242652772E+03 -0.10915237262E+03  0.24392855814E+03  0.17300000000E+03 0. -1.
         -6    1    1    2    0  502  0.11005261568E+02 -0.13242652772E+03  0.69809927857E+03  0.73138875009E+03  0.17300000000E+03 0. -1.
</event>
<event>
 4    1  0.6031777E+000  0.1000000E+03  0.7546771E-02  0.1280296E+00
         21   -1    0    0  501  502  0.00000000000E+00  0.00000000000E+00  0.25546226131E+04  0.25546226131E+04  0.00000000000E+00 0. -1.
         21   -1    0    0  502  503 -0.00000000000E+00 -0.00000000000E+00 -0.48624996329E+02  0.48624996329E+02  0.00000000000E+00 0. -1.
          6    1    1    2  501    0  0.17990900475E+02  0.12648553138E+03  0.22178568238E+03  0.30893389431E+03  0.17300000000E+03 0. -1.
         -6    1    1    2    0  503 -0.17990900475E+02 -0.12648553138E+03  0.22842119344E+04  0.22943137152E+04  0.17300000000E+03 0. -1.
</event>
<event>
 4    1  0.6031777E+000  0.1000000E+03  0.7546771E-02  0.1280296E+00
         21   -1    0    0  503  502  0.00000000000E+00  0.00000000000E+00  0.54929533736E+03  0.54929533736E+03  0.00000000000E+00 0.  1.
         21   -1    0    0  501  503 -0.00000000000E+00 -0.00000000000E+00 -0.62772490895E+02  0.62772490895E+02  0.00000000000E+00 0.  1.
          6    1    1    2  501    0  0.35222754418E+02  0.54893669379E+02  0.27169661500E+03  0.32863658952E+03  0.17300000000E+03 0. -1.
         -6    1    1    2    0  502 -0.35222754418E+02 -0.54893669379E+02  0.21482623146E+03  0.28343123874E+03  0.17300000000E+03 0. -1.
</event>
<event>
 4    1  0.6031777E+000  0.1000000E+03  0.7546771E-02  0.1280296E+00
         21   -1    0    0  501  502  0.00000000000E+00  0.00000000000E+00  0.23462121990E+03  0.23462121990E+03  0.00000000000E+00 0. -1.
         21   -1    0    0  502  503 -0.00000000000E+00 -0.00000000000E+00 -0.23562551069E+03  0.23562551069E+03  0.00000000000E+00 0.  1.
          6    1    1    2  501    0  0.36468109563E+02  0.15491880865E+03 -0.53995506195E+01  0.23513382453E+03  0.17300000000E+03 0. -1.
         -6    1    1    2    0  503 -0.36468109563E+02 -0.15491880865E+03  0.43952598312E+01  0.23511290606E+03  0.17300000000E+03 0.  1.
</event>
<event>
 4    1  0.6031777E+000  0.1000000E+03  0.7546771E-02  0.1280296E+00
         21   -1    0    0  501  502  0.00000000000E+00  0.00000000000E+00  0.93263455967E+02  0.93263455967E+02  0.00000000000E+00 0. -1.
         21   -1    0    0  502  503 -0.00000000000E+00 -0.00000000000E+00 -0.50740928097E+03  0.50740928097E+03  0.00000000000E+00 0. -1.
          6    1    1    2  501    0 -0.87346531683E+02  0.16512918654E+02 -0.72566240155E+02  0.20759805464E+03  0.17300000000E+03 0. -1.
         -6    1    1    2    0  503  0.87346531683E+02 -0.16512918654E+02 -0.34157958485E+03  0.39307468230E+03  0.17300000000E+03 0. -1.
</event>
<event>
 4    1  0.6031777E+000  0.1000000E+03  0.7546771E-02  0.1280296E+00
         21   -1    0    0  501  502  0.00000000000E+00  0.00000000000E+00  0.98006594781E+03  0.98006594781E+03  0.00000000000E+00 0. -1.
         21   -1    0    0  502  503 -0.00000000000E+00 -0.00000000000E+00 -0.21446122873E+03  0.21446122873E+03  0.00000000000E+00 0. -1.
          6    1    1    2  501    0 -0.15635583168E+03 -0.11980623577E+03  0.87277902519E+03  0.91130286241E+03  0.17300000000E+03 0. -1.
         -6    1    1    2    0  503  0.15635583168E+03  0.11980623577E+03 -0.10717430611E+03  0.28322431413E+03  0.17300000000E+03 0. -1.
</event>
<event>
 4    1  0.6031777E+000  0.1000000E+03  0.7546771E-02  0.1280296E+00
         21   -1    0    0  501  502  0.00000000000E+00  0.00000000000E+00  0.11984488645E+03  0.11984488645E+03  0.00000000000E+00 0. -1.
         21   -1    0    0  502  503 -0.00000000000E+00 -0.00000000000E+00 -0.46602508133E+03  0.46602508133E+03  0.00000000000E+00 0.  1.
          6    1    1    2  501    0  0.43924548067E+02  0.57710210751E+02  0.50828846681E+01  0.18765572217E+03  0.17300000000E+03 0.  1.
         -6    1    1    2    0  503 -0.43924548067E+02 -0.57710210751E+02 -0.35126307955E+03  0.39821424561E+03  0.17300000000E+03 0. -1.
</event>
<event>
 4    1  0.6031777E+000  0.1000000E+03  0.7546771E-02  0.1280296E+00
         21   -1    0    0  501  502  0.00000000000E+00  0.00000000000E+00  0.54455987534E+02  0.54455987534E+02  0.00000000000E+00 0. -1.
         21   -1    0    0  502  503 -0.00000000000E+00 -0.00000000000E+00 -0.70974258493E+03  0.70974258493E+03  0.00000000000E+00 0.  1.
          6    1    1    2  501    0  0.81257951651E+02 -0.63136931412E+01 -0.23904458604E+03  0.30612747597E+03  0.17300000000E+03 0.  1.
         -6    1    1    2    0  503 -0.81257951651E+02  0.63136931412E+01 -0.41624201136E+03  0.45807109650E+03  0.17300000000E+03 0. -1.
</event>
<event>
 4    1  0.6031777E+000  0.1000000E+03  0.7546771E-02  0.1280296E+00
         21   -1    0    0  501  502  0.00000000000E+00  0.00000000000E+00  0.20403844809E+03  0.20403844809E+03  0.00000000000E+00 0.  1.
         21   -1    0    0  502  503 -0.00000000000E+00 -0.00000000000E+00 -0.80279208961E+03  0.80279208961E+03  0.00000000000E+00 0.  1.
          6    1    1    2  501    0  0.10736399506E+03 -0.42551066555E+01  0.13566277722E+03  0.24470088372E+03  0.17300000000E+03 0.  1.
         -6    1    1    2    0  503 -0.10736399506E+03  0.42551066555E+01 -0.73441641874E+03  0.76212965398E+03  0.17300000000E+03 0.  1.
</event>
<event>
 4    1  0.6031777E+000  0.1000000E+03  0.7546771E-02  0.1280296E+00
         21   -1    0    0  501  502  0.00000000000E+00  0.00000000000E+00  0.85912689290E+03  0.85912689290E+03  0.00000000000E+00 0.  1.
         21   -1    0    0  502  503 -0.00000000000E+00 -0.00000000000E+00 -0.23890394728E+03  0.23890394728E+03  0.00000000000E+00 0.  1.
          6    1    1    2  501    0  0.87221420231E+02 -0.11526433629E+03  0.78632852670E+03  0.81800672080E+03  0.17300000000E+03 0.  1.
         -6    1    1    2    0  503 -0.87221420231E+02  0.11526433629E+03 -0.16610558108E+03  0.28002411938E+03  0.17300000000E+03 0.  1.
</event>
<event>
 4    1  0.6031777E+000  0.1000000E+03  0.7546771E-02  0.1280296E+00
         21   -1    0    0  501  502  0.00000000000E+00  0.00000000000E+00  0.53364108857E+03  0.53364108857E+03  0.00000000000E+00 0. -1.
         21   -1    0    0  502  503 -0.00000000000E+00 -0.00000000000E+00 -0.47040072910E+03  0.47040072910E+03  0.00000000000E+00 0.  1.
          6    1    1    2  501    0  0.34429341418E+03 -0.21294135225E+03  0.27129092735E+03  0.51711675840E+03  0.17300000000E+03 0. -1.
         -6    1    1    2    0  503 -0.34429341418E+03  0.21294135225E+03 -0.20805056789E+03  0.48692505927E+03  0.17300000000E+03 0.  1.
</event>
<event>
 4    1  0.6031777E+000  0.1000000E+03  0.7546771E-02  0.1280296E+00
         21   -1    0    0  501  502  0.00000000000E+00  0.00000000000E+00  0.10421812030E+04  0.10421812030E+04  0.00000000000E+00 0. -1.
         21   -1    0    0  502  503 -0.00000000000E+00 -0.00000000000E+00 -0.48300078900E+02  0.48300078900E+02  0.00000000000E+00 0.  1.
          6    1    1    2  501    0 -0.85769341326E+02  0.24911106161E+02  0.76790000774E+03  0.79219717559E+03  0.17300000000E+03 0. -1.
         -6    1    1    2    0  503  0.85769341326E+02 -0.24911106161E+02  0.22598111632E+03  0.29828410628E+03  0.17300000000E+03 0.  1.
</event>
<event>
 4    1  0.6031777E+000  0.1000000E+03  0.7546771E-02  0.1280296E+00
         21   -1    0    0  501  502  0.00000000000E+00  0.00000000000E+00  0.80542436739E+02  0.80542436739E+02  0.00000000000E+00 0. -1.
         21   -1    0    0  502  503 -0.00000000000E+00 -0.00000000000E+00 -0.40305699445E+03  0.40305699445E+03  0.00000000000E+00 0.  1.
          6    1    1    2  501    0  0.36383496795E+02 -0.59034855416E+01 -0.11524362427E+03  0.21111300982E+03  0.17300000000E+03 0. -1.
         -6    1    1    2    0  503 -0.36383496795E+02  0.59034855416E+01 -0.20727093344E+03  0.27248642137E+03  0.17300000000E+03 0.  1.
</event>
<event>
 4    1  0.6031777E+000  0.1000000E+03  0.7546771E-02  0.1280296E+00
         21   -1    0    0  501  502  0.00000000000E+00  0.00000000000E+00  0.13962588712E+03  0.13962588712E+03  0.00000000000E+00 0. -1.
         21   -1    0    0  502  503 -0.00000000000E+00 -0.00000000000E+00 -0.24522844529E+03  0.24522844529E+03  0.00000000000E+00 0.  1.
          6    1    1    2  501    0  0.57904052104E+02  0.27178200450E+02 -0.37387172886E+02  0.18819759437E+03  0.17300000000E+03 0. -1.
         -6    1    1    2    0  503 -0.57904052104E+02 -0.27178200450E+02 -0.68215385280E+02  0.19665673805E+03  0.17300000000E+03 0.  1.
</event>
<event>
 4    1  0.6031777E+000  0.1000000E+03  0.7546771E-02  0.1280296E+00
         21   -1    0    0  501  502  0.00000000000E+00  0.00000000000E+00  0.45085198804E+03  0.45085198804E+03  0.00000000000E+00 0. -1.
         21   -1    0    0  502  503 -0.00000000000E+00 -0.00000000000E+00 -0.12413076049E+03  0.12413076049E+03  0.00000000000E+00 0. -1.
          6    1    1    2  501    0 -0.45992064177E+02  0.21291406977E+02 -0.22803925575E+02  0.18170749297E+03  0.17300000000E+03 0. -1.
         -6    1    1    2    0  503  0.45992064177E+02 -0.21291406977E+02  0.34952515312E+03  0.39327525557E+03  0.17300000000E+03 0. -1.
</event>
<event>
 4    1  0.6031777E+000  0.1000000E+03  0.7546771E-02  0.1280296E+00
         21   -1    0    0  503  502  0.00000000000E+00  0.00000000000E+00  0.21840877263E+03  0.21840877263E+03  0.00000000000E+00 0.  1.
         21   -1    0    0  501  503 -0.00000000000E+00 -0.00000000000E+00 -0.23790963983E+03  0.23790963983E+03  0.00000000000E+00 0. -1.
          6    1    1    2  501    0  0.49359508408E+02  0.13246896588E+03 -0.55048467158E+02  0.23009502760E+03  0.17300000000E+03 0.  1.
         -6    1    1    2    0  502 -0.49359508408E+02 -0.13246896588E+03  0.35547599954E+02  0.22622338485E+03  0.17300000000E+03 0. -1.
</event>
<event>
 4    1  0.6031777E+000  0.1000000E+03  0.7546771E-02  0.1280296E+00
         21   -1    0    0  501  502  0.00000000000E+00  0.00000000000E+00  0.41972328613E+03  0.41972328613E+03  0.00000000000E+00 0.  1.
         21   -1    0    0  502  503 -0.00000000000E+00 -0.00000000000E+00 -0.22622651241E+03  0.22622651241E+03  0.00000000000E+00 0.  1.
          6    1    1    2  501    0 -0.72624809202E+01  0.61143171088E+02  0.35611005473E+03  0.40066769533E+03  0.17300000000E+03 0.  1.
         -6    1    1    2    0  503  0.72624809202E+01 -0.61143171088E+02 -0.16261328100E+03  0.24528210322E+03  0.17300000000E+03 0.  1.
</event>
<event>
 4    1  0.6031777E+000  0.1000000E+03  0.7546771E-02  0.1280296E+00
         21   -1    0    0  501  502  0.00000000000E+00  0.00000000000E+00  0.12365172547E+04  0.12365172547E+04  0.00000000000E+00 0. -1.
         21   -1    0    0  502  503 -0.00000000000E+00 -0.00000000000E+00 -0.25474352725E+02  0.25474352725E+02  0.00000000000E+00 0. -1.
          6    1    1    2  501    0 -0.55443106781E+00 -0.49216256936E+00  0.46465273960E+03  0.49581419709E+03  0.17300000000E+03 0. -1.
         -6    1    1    2    0  503  0.55443106781E+00  0.49216256936E+00  0.74639016234E+03  0.76617741030E+03  0.17300000000E+03 0. -1.
</event>
<event>
 4    1  0.6031777E+000  0.1000000E+03  0.7546771E-02  0.1280296E+00
         21   -1    0    0  501  502  0.00000000000E+00  0.00000000000E+00  0.11166456179E+03  0.11166456179E+03  0.00000000000E+00 0. -1.
         21   -1    0    0  502  503 -0.00000000000E+00 -0.00000000000E+00 -0.27128147640E+03  0.27128147640E+03  0.00000000000E+00 0. -1.
          6    1    1    2  501    0  0.10181117739E+02 -0.84365876681E+01 -0.64696483359E+02  0.18517415081E+03  0.17300000000E+03 0. -1.
         -6    1    1    2    0  503 -0.10181117739E+02  0.84365876681E+01 -0.94920431247E+02  0.19777188738E+03  0.17300000000E+03 0. -1.
</event>
<event>
 4    1  0.6031777E+000  0.1000000E+03  0.7546771E-02  0.1280296E+00
         21   -1    0    0  501  502  0.00000000000E+00  0.00000000000E+00  0.79286780292E+02  0.79286780292E+02  0.00000000000E+00 0. -1.
         21   -1    0    0  502  503 -0.00000000000E+00 -0.00000000000E+00 -0.86883553576E+03  0.86883553576E+03  0.00000000000E+00 0. -1.
          6    1    1    2  501    0  0.14298833659E+03  0.10464196343E+03 -0.23770199889E+03  0.34325915165E+03  0.17300000000E+03 0. -1.
         -6    1    1    2    0  503 -0.14298833659E+03 -0.10464196343E+03 -0.55184675658E+03  0.60486316441E+03  0.17300000000E+03 0. -1.
</event>
<event>
 4    1  0.6031777E+000  0.1000000E+03  0.7546771E-02  0.1280296E+00
         21   -1    0    0  503  502  0.00000000000E+00  0.00000000000E+00  0.50619225194E+02  0.50619225194E+02  0.00000000000E+00 0. -1.
         21   -1    0    0  501  503 -0.00000000000E+00 -0.00000000000E+00 -0.85105858213E+03  0.85105858213E+03  0.00000000000E+00 0.  1.
          6    1    1    2  501    0 -0.11164189811E+02  0.70393119113E+02 -0.59536141176E+03  0.62407054166E+03  0.17300000000E+03 0. -1.
         -6    1    1    2    0  502  0.11164189811E+02 -0.70393119113E+02 -0.20507794518E+03  0.27760726567E+03  0.17300000000E+03 0.  1.
</event>
<event>
 4    1  0.6031777E+000  0.1000000E+03  0.7546771E-02  0.1280296E+00
         21   -1    0    0  503  502  0.00000000000E+00  0.00000000000E+00  0.12759692095E+03  0.12759692095E+03  0.00000000000E+00 0. -1.
         21   -1    0    0  501  503 -0.00000000000E+00 -0.00000000000E+00 -0.25338108621E+03  0.25338108621E+03  0.00000000000E+00 0.  1.
          6    1    1    2  501    0 -0.18283387950E+02  0.27396928863E+02 -0.24449011067E+02  0.17779659200E+03  0.17300000000E+03 0. -1.
         -6    1    1    2    0  502  0.18283387950E+02 -0.27396928863E+02 -0.10133515419E+03  0.20318141515E+03  0.17300000000E+03 0.  1.
</event>
<event>
 4    1  0.6031777E+000  0.1000000E+03  0.7546771E-02  0.1280296E+00
         21   -1    0    0  501  502  0.00000000000E+00  0.00000000000E+00  0.39752747477E+02  0.39752747477E+02  0.00000000000E+00 0.  1.
         21   -1    0    0  502  503 -0.00000000000E+00 -0.00000000000E+00 -0.17684862120E+04  0.17684862120E+04  0.00000000000E+00 0.  1.
          6    1    1    2  501    0  0.18850742980E+03  0.48358306225E+02 -0.10348483062E+04  0.10671052402E+04  0.17300000000E+03 0.  1.
         -6    1    1    2    0  503 -0.18850742980E+03 -0.48358306225E+02 -0.69388515832E+03  0.74113371924E+03  0.17300000000E+03 0.  1.
</event>
<event>
 4    1  0.6031777E+000  0.1000000E+03  0.7546771E-02  0.1280296E+00
         21   -1    0    0  501  502  0.00000000000E+00  0.00000000000E+00  0.37097279351E+03  0.37097279351E+03  0.00000000000E+00 0.  1.
         21   -1    0    0  502  503 -0.00000000000E+00 -0.00000000000E+00 -0.15112912424E+03  0.15112912424E+03  0.00000000000E+00 0.  1.
          6    1    1    2  501    0 -0.32027291821E+02 -0.76712718114E+02  0.26278951227E+03  0.32541960036E+03  0.17300000000E+03 0.  1.
         -6    1    1    2    0  503  0.32027291821E+02  0.76712718114E+02 -0.42945843003E+02  0.19668231739E+03  0.17300000000E+03 0.  1.
</event>
<event>
 4    1  0.6031777E+000  0.1000000E+03  0.7546771E-02  0.1280296E+00
         21   -1    0    0  501  502  0.00000000000E+00  0.00000000000E+00  0.23990209144E+03  0.23990209144E+03  0.00000000000E+00 0.  1.
         21   -1    0    0  502  503 -0.00000000000E+00 -0.00000000000E+00 -0.30307194367E+03  0.30307194367E+03  0.00000000000E+00 0.  1.
          6    1    1    2  501    0 -0.30609096232E+02 -0.62121174111E+02  0.16463889733E+03  0.24865824651E+03  0.17300000000E+03 0.  1.
         -6    1    1    2    0  503  0.30609096232E+02  0.62121174111E+02 -0.22780874956E+03  0.29431578860E+03  0.17300000000E+03 0.  1.
</event>
<event>
 4    1  0.6031777E+000  0.1000000E+03  0.7546771E-02  0.1280296E+00
         21   -1    0    0  503  502  0.00000000000E+00  0.00000000000E+00  0.11830951221E+04  0.11830951221E+04  0.00000000000E+00 0. -1.
         21   -1    0    0  501  503 -0.00000000000E+00 -0.00000000000E+00 -0.12066341471E+03  0.12066341471E+03  0.00000000000E+00 0. -1.
          6    1    1    2  501    0  0.19970729534E+03 -0.16005916692E+03  0.15588308750E+03  0.34602092089E+03  0.17300000000E+03 0. -1.
         -6    1    1    2    0  502 -0.19970729534E+03  0.16005916692E+03  0.90654861988E+03  0.95773761591E+03  0.17300000000E+03 0. -1.
</event>
<event>
 4    1  0.6031777E+000  0.1000000E+03  0.7546771E-02  0.1280296E+00
         21   -1    0    0  501  502  0.00000000000E+00  0.00000000000E+00  0.64469033476E+03  0.64469033476E+03  0.00000000000E+00 0.  1.
         21   -1    0    0  502  503 -0.00000000000E+00 -0.00000000000E+00 -0.54511517633E+02  0.54511517633E+02  0.00000000000E+00 0. -1.
          6    1    1    2  501    0  0.12366802018E+02 -0.45399083708E+02  0.39723413357E+03  0.43581873693E+03  0.17300000000E+03 0.  1.
         -6    1    1    2    0  503 -0.12366802018E+02  0.45399083708E+02  0.19294468356E+03  0.26338311546E+03  0.17300000000E+03 0. -1.
</event>
<event>
 4    1  0.6031777E+000  0.1000000E+03  0.7546771E-02  0.1280296E+00
         21   -1    0    0  501  502  0.00000000000E+00  0.00000000000E+00  0.36528694543E+02  0.36528694543E+02  0.00000000000E+00 0.  1.
         21   -1    0    0  502  503 -0.00000000000E+00 -0.00000000000E+00 -0.12489832097E+04  0.12489832097E+04  0.00000000000E+00 0.  1.
          6    1    1    2  501    0  0.56449943712E+02 -0.50294050851E+02 -0.30562905803E+03  0.35924115690E+03  0.17300000000E+03 0.  1.
         -6    1    1    2    0  503 -0.56449943712E+02  0.50294050851E+02 -0.90682545715E+03  0.92627074737E+03  0.17300000000E+03 0.  1.
</event>
<event>
 4    1  0.6031777E+000  0.1000000E+03  0.7546771E-02  0.1280296E+00
         21   -1    0    0  503  502  0.00000000000E+00  0.00000000000E+00  0.11722666356E+03  0.11722666356E+03  0.00000000000E+00 0.  1.
         21   -1    0    0  501  503 -0.00000000000E+00 -0.00000000000E+00 -0.27652597978E+03  0.27652597978E+03  0.00000000000E+00 0.  1.
          6    1    1    2  501    0  0.47931124427E+01 -0.49500022093E+02 -0.83739913288E+02  0.19853110384E+03  0.17300000000E+03 0.  1.
         -6    1    1    2    0  502 -0.47931124427E+01  0.49500022093E+02 -0.75559402928E+02  0.19522153950E+03  0.17300000000E+03 0.  1.
</event>
<event>
 4    1  0.6031777E+000  0.1000000E+03  0.7546771E-02  0.1280296E+00
         21   -1    0    0  501  502  0.00000000000E+00  0.00000000000E+00  0.46745239961E+03  0.46745239961E+03  0.00000000000E+00 0. -1.
         21   -1    0    0  502  503 -0.00000000000E+00 -0.00000000000E+00 -0.21124122085E+03  0.21124122085E+03  0.00000000000E+00 0. -1.
          6    1    1    2  501    0 -0.16149742082E+03 -0.19802463592E+03  0.19218542018E+03  0.36353735584E+03  0.17300000000E+03 0. -1.
         -6    1    1    2    0  503  0.16149742082E+03  0.19802463592E+03  0.64025758586E+02  0.31515626462E+03  0.17300000000E+03 0. -1.
</event>
<event>
 4    1  0.6031777E+000  0.1000000E+03  0.7546771E-02  0.1280296E+00
         21   -1    0    0  503  502  0.00000000000E+00  0.00000000000E+00  0.40969347452E+03  0.40969347452E+03  0.00000000000E+00 0. -1.
         21   -1    0    0  501  503 -0.00000000000E+00 -0.00000000000E+00 -0.13230634000E+03  0.13230634000E+03  0.00000000000E+00 0. -1.
          6    1    1    2  501    0  0.19220069112E+02 -0.19548928183E+02 -0.39835624084E+02  0.17963142430E+03  0.17300000000E+03 0. -1.
         -6    1    1    2    0  502 -0.19220069112E+02  0.19548928183E+02  0.31722275861E+03  0.36236839022E+03  0.17300000000E+03 0. -1.
</event>
<event>
 4    1  0.6031777E+000  0.1000000E+03  0.7546771E-02  0.1280296E+00
         21   -1    0    0  503  502  0.00000000000E+00  0.00000000000E+00  0.19094611739E+03  0.19094611739E+03  0.00000000000E+00 0. -1.
         21   -1    0    0  501  503 -0.00000000000E+00 -0.00000000000E+00 -0.38911253607E+03  0.38911253607E+03  0.00000000000E+00 0. -1.
          6    1    1    2  501    0  0.11973150916E+03  0.15355626684E+02 -0.28275837890E+03  0.35277858551E+03  0.17300000000E+03 0. -1.
         -6    1    1    2    0  502 -0.11973150916E+03 -0.15355626684E+02  0.84591960221E+02  0.22728006796E+03  0.17300000000E+03 0. -1.
</event>
<event>
 4    1  0.6031777E+000  0.1000000E+03  0.7546771E-02  0.1280296E+00
         21   -1    0    0  503  502  0.00000000000E+00  0.00000000000E+00  0.17290838686E+04  0.17290838686E+04  0.00000000000E+00 0. -1.
         21   -1    0    0  501  503 -0.00000000000E+00 -0.00000000000E+00 -0.33685821824E+02  0.33685821824E+02  0.00000000000E+00 0. -1.
          6    1    1    2  501    0  0.48252856840E+01  0.17436030905E+00  0.23340575317E+03  0.29056937106E+03  0.17300000000E+03 0. -1.
         -6    1    1    2    0  502 -0.48252856840E+01 -0.17436030905E+00  0.14619922936E+04  0.14722003194E+04  0.17300000000E+03 0. -1.
</event>
<event>
 4    1  0.6031777E+000  0.1000000E+03  0.7546771E-02  0.1280296E+00
         21   -1    0    0  503  502  0.00000000000E+00  0.00000000000E+00  0.13374171089E+03  0.13374171089E+03  0.00000000000E+00 0. -1.
         21   -1    0    0  501  503 -0.00000000000E+00 -0.00000000000E+00 -0.43997821929E+03  0.43997821929E+03  0.00000000000E+00 0.  1.
          6    1    1    2  501    0  0.10528216806E+03  0.26067667153E+02 -0.30798577337E+03  0.36952414641E+03  0.17300000000E+03 0.  1.
         -6    1    1    2    0  502 -0.10528216806E+03 -0.26067667153E+02  0.17492649698E+01  0.20419578377E+03  0.17300000000E+03 0. -1.
</event>
<event>
 4    1  0.6031777E+000  0.1000000E+03  0.7546771E-02  0.1280296E+00
         21   -1    0    0  503  502  0.00000000000E+00  0.00000000000E+00  0.15825556966E+03  0.15825556966E+03  0.00000000000E+00 0. -1.
         21   -1    0    0  501  503 -0.00000000000E+00 -0.00000000000E+00 -0.45359139360E+03  0.45359139360E+03  0.00000000000E+00 0.  1.
          6    1    1    2  501    0 -0.15482955399E+03  0.50771057672E+02 -0.28892495235E+03  0.37410763047E+03  0.17300000000E+03 0.  1.
         -6    1    1    2    0  502  0.15482955399E+03 -0.50771057672E+02 -0.64108715966E+01  0.23773933280E+03  0.17300000000E+03 0. -1.
</event>
<event>
 4    1  0.6031777E+000  0.1000000E+03  0.7546771E-02  0.1280296E+00
         21   -1    0    0  501  502  0.00000000000E+00  0.00000000000E+00  0.96379580539E+03  0.96379580539E+03  0.00000000000E+00 0.  1.
         21   -1    0    0  502  503 -0.00000000000E+00 -0.00000000000E+00 -0.10654852738E+03  0.10654852738E+03  0.00000000000E+00 0.  1.
          6    1    1    2  501    0 -0.18956718320E+02 -0.96819370261E+01  0.87770314276E+03  0.89484350804E+03  0.17300000000E+03 0.  1.
         -6    1    1    2    0  503  0.18956718320E+02  0.96819370261E+01 -0.20455864752E+02  0.17550082472E+03  0.17300000000E+03 0.  1.
</event>
<event>
 4    1  0.6031777E+000  0.1000000E+03  0.7546771E-02  0.1280296E+00
         21   -1    0    0  501  502  0.00000000000E+00  0.00000000000E+00  0.93984662632E+03  0.93984662632E+03  0.00000000000E+00 0.  1.
         21   -1    0    0  502  503 -0.00000000000E+00 -0.00000000000E+00 -0.37639611538E+02  0.37639611538E+02  0.00000000000E+00 0. -1.
          6    1    1    2  501    0  0.16099756940E+02  0.46580500514E+02  0.59384638208E+03  0.62049292559E+03  0.17300000000E+03 0.  1.
         -6    1    1    2    0  503 -0.16099756940E+02 -0.46580500514E+02  0.30836063270E+03  0.35699331226E+03  0.17300000000E+03 0. -1.
</event>
<event>
 4    1  0.6031777E+000  0.1000000E+03  0.7546771E-02  0.1280296E+00
         21   -1    0    0  501  502  0.00000000000E+00  0.00000000000E+00  0.14410210239E+03  0.14410210239E+03  0.00000000000E+00 0. -1.
         21   -1    0    0  502  503 -0.00000000000E+00 -0.00000000000E+00 -0.48642051912E+03  0.48642051912E+03  0.00000000000E+00 0.  1.
          6    1    1    2  501    0  0.45025014831E+02  0.18858098123E+03 -0.11073187144E+03  0.28245457298E+03  0.17300000000E+03 0. -1.
         -6    1    1    2    0  503 -0.45025014831E+02 -0.18858098123E+03 -0.23158654529E+03  0.34806804853E+03  0.17300000000E+03 0.  1.
</event>
<event>
 4    1  0.6031777E+000  0.1000000E+03  0.7546771E-02  0.1280296E+00
         21   -1    0    0  501  502  0.00000000000E+00  0.00000000000E+00  0.15897450009E+04  0.15897450009E+04  0.00000000000E+00 0. -1.
         21   -1    0    0  502  503 -0.00000000000E+00 -0.00000000000E+00 -0.25264360425E+02  0.25264360425E+02  0.00000000000E+00 0.  1.
          6    1    1    2  501    0 -0.19051582014E+02 -0.93127335124E+02  0.92177363919E+03  0.94267242732E+03  0.17300000000E+03 0. -1.
         -6    1    1    2    0  503  0.19051582014E+02  0.93127335124E+02  0.64270700125E+03  0.67233693397E+03  0.17300000000E+03 0.  1.
</event>
<event>
 4    1  0.6031777E+000  0.1000000E+03  0.7546771E-02  0.1280296E+00
         21   -1    0    0  501  502  0.00000000000E+00  0.00000000000E+00  0.22944214488E+04  0.22944214488E+04  0.00000000000E+00 0. -1.
         21   -1    0    0  502  503 -0.00000000000E+00 -0.00000000000E+00 -0.32200756573E+02  0.32200756573E+02  0.00000000000E+00 0.  1.
          6    1    1    2  501    0  0.15421066648E+03  0.13610669306E+03  0.95741341166E+03  0.99442214496E+03  0.17300000000E+03 0. -1.
         -6    1    1    2    0  503 -0.15421066648E+03 -0.13610669306E+03  0.13048072805E+04  0.13322000604E+04  0.17300000000E+03 0.  1.
</event>
<event>
 4    1  0.6031777E+000  0.1000000E+03  0.7546771E-02  0.1280296E+00
         21   -1    0    0  501  502  0.00000000000E+00  0.00000000000E+00  0.30419589764E+03  0.30419589764E+03  0.00000000000E+00 0.  1.
         21   -1    0    0  502  503 -0.00000000000E+00 -0.00000000000E+00 -0.15229504277E+03  0.15229504277E+03  0.00000000000E+00 0. -1.
          6    1    1    2  501    0 -0.72442080413E+02 -0.73251674263E+02  0.15660503837E+03  0.25508390941E+03  0.17300000000E+03 0.  1.
         -6    1    1    2    0  503  0.72442080413E+02  0.73251674263E+02 -0.47041834980E+01  0.20140703101E+03  0.17300000000E+03 0. -1.
</event>
<event>
 4    1  0.6031777E+000  0.1000000E+03  0.7546771E-02  0.1280296E+00
         21   -1    0    0  501  502  0.00000000000E+00  0.00000000000E+00  0.14373915074E+04  0.14373915074E+04  0.00000000000E+00 0.  1.
         21   -1    0    0  502  503 -0.00000000000E+00 -0.00000000000E+00 -0.64112659033E+02  0.64112659033E+02  0.00000000000E+00 0. -1.
          6    1    1    2  501    0  0.10764655357E+03 -0.14055491199E+03  0.11212432397E+04  0.11482416411E+04  0.17300000000E+03 0.  1.
         -6    1    1    2    0  503 -0.10764655357E+03  0.14055491199E+03  0.25203560871E+03  0.35326252538E+03  0.17300000000E+03 0. -1.
</event>
<event>
 4    1  0.6031777E+000  0.1000000E+03  0.7546771E-02  0.1280296E+00
         21   -1    0    0  501  502  0.00000000000E+00  0.00000000000E+00  0.14204909609E+03  0.14204909609E+03  0.00000000000E+00 0.  1.
         21   -1    0    0  502  503 -0.00000000000E+00 -0.00000000000E+00 -0.99815054379E+03  0.99815054379E+03  0.00000000000E+00 0. -1.
          6    1    1    2  501    0  0.13154776148E+03 -0.35958883067E+02  0.34309269213E+02  0.22294389603E+03  0.17300000000E+03 0.  1.
         -6    1    1    2    0  503 -0.13154776148E+03  0.35958883067E+02 -0.89041071692E+03  0.91725574385E+03  0.17300000000E+03 0. -1.
</event>
<event>
 4    1  0.6031777E+000  0.1000000E+03  0.7546771E-02  0.1280296E+00
         21   -1    0    0  501  502  0.00000000000E+00  0.00000000000E+00  0.56863560271E+03  0.56863560271E+03  0.00000000000E+00 0.  1.
         21   -1    0    0  502  503 -0.00000000000E+00 -0.00000000000E+00 -0.30103577739E+03  0.30103577739E+03  0.00000000000E+00 0. -1.
          6    1    1    2  501    0  0.14737607538E+03  0.73914775629E+02  0.48876053403E+03  0.54405786574E+03  0.17300000000E+03 0.  1.
         -6    1    1    2    0  503 -0.14737607538E+03 -0.73914775629E+02 -0.22116070871E+03  0.32561351435E+03  0.17300000000E+03 0. -1.
</event>
<event>
 4    1  0.6031777E+000  0.1000000E+03  0.7546771E-02  0.1280296E+00
         21   -1    0    0  501  502  0.00000000000E+00  0.00000000000E+00  0.65008041823E+03  0.65008041823E+03  0.00000000000E+00 0.  1.
         21   -1    0    0  502  503 -0.00000000000E+00 -0.00000000000E+00 -0.62036787828E+02  0.62036787828E+02  0.00000000000E+00 0. -1.
          6    1    1    2  501    0  0.15504487583E+02 -0.88795464256E+02  0.37858713299E+03  0.42588993986E+03  0.17300000000E+03 0.  1.
         -6    1    1    2    0  503 -0.15504487583E+02  0.88795464256E+02  0.20945649741E+03  0.28622726620E+03  0.17300000000E+03 0. -1.
</event>
<event>
 4    1  0.6031777E+000  0.1000000E+03  0.7546771E-02  0.1280296E+00
         21   -1    0    0  501  502  0.00000000000E+00  0.00000000000E+00  0.18149142819E+03  0.18149142819E+03  0.00000000000E+00 0. -1.
         21   -1    0    0  502  503 -0.00000000000E+00 -0.00000000000E+00 -0.23217166613E+03  0.23217166613E+03  0.00000000000E+00 0.  1.
          6    1    1    2  501    0 -0.28552909040E+02  0.86395645659E+02 -0.88495164461E+02  0.21456903396E+03  0.17300000000E+03 0. -1.
         -6    1    1    2    0  503  0.28552909040E+02 -0.86395645659E+02  0.37814926517E+02  0.19909406036E+03  0.17300000000E+03 0.  1.
</event>
<event>
 4    1  0.6031777E+000  0.1000000E+03  0.7546771E-02  0.1280296E+00
         21   -1    0    0  501  502  0.00000000000E+00  0.00000000000E+00  0.13257318981E+03  0.13257318981E+03  0.00000000000E+00 0.  1.
         21   -1    0    0  502  503 -0.00000000000E+00 -0.00000000000E+00 -0.28088136201E+03  0.28088136201E+03  0.00000000000E+00 0.  1.
          6    1    1    2  501    0 -0.51154105965E+02 -0.65590189124E+02 -0.95297486197E+02  0.21431151705E+03  0.17300000000E+03 0. -1.
         -6    1    1    2    0  503  0.51154105965E+02  0.65590189124E+02 -0.53010685994E+02  0.19914303477E+03  0.17300000000E+03 0. -1.
</event>
<event>
 4    1  0.6031777E+000  0.1000000E+03  0.7546771E-02  0.1280296E+00
         21   -1    0    0  501  502  0.00000000000E+00  0.00000000000E+00  0.16939739973E+04  0.16939739973E+04  0.00000000000E+00 0.  1.
         21   -1    0    0  502  503 -0.00000000000E+00 -0.00000000000E+00 -0.34933257206E+02  0.34933257206E+02  0.00000000000E+00 0.  1.
          6    1    1    2  501    0  0.57897579540E+02  0.13951890042E+03  0.11144602289E+04  0.11378788402E+04  0.17300000000E+03 0. -1.
         -6    1    1    2    0  503 -0.57897579540E+02 -0.13951890042E+03  0.54458051125E+03  0.59102841431E+03  0.17300000000E+03 0. -1.
</event>
<event>
 4    1  0.6031777E+000  0.1000000E+03  0.7546771E-02  0.1280296E+00
         21   -1    0    0  503  502  0.00000000000E+00  0.00000000000E+00  0.34852874465E+02  0.34852874465E+02  0.00000000000E+00 0.  1.
         21   -1    0    0  501  503 -0.00000000000E+00 -0.00000000000E+00 -0.12917117599E+04  0.12917117599E+04  0.00000000000E+00 0. -1.
          6    1    1    2  501    0 -0.36446141940E+02  0.24242581468E+02 -0.98724316944E+03  0.10032417952E+04  0.17300000000E+03 0. -1.
         -6    1    1    2    0  502  0.36446141940E+02 -0.24242581468E+02 -0.26961571600E+03  0.32332283917E+03  0.17300000000E+03 0.  1.
</event>
<event>
 4    1  0.6031777E+000  0.1000000E+03  0.7546771E-02  0.1280296E+00
         21   -1    0    0  503  502  0.00000000000E+00  0.00000000000E+00  0.26437484214E+03  0.26437484214E+03  0.00000000000E+00 0. -1.
         21   -1    0    0  501  503 -0.00000000000E+00 -0.00000000000E+00 -0.25182979309E+03  0.25182979309E+03  0.00000000000E+00 0.  1.
          6    1    1    2  501    0  0.78696492234E+02  0.14544237671E+03 -0.90202010816E+02  0.25575774786E+03  0.17300000000E+03 0. -1.
         -6    1    1    2    0  502 -0.78696492234E+02 -0.14544237671E+03  0.10274705986E+03  0.26044688738E+03  0.17300000000E+03 0. -1.
</event>
<event>
 4    1  0.6031777E+000  0.1000000E+03  0.7546771E-02  0.1280296E+00
         21   -1    0    0  503  502  0.00000000000E+00  0.00000000000E+00  0.32340912006E+03  0.32340912006E+03  0.00000000000E+00 0. -1.
         21   -1    0    0  501  503 -0.00000000000E+00 -0.00000000000E+00 -0.36400291382E+03  0.36400291382E+03  0.00000000000E+00 0.  1.
          6    1    1    2  501    0 -0.71768843684E+02  0.28107124234E+03 -0.80743514766E+02  0.34727557554E+03  0.17300000000E+03 0. -1.
         -6    1    1    2    0  502  0.71768843684E+02 -0.28107124234E+03  0.40149721008E+02  0.34013645834E+03  0.17300000000E+03 0. -1.
</event>
<event>
 4    1  0.6031777E+000  0.1000000E+03  0.7546771E-02  0.1280296E+00
         21   -1    0    0  503  502  0.00000000000E+00  0.00000000000E+00  0.23887492836E+03  0.23887492836E+03  0.00000000000E+00 0.  1.
         21   -1    0    0  501  503 -0.00000000000E+00 -0.00000000000E+00 -0.18013829611E+03  0.18013829611E+03  0.00000000000E+00 0.  1.
          6    1    1    2  501    0 -0.48240645228E+02 -0.97025127132E+02 -0.78842925933E+01  0.20428459858E+03  0.17300000000E+03 0.  1.
         -6    1    1    2    0  502  0.48240645228E+02  0.97025127132E+02  0.66620924847E+02  0.21472862589E+03  0.17300000000E+03 0.  1.
</event>
<event>
 4    1  0.6031777E+000  0.1000000E+03  0.7546771E-02  0.1280296E+00
         21   -1    0    0  503  502  0.00000000000E+00  0.00000000000E+00  0.24458739073E+03  0.24458739073E+03  0.00000000000E+00 0. -1.
         21   -1    0    0  501  503 -0.00000000000E+00 -0.00000000000E+00 -0.61905345700E+03  0.61905345700E+03  0.00000000000E+00 0. -1.
          6    1    1    2  501    0  0.72377736735E+02  0.17793315139E+03 -0.50998474857E+03  0.57176235178E+03  0.17300000000E+03 0. -1.
         -6    1    1    2    0  502 -0.72377736735E+02 -0.17793315139E+03  0.13551868231E+03  0.29187849594E+03  0.17300000000E+03 0. -1.
</event>
<event>
 4    1  0.6031777E+000  0.1000000E+03  0.7546771E-02  0.1280296E+00
         21   -1    0    0  503  502  0.00000000000E+00  0.00000000000E+00  0.24625967140E+03  0.24625967140E+03  0.00000000000E+00 0. -1.
         21   -1    0    0  501  503 -0.00000000000E+00 -0.00000000000E+00 -0.31612659538E+03  0.31612659538E+03  0.00000000000E+00 0. -1.
          6    1    1    2  501    0  0.19320367905E+03  0.36976862689E+02  0.61864755610E+02  0.26916760199E+03  0.17300000000E+03 0. -1.
         -6    1    1    2    0  502 -0.19320367905E+03 -0.36976862689E+02 -0.13173167959E+03  0.29321866479E+03  0.17300000000E+03 0. -1.
</event>
<event>
 4    1  0.6031777E+000  0.1000000E+03  0.7546771E-02  0.1280296E+00
         21   -1    0    0  503  502  0.00000000000E+00  0.00000000000E+00  0.12536937279E+03  0.12536937279E+03  0.00000000000E+00 0. -1.
         21   -1    0    0  501  503 -0.00000000000E+00 -0.00000000000E+00 -0.10428376736E+04  0.10428376736E+04  0.00000000000E+00 0. -1.
          6    1    1    2  501    0 -0.46193981482E+02 -0.78607155492E+01 -0.96602583070E+03  0.98251238178E+03  0.17300000000E+03 0. -1.
         -6    1    1    2    0  502  0.46193981482E+02  0.78607155492E+01  0.48557529853E+02  0.18569466465E+03  0.17300000000E+03 0. -1.
</event>
<event>
 4    1  0.6031777E+000  0.1000000E+03  0.7546771E-02  0.1280296E+00
         21   -1    0    0  503  502  0.00000000000E+00  0.00000000000E+00  0.11053482765E+04  0.11053482765E+04  0.00000000000E+00 0. -1.
         21   -1    0    0  501  503 -0.00000000000E+00 -0.00000000000E+00 -0.58407650276E+02  0.58407650276E+02  0.00000000000E+00 0. -1.
          6    1    1    2  501    0  0.71640391581E+02  0.40464409495E+02  0.14121436506E+03  0.23799203987E+03  0.17300000000E+03 0. -1.
         -6    1    1    2    0  502 -0.71640391581E+02 -0.40464409495E+02  0.90572626118E+03  0.92576388693E+03  0.17300000000E+03 0. -1.
</event>
<event>
 4    1  0.6031777E+000  0.1000000E+03  0.7546771E-02  0.1280296E+00
         21   -1    0    0  503  502  0.00000000000E+00  0.00000000000E+00  0.64438022539E+03  0.64438022539E+03  0.00000000000E+00 0. -1.
         21   -1    0    0  501  503 -0.00000000000E+00 -0.00000000000E+00 -0.23889274211E+03  0.23889274211E+03  0.00000000000E+00 0. -1.
          6    1    1    2  501    0  0.13491697247E+03  0.77521241371E+02 -0.15284687664E+03  0.27839414510E+03  0.17300000000E+03 0. -1.
         -6    1    1    2    0  502 -0.13491697247E+03 -0.77521241371E+02  0.55833435992E+03  0.60487882240E+03  0.17300000000E+03 0. -1.
</event>
<event>
 4    1  0.6031777E+000  0.1000000E+03  0.7546771E-02  0.1280296E+00
         21   -1    0    0  503  502  0.00000000000E+00  0.00000000000E+00  0.45426242670E+03  0.45426242670E+03  0.00000000000E+00 0. -1.
         21   -1    0    0  501  503 -0.00000000000E+00 -0.00000000000E+00 -0.25200317783E+03  0.25200317783E+03  0.00000000000E+00 0. -1.
          6    1    1    2  501    0  0.25274377896E+03  0.85402731911E+02 -0.19569656508E+02  0.31856712931E+03  0.17300000000E+03 0. -1.
         -6    1    1    2    0  502 -0.25274377896E+03 -0.85402731911E+02  0.22182890538E+03  0.38769847521E+03  0.17300000000E+03 0. -1.
</event>
<event>
 4    1  0.6031777E+000  0.1000000E+03  0.7546771E-02  0.1280296E+00
         21   -1    0    0  503  502  0.00000000000E+00  0.00000000000E+00  0.14429955313E+04  0.14429955313E+04  0.00000000000E+00 0. -1.
         21   -1    0    0  501  503 -0.00000000000E+00 -0.00000000000E+00 -0.26375042268E+02  0.26375042268E+02  0.00000000000E+00 0. -1.
          6    1    1    2  501    0 -0.41679279417E+02  0.76125200491E+02  0.80039163910E+03  0.82346097929E+03  0.17300000000E+03 0. -1.
         -6    1    1    2    0  502  0.41679279417E+02 -0.76125200491E+02  0.61622884991E+03  0.64590959425E+03  0.17300000000E+03 0. -1.
</event>
<event>
 4    1  0.6031777E+000  0.1000000E+03  0.7546771E-02  0.1280296E+00
         21   -1    0    0  501  502  0.00000000000E+00  0.00000000000E+00  0.23607461992E+03  0.23607461992E+03  0.00000000000E+00 0.  1.
         21   -1    0    0  502  503 -0.00000000000E+00 -0.00000000000E+00 -0.14178778769E+03  0.14178778769E+03  0.00000000000E+00 0.  1.
          6    1    1    2  501    0  0.71201879263E+01  0.93052829053E+01  0.10741262799E+03  0.20396999293E+03  0.17300000000E+03 0.  1.
         -6    1    1    2    0  503 -0.71201879263E+01 -0.93052829053E+01 -0.13125795763E+02  0.17389241467E+03  0.17300000000E+03 0.  1.
</event>
<event>
 4    1  0.6031777E+000  0.1000000E+03  0.7546771E-02  0.1280296E+00
         21   -1    0    0  501  502  0.00000000000E+00  0.00000000000E+00  0.12659101544E+04  0.12659101544E+04  0.00000000000E+00 0.  1.
         21   -1    0    0  502  503 -0.00000000000E+00 -0.00000000000E+00 -0.40187397787E+02  0.40187397787E+02  0.00000000000E+00 0.  1.
          6    1    1    2  501    0  0.13335558834E+03 -0.27098363345E+02  0.47023547941E+03  0.51919980772E+03  0.17300000000E+03 0.  1.
         -6    1    1    2    0  503 -0.13335558834E+03  0.27098363345E+02  0.75548727722E+03  0.78689774448E+03  0.17300000000E+03 0.  1.
</event>
<event>
 4    1  0.6031777E+000  0.1000000E+03  0.7546771E-02  0.1280296E+00
         21   -1    0    0  501  502  0.00000000000E+00  0.00000000000E+00  0.22331790485E+03  0.22331790485E+03  0.00000000000E+00 0.  1.
         21   -1    0    0  502  503 -0.00000000000E+00 -0.00000000000E+00 -0.28794043368E+03  0.28794043368E+03  0.00000000000E+00 0.  1.
          6    1    1    2  501    0  0.51907928244E+01  0.18006311197E+03  0.11902051189E+02  0.25004065159E+03  0.17300000000E+03 0.  1.
         -6    1    1    2    0  503 -0.51907928244E+01 -0.18006311197E+03 -0.76524580023E+02  0.26121768694E+03  0.17300000000E+03 0.  1.
</event>
<event>
 4    1  0.6031777E+000  0.1000000E+03  0.7546771E-02  0.1280296E+00
         21   -1    0    0  503  502  0.00000000000E+00  0.00000000000E+00  0.20932953669E+04  0.20932953669E+04  0.00000000000E+00 0.  1.
         21   -1    0    0  501  503 -0.00000000000E+00 -0.00000000000E+00 -0.20459495011E+02  0.20459495011E+02  0.00000000000E+00 0. -1.
          6    1    1    2  501    0  0.32650808350E+02 -0.31740845928E+02  0.50506869034E+03  0.53581427617E+03  0.17300000000E+03 0. -1.
         -6    1    1    2    0  502 -0.32650808350E+02  0.31740845928E+02  0.15677671815E+04  0.15779405857E+04  0.17300000000E+03 0.  1.
</event>
<event>
 4    1  0.6031777E+000  0.1000000E+03  0.7546771E-02  0.1280296E+00
         21   -1    0    0  503  502  0.00000000000E+00  0.00000000000E+00  0.14943588015E+04  0.14943588015E+04  0.00000000000E+00 0.  1.
         21   -1    0    0  501  503 -0.00000000000E+00 -0.00000000000E+00 -0.29323431924E+02  0.29323431924E+02  0.00000000000E+00 0. -1.
          6    1    1    2  501    0  0.37482909170E+01 -0.28115817577E+02  0.31618931475E+03  0.36153731709E+03  0.17300000000E+03 0. -1.
         -6    1    1    2    0  502 -0.37482909170E+01  0.28115817577E+02  0.11488460548E+04  0.11621449164E+04  0.17300000000E+03 0.  1.
</event>
<event>
 4    1  0.6031777E+000  0.1000000E+03  0.7546771E-02  0.1280296E+00
         21   -1    0    0  503  502  0.00000000000E+00  0.00000000000E+00  0.94184737991E+03  0.94184737991E+03  0.00000000000E+00 0.  1.
         21   -1    0    0  501  503 -0.00000000000E+00 -0.00000000000E+00 -0.25436427014E+03  0.25436427014E+03  0.00000000000E+00 0. -1.
          6    1    1    2  501    0 -0.14790956062E+03 -0.36482195559E+01 -0.18574250769E+03  0.29380236008E+03  0.17300000000E+03 0. -1.
         -6    1    1    2    0  502  0.14790956062E+03  0.36482195559E+01  0.87322561746E+03  0.90240928997E+03  0.17300000000E+03 0.  1.
</event>
<event>
 4    1  0.6031777E+000  0.1000000E+03  0.7546771E-02  0.1280296E+00
         21   -1    0    0  501  502  0.00000000000E+00  0.00000000000E+00  0.19334258579E+03  0.19334258579E+03  0.00000000000E+00 0.  1.
         21   -1    0    0  502  503 -0.00000000000E+00 -0.00000000000E+00 -0.30603707545E+03  0.30603707545E+03  0.00000000000E+00 0.  1.
          6    1    1    2  501    0  0.90998178643E+02 -0.15017591802E+02  0.91461465604E+02  0.21633399241E+03  0.17300000000E+03 0.  1.
         -6    1    1    2    0  503 -0.90998178643E+02  0.15017591802E+02 -0.20415595526E+03  0.28304566884E+03  0.17300000000E+03 0.  1.
</event>
<event>
 4    1  0.6031777E+000  0.1000000E+03  0.7546771E-02  0.1280296E+00
         21   -1    0    0  501  502  0.00000000000E+00  0.00000000000E+00  0.12686822131E+04  0.12686822131E+04  0.00000000000E+00 0.  1.
         21   -1    0    0  502  503 -0.00000000000E+00 -0.00000000000E+00 -0.28545933838E+02  0.28545933838E+02  0.00000000000E+00 0.  1.
          6    1    1    2  501    0 -0.16862895246E+02  0.54807277115E+02  0.80670247928E+03  0.82703451255E+03  0.17300000000E+03 0.  1.
         -6    1    1    2    0  503  0.16862895246E+02 -0.54807277115E+02  0.43343380002E+03  0.47019363443E+03  0.17300000000E+03 0.  1.
</event>
<event>
 4    1  0.6031777E+000  0.1000000E+03  0.7546771E-02  0.1280296E+00
         21   -1    0    0  501  502  0.00000000000E+00  0.00000000000E+00  0.18049075600E+03  0.18049075600E+03  0.00000000000E+00 0. -1.
         21   -1    0    0  502  503 -0.00000000000E+00 -0.00000000000E+00 -0.83249331764E+03  0.83249331764E+03  0.00000000000E+00 0. -1.
          6    1    1    2  501    0  0.56912278781E+02  0.70818026697E+02  0.11142763107E+03  0.22494292020E+03  0.17300000000E+03 0. -1.
         -6    1    1    2    0  503 -0.56912278781E+02 -0.70818026697E+02 -0.76343019271E+03  0.78804115344E+03  0.17300000000E+03 0. -1.
</event>
<event>
 4    1  0.6031777E+000  0.1000000E+03  0.7546771E-02  0.1280296E+00
         21   -1    0    0  503  502  0.00000000000E+00  0.00000000000E+00  0.75711880766E+03  0.75711880766E+03  0.00000000000E+00 0.  1.
         21   -1    0    0  501  503 -0.00000000000E+00 -0.00000000000E+00 -0.84342388075E+02  0.84342388075E+02  0.00000000000E+00 0.  1.
          6    1    1    2  501    0 -0.16044719313E+03  0.44150801409E+02  0.20491456015E+03  0.31561300989E+03  0.17300000000E+03 0.  1.
         -6    1    1    2    0  502  0.16044719313E+03 -0.44150801409E+02  0.46786185943E+03  0.52584818584E+03  0.17300000000E+03 0.  1.
</event>
<event>
 4    1  0.6031777E+000  0.1000000E+03  0.7546771E-02  0.1280296E+00
         21   -1    0    0  501  502  0.00000000000E+00  0.00000000000E+00  0.10154757487E+04  0.10154757487E+04  0.00000000000E+00 0. -1.
         21   -1    0    0  502  503 -0.00000000000E+00 -0.00000000000E+00 -0.55808472128E+02  0.55808472128E+02  0.00000000000E+00 0.  1.
          6    1    1    2  501    0  0.49646150309E+02  0.23844719420E+02  0.82629449230E+03  0.84600525938E+03  0.17300000000E+03 0. -1.
         -6    1    1    2    0  503 -0.49646150309E+02 -0.23844719420E+02  0.13337278425E+03  0.22527896143E+03  0.17300000000E+03 0.  1.
</event>
<event>
 4    1  0.6031777E+000  0.1000000E+03  0.7546771E-02  0.1280296E+00
         21   -1    0    0  501  502  0.00000000000E+00  0.00000000000E+00  0.12719605727E+03  0.12719605727E+03  0.00000000000E+00 0. -1.
         21   -1    0    0  502  503 -0.00000000000E+00 -0.00000000000E+00 -0.39978724313E+03  0.39978724313E+03  0.00000000000E+00 0. -1.
          6    1    1    2  501    0  0.14395407808E+03  0.45010724012E+01 -0.15194276197E+03  0.27158541781E+03  0.17300000000E+03 0. -1.
         -6    1    1    2    0  503 -0.14395407808E+03 -0.45010724012E+01 -0.12064842389E+03  0.25539788260E+03  0.17300000000E+03 0. -1.
</event>
<event>
 4    1  0.6031777E+000  0.1000000E+03  0.7546771E-02  0.1280296E+00
         21   -1    0    0  501  502  0.00000000000E+00  0.00000000000E+00  0.63286482695E+02  0.63286482695E+02  0.00000000000E+00 0. -1.
         21   -1    0    0  502  503 -0.00000000000E+00 -0.00000000000E+00 -0.18076387532E+04  0.18076387532E+04  0.00000000000E+00 0. -1.
          6    1    1    2  501    0 -0.17898286085E+01 -0.28980251097E+03 -0.81149298787E+03  0.87888484354E+03  0.17300000000E+03 0. -1.
         -6    1    1    2    0  503  0.17898286085E+01  0.28980251097E+03 -0.93285928261E+03  0.99204039233E+03  0.17300000000E+03 0. -1.
</event>
<event>
 4    1  0.6031777E+000  0.1000000E+03  0.7546771E-02  0.1280296E+00
         21   -1    0    0  501  502  0.00000000000E+00  0.00000000000E+00  0.17546604477E+03  0.17546604477E+03  0.00000000000E+00 0. -1.
         21   -1    0    0  502  503 -0.00000000000E+00 -0.00000000000E+00 -0.45406197214E+03  0.45406197214E+03  0.00000000000E+00 0. -1.
          6    1    1    2  501    0  0.24418260598E+02 -0.36843323294E+02  0.10448225245E+03  0.20687973076E+03  0.17300000000E+03 0. -1.
         -6    1    1    2    0  503 -0.24418260598E+02  0.36843323294E+02 -0.38307817983E+03  0.42264828615E+03  0.17300000000E+03 0. -1.
</event>
<event>
 4    1  0.6031777E+000  0.1000000E+03  0.7546771E-02  0.1280296E+00
         21   -1    0    0  503  502  0.00000000000E+00  0.00000000000E+00  0.37039963625E+02  0.37039963625E+02  0.00000000000E+00 0. -1.
         21   -1    0    0  501  503 -0.00000000000E+00 -0.00000000000E+00 -0.12920021474E+04  0.12920021474E+04  0.00000000000E+00 0. -1.
          6    1    1    2  501    0 -0.64827268977E+02  0.31494252785E+02 -0.97024448049E+03  0.98817903979E+03  0.17300000000E+03 0. -1.
         -6    1    1    2    0  502  0.64827268977E+02 -0.31494252785E+02 -0.28471770323E+03  0.34086307118E+03  0.17300000000E+03 0. -1.
</event>
<event>
 4    1  0.6031777E+000  0.1000000E+03  0.7546771E-02  0.1280296E+00
         21   -1    0    0  503  502  0.00000000000E+00  0.00000000000E+00  0.20237807234E+03  0.20237807234E+03  0.00000000000E+00 0. -1.
         21   -1    0    0  501  503 -0.00000000000E+00 -0.00000000000E+00 -0.93284793161E+03  0.93284793161E+03  0.00000000000E+00 0. -1.
          6    1    1    2  501    0  0.19854173110E+03  0.78254824275E+02 -0.80499058241E+03  0.85057714187E+03  0.17300000000E+03 0. -1.
         -6    1    1    2    0  502 -0.19854173110E+03 -0.78254824275E+02  0.74520723133E+02  0.28464886208E+03  0.17300000000E+03 0. -1.
</event>
<event>
 4    1  0.6031777E+000  0.1000000E+03  0.7546771E-02  0.1280296E+00
         21   -1    0    0  503  502  0.00000000000E+00  0.00000000000E+00  0.28681710348E+02  0.28681710348E+02  0.00000000000E+00 0.  1.
         21   -1    0    0  501  503 -0.00000000000E+00 -0.00000000000E+00 -0.12436040833E+04  0.12436040833E+04  0.00000000000E+00 0.  1.
          6    1    1    2  501    0  0.57344207183E+02 -0.39609755967E+01 -0.44122787523E+03  0.47740453004E+03  0.17300000000E+03 0.  1.
         -6    1    1    2    0  502 -0.57344207183E+02  0.39609755967E+01 -0.77369449774E+03  0.79488126362E+03  0.17300000000E+03 0.  1.
</event>
<event>
 4    1  0.6031777E+000  0.1000000E+03  0.7546771E-02  0.1280296E+00
         21   -1    0    0  503  502  0.00000000000E+00  0.00000000000E+00  0.14510514502E+04  0.14510514502E+04  0.00000000000E+00 0.  1.
         21   -1    0    0  501  503 -0.00000000000E+00 -0.00000000000E+00 -0.12094624480E+03  0.12094624480E+03  0.00000000000E+00 0.  1.
          6    1    1    2  501    0 -0.34715261714E+03  0.13392570984E+03  0.82335939796E+03  0.91994604926E+03  0.17300000000E+03 0.  1.
         -6    1    1    2    0  502  0.34715261714E+03 -0.13392570984E+03  0.50674580740E+03  0.65205164570E+03  0.17300000000E+03 0.  1.
</event>
<event>
 4    1  0.6031777E+000  0.1000000E+03  0.7546771E-02  0.1280296E+00
         21   -1    0    0  503  502  0.00000000000E+00  0.00000000000E+00  0.37726517739E+03  0.37726517739E+03  0.00000000000E+00 0.  1.
         21   -1    0    0  501  503 -0.00000000000E+00 -0.00000000000E+00 -0.20277947214E+03  0.20277947214E+03  0.00000000000E+00 0.  1.
          6    1    1    2  501    0 -0.26899402093E+02  0.38182788203E+01 -0.13724467275E+03  0.22249327469E+03  0.17300000000E+03 0.  1.
         -6    1    1    2    0  502  0.26899402093E+02 -0.38182788203E+01  0.31173037799E+03  0.35755137484E+03  0.17300000000E+03 0.  1.
</event>
<event>
 4    1  0.6031777E+000  0.1000000E+03  0.7546771E-02  0.1280296E+00
         21   -1    0    0  503  502  0.00000000000E+00  0.00000000000E+00  0.26003934085E+03  0.26003934085E+03  0.00000000000E+00 0.  1.
         21   -1    0    0  501  503 -0.00000000000E+00 -0.00000000000E+00 -0.38910636684E+03  0.38910636684E+03  0.00000000000E+00 0.  1.
          6    1    1    2  501    0  0.46868104358E+02  0.93636080927E+02 -0.31507508640E+03  0.37438702558E+03  0.17300000000E+03 0.  1.
         -6    1    1    2    0  502 -0.46868104358E+02 -0.93636080927E+02  0.18600806040E+03  0.27475868211E+03  0.17300000000E+03 0.  1.
</event>
<event>
 4    1  0.6031777E+000  0.1000000E+03  0.7546771E-02  0.1280296E+00
         21   -1    0    0  503  502  0.00000000000E+00  0.00000000000E+00  0.66520295823E+02  0.66520295823E+02  0.00000000000E+00 0. -1.
         21   -1    0    0  501  503 -0.00000000000E+00 -0.00000000000E+00 -0.92408201826E+03  0.92408201826E+03  0.00000000000E+00 0. -1.
          6    1    1    2  501    0  0.37888416777E+02  0.84584359379E+02 -0.73142993409E+03  0.75730363426E+03  0.17300000000E+03 0. -1.
         -6    1    1    2    0  502 -0.37888416777E+02 -0.84584359379E+02 -0.12613178835E+03  0.23329867983E+03  0.17300000000E+03 0. -1.
</event>
<event>
 4    1  0.6031777E+000  0.1000000E+03  0.7546771E-02  0.1280296E+00
         21   -1    0    0  503  502  0.00000000000E+00  0.00000000000E+00  0.24522741780E+03  0.24522741780E+03  0.00000000000E+00 0. -1.
         21   -1    0    0  501  503 -0.00000000000E+00 -0.00000000000E+00 -0.96064766585E+03  0.96064766585E+03  0.00000000000E+00 0. -1.
          6    1    1    2  501    0  0.83578517229E+02  0.36384220073E+03 -0.67752770983E+03  0.79267856863E+03  0.17300000000E+03 0. -1.
         -6    1    1    2    0  502 -0.83578517229E+02 -0.36384220073E+03 -0.37892538225E+02  0.41319651502E+03  0.17300000000E+03 0. -1.
</event>
<event>
 4    1  0.6031777E+000  0.1000000E+03  0.7546771E-02  0.1280296E+00
         21   -1    0    0  501  502  0.00000000000E+00  0.00000000000E+00  0.34642420555E+03  0.34642420555E+03  0.00000000000E+00 0. -1.
         21   -1    0    0  502  503 -0.00000000000E+00 -0.00000000000E+00 -0.32183162837E+03  0.32183162837E+03  0.00000000000E+00 0. -1.
          6    1    1    2  501    0  0.94524708696E+02  0.24182951659E+03 -0.10671637122E+03  0.32974811528E+03  0.17300000000E+03 0. -1.
         -6    1    1    2    0  503 -0.94524708696E+02 -0.24182951659E+03  0.13130894840E+03  0.33850771864E+03  0.17300000000E+03 0. -1.
</event>
<event>
 4    1  0.6031777E+000  0.1000000E+03  0.7546771E-02  0.1280296E+00
         21   -1    0    0  503  502  0.00000000000E+00  0.00000000000E+00  0.39861551584E+03  0.39861551584E+03  0.00000000000E+00 0.  1.
         21   -1    0    0  501  503 -0.00000000000E+00 -0.00000000000E+00 -0.30298696633E+03  0.30298696633E+03  0.00000000000E+00 0.  1.
          6    1    1    2  501    0  0.11065259553E+02 -0.29926146499E+03  0.82289215354E+02  0.35550018194E+03  0.17300000000E+03 0.  1.
         -6    1    1    2    0  502 -0.11065259553E+02  0.29926146499E+03  0.13339334156E+02  0.34610230024E+03  0.17300000000E+03 0.  1.
</event>
<event>
 4    1  0.6031777E+000  0.1000000E+03  0.7546771E-02  0.1280296E+00
         21   -1    0    0  501  502  0.00000000000E+00  0.00000000000E+00  0.55664876043E+02  0.55664876043E+02  0.00000000000E+00 0. -1.
         21   -1    0    0  502  503 -0.00000000000E+00 -0.00000000000E+00 -0.81951440410E+03  0.81951440410E+03  0.00000000000E+00 0. -1.
          6    1    1    2  501    0  0.87871329293E+02 -0.75071389469E+02 -0.48086437049E+03  0.52394334315E+03  0.17300000000E+03 0. -1.
         -6    1    1    2    0  503 -0.87871329293E+02  0.75071389469E+02 -0.28298515757E+03  0.35123593699E+03  0.17300000000E+03 0. -1.
</event>
<event>
 4    1  0.6031777E+000  0.1000000E+03  0.7546771E-02  0.1280296E+00
         21   -1    0    0  501  502  0.00000000000E+00  0.00000000000E+00  0.94658977560E+02  0.94658977560E+02  0.00000000000E+00 0. -1.
         21   -1    0    0  502  503 -0.00000000000E+00 -0.00000000000E+00 -0.42106258408E+03  0.42106258408E+03  0.00000000000E+00 0. -1.
          6    1    1    2  501    0 -0.81052943962E+01 -0.96746789508E+02 -0.13424219485E+03  0.23953205204E+03  0.17300000000E+03 0. -1.
         -6    1    1    2    0  503  0.81052943962E+01  0.96746789508E+02 -0.19216141166E+03  0.27618950959E+03  0.17300000000E+03 0. -1.
</event>
<event>
 4    1  0.6031777E+000  0.1000000E+03  0.7546771E-02  0.1280296E+00
         21   -1    0    0  501  502  0.00000000000E+00  0.00000000000E+00  0.45536576842E+03  0.45536576842E+03  0.00000000000E+00 0. -1.
         21   -1    0    0  502  503 -0.00000000000E+00 -0.00000000000E+00 -0.95339706461E+02  0.95339706461E+02  0.00000000000E+00 0. -1.
          6    1    1    2  501    0 -0.10073721911E+03 -0.37409795458E+02  0.12183693833E+03  0.23731986780E+03  0.17300000000E+03 0. -1.
         -6    1    1    2    0  503  0.10073721911E+03  0.37409795458E+02  0.23818912363E+03  0.31338560709E+03  0.17300000000E+03 0. -1.
</event>
<event>
 4    1  0.6031777E+000  0.1000000E+03  0.7546771E-02  0.1280296E+00
         21   -1    0    0  503  502  0.00000000000E+00  0.00000000000E+00  0.54339262430E+03  0.54339262430E+03  0.00000000000E+00 0. -1.
         21   -1    0    0  501  503 -0.00000000000E+00 -0.00000000000E+00 -0.14138209617E+03  0.14138209617E+03  0.00000000000E+00 0.  1.
          6    1    1    2  501    0 -0.15696838147E+03  0.80275122396E+02  0.45665713503E+02  0.25119220817E+03  0.17300000000E+03 0.  1.
         -6    1    1    2    0  502  0.15696838147E+03 -0.80275122396E+02  0.35634481463E+03  0.43358251230E+03  0.17300000000E+03 0. -1.
</event>
<event>
 4    1  0.6031777E+000  0.1000000E+03  0.7546771E-02  0.1280296E+00
         21   -1    0    0  503  502  0.00000000000E+00  0.00000000000E+00  0.23682610651E+04  0.23682610651E+04  0.00000000000E+00 0. -1.
         21   -1    0    0  501  503 -0.00000000000E+00 -0.00000000000E+00 -0.39163441558E+02  0.39163441558E+02  0.00000000000E+00 0.  1.
          6    1    1    2  501    0 -0.24931177664E+03 -0.58443441602E+01  0.12637339385E+04  0.12996703373E+04  0.17300000000E+03 0.  1.
         -6    1    1    2    0  502  0.24931177664E+03  0.58443441602E+01  0.10653636850E+04  0.11077541693E+04  0.17300000000E+03 0. -1.
</event>
<event>
 4    1  0.6031777E+000  0.1000000E+03  0.7546771E-02  0.1280296E+00
         21   -1    0    0  503  502  0.00000000000E+00  0.00000000000E+00  0.10163002466E+03  0.10163002466E+03  0.00000000000E+00 0. -1.
         21   -1    0    0  501  503 -0.00000000000E+00 -0.00000000000E+00 -0.54022918319E+03  0.54022918319E+03  0.00000000000E+00 0.  1.
          6    1    1    2  501    0  0.16757090039E+02 -0.75074101982E+02 -0.40837874155E+03  0.45013233321E+03  0.17300000000E+03 0.  1.
         -6    1    1    2    0  502 -0.16757090039E+02  0.75074101982E+02 -0.30220416989E+02  0.19172687464E+03  0.17300000000E+03 0. -1.
</event>
<event>
 4    1  0.6031777E+000  0.1000000E+03  0.7546771E-02  0.1280296E+00
         21   -1    0    0  501  502  0.00000000000E+00  0.00000000000E+00  0.13905872581E+03  0.13905872581E+03  0.00000000000E+00 0. -1.
         21   -1    0    0  502  503 -0.00000000000E+00 -0.00000000000E+00 -0.40784739655E+03  0.40784739655E+03  0.00000000000E+00 0. -1.
          6    1    1    2  501    0 -0.14416824491E+03  0.61703833830E+01 -0.45724912571E+02  0.22987458342E+03  0.17300000000E+03 0. -1.
         -6    1    1    2    0  503  0.14416824491E+03 -0.61703833830E+01 -0.22306375817E+03  0.31703153894E+03  0.17300000000E+03 0. -1.
</event>
<event>
 4    1  0.6031777E+000  0.1000000E+03  0.7546771E-02  0.1280296E+00
         21   -1    0    0  501  502  0.00000000000E+00  0.00000000000E+00  0.69931437794E+03  0.69931437794E+03  0.00000000000E+00 0. -1.
         21   -1    0    0  502  503 -0.00000000000E+00 -0.00000000000E+00 -0.69259813671E+02  0.69259813671E+02  0.00000000000E+00 0. -1.
          6    1    1    2  501    0 -0.62833898001E+02  0.12033837460E+03  0.33024580349E+03  0.39676279294E+03  0.17300000000E+03 0. -1.
         -6    1    1    2    0  503  0.62833898001E+02 -0.12033837460E+03  0.29980876078E+03  0.37181139867E+03  0.17300000000E+03 0. -1.
</event>
<event>
 4    1  0.6031777E+000  0.1000000E+03  0.7546771E-02  0.1280296E+00
         21   -1    0    0  503  502  0.00000000000E+00  0.00000000000E+00  0.21429782066E+03  0.21429782066E+03  0.00000000000E+00 0. -1.
         21   -1    0    0  501  503 -0.00000000000E+00 -0.00000000000E+00 -0.19369537689E+03  0.19369537689E+03  0.00000000000E+00 0. -1.
          6    1    1    2  501    0 -0.43106844234E+02 -0.12945595835E+02 -0.87566711708E+02  0.19905455903E+03  0.17300000000E+03 0. -1.
         -6    1    1    2    0  502  0.43106844234E+02  0.12945595835E+02  0.10816915548E+03  0.20893863852E+03  0.17300000000E+03 0. -1.
</event>
<event>
 4    1  0.6031777E+000  0.1000000E+03  0.7546771E-02  0.1280296E+00
         21   -1    0    0  501  502  0.00000000000E+00  0.00000000000E+00  0.54269741793E+03  0.54269741793E+03  0.00000000000E+00 0. -1.
         21   -1    0    0  502  503 -0.00000000000E+00 -0.00000000000E+00 -0.33917504691E+03  0.33917504691E+03  0.00000000000E+00 0.  1.
          6    1    1    2  501    0 -0.73292190817E+02 -0.36905595546E+02  0.49634885199E+03  0.53200089388E+03  0.17300000000E+03 0. -1.
         -6    1    1    2    0  503  0.73292190817E+02  0.36905595546E+02 -0.29282648096E+03  0.34987157096E+03  0.17300000000E+03 0.  1.
</event>
<event>
 4    1  0.6031777E+000  0.1000000E+03  0.7546771E-02  0.1280296E+00
         21   -1    0    0  501  502  0.00000000000E+00  0.00000000000E+00  0.11750452176E+04  0.11750452176E+04  0.00000000000E+00 0. -1.
         21   -1    0    0  502  503 -0.00000000000E+00 -0.00000000000E+00 -0.27861389223E+02  0.27861389223E+02  0.00000000000E+00 0.  1.
          6    1    1    2  501    0  0.22108160142E+02  0.41099005973E+02  0.65712481348E+03  0.68111667101E+03  0.17300000000E+03 0. -1.
         -6    1    1    2    0  503 -0.22108160142E+02 -0.41099005973E+02  0.49005901494E+03  0.52178993585E+03  0.17300000000E+03 0.  1.
</event>
<event>
 4    1  0.6031777E+000  0.1000000E+03  0.7546771E-02  0.1280296E+00
         21   -1    0    0  503  502  0.00000000000E+00  0.00000000000E+00  0.19581361472E+03  0.19581361472E+03  0.00000000000E+00 0. -1.
         21   -1    0    0  501  503 -0.00000000000E+00 -0.00000000000E+00 -0.46600326508E+03  0.46600326508E+03  0.00000000000E+00 0.  1.
          6    1    1    2  501    0 -0.10426664386E+02  0.24689270517E+02 -0.40476767348E+03  0.44100356563E+03  0.17300000000E+03 0. -1.
         -6    1    1    2    0  502  0.10426664386E+02 -0.24689270517E+02  0.13457802312E+03  0.22081331417E+03  0.17300000000E+03 0.  1.
</event>
<event>
 4    1  0.6031777E+000  0.1000000E+03  0.7546771E-02  0.1280296E+00
         21   -1    0    0  503  502  0.00000000000E+00  0.00000000000E+00  0.45042541653E+03  0.45042541653E+03  0.00000000000E+00 0. -1.
         21   -1    0    0  501  503 -0.00000000000E+00 -0.00000000000E+00 -0.14421159256E+03  0.14421159256E+03  0.00000000000E+00 0.  1.
          6    1    1    2  501    0  0.15711074937E+03  0.99030922746E+02  0.18013144320E+03  0.31123503668E+03  0.17300000000E+03 0. -1.
         -6    1    1    2    0  502 -0.15711074937E+03 -0.99030922746E+02  0.12608238077E+03  0.28340197241E+03  0.17300000000E+03 0.  1.
</event>
<event>
 4    1  0.6031777E+000  0.1000000E+03  0.7546771E-02  0.1280296E+00
         21   -1    0    0  503  502  0.00000000000E+00  0.00000000000E+00  0.15843756913E+03  0.15843756913E+03  0.00000000000E+00 0. -1.
         21   -1    0    0  501  503 -0.00000000000E+00 -0.00000000000E+00 -0.81223607207E+03  0.81223607207E+03  0.00000000000E+00 0.  1.
          6    1    1    2  501    0 -0.10882148655E+03 -0.21777233574E+03 -0.59576284357E+03  0.66643024536E+03  0.17300000000E+03 0.  1.
         -6    1    1    2    0  502  0.10882148655E+03  0.21777233574E+03 -0.58035659365E+02  0.30424339583E+03  0.17300000000E+03 0. -1.
</event>
<event>
 4    1  0.6031777E+000  0.1000000E+03  0.7546771E-02  0.1280296E+00
         21   -1    0    0  503  502  0.00000000000E+00  0.00000000000E+00  0.29873246837E+03  0.29873246837E+03  0.00000000000E+00 0.  1.
         21   -1    0    0  501  503 -0.00000000000E+00 -0.00000000000E+00 -0.39033334785E+03  0.39033334785E+03  0.00000000000E+00 0. -1.
          6    1    1    2  501    0  0.21386750564E+03  0.13306310625E+03  0.10798207873E+03  0.32408984794E+03  0.17300000000E+03 0. -1.
         -6    1    1    2    0  502 -0.21386750564E+03 -0.13306310625E+03 -0.19958295821E+03  0.36497596828E+03  0.17300000000E+03 0.  1.
</event>
<event>
 4    1  0.6031777E+000  0.1000000E+03  0.7546771E-02  0.1280296E+00
         21   -1    0    0  503  502  0.00000000000E+00  0.00000000000E+00  0.81724702359E+03  0.81724702359E+03  0.00000000000E+00 0. -1.
         21   -1    0    0  501  503 -0.00000000000E+00 -0.00000000000E+00 -0.56724930264E+02  0.56724930264E+02  0.00000000000E+00 0. -1.
          6    1    1    2  501    0 -0.95321742289E+02  0.59928868860E+02  0.25594970681E+03  0.32881142968E+03  0.17300000000E+03 0. -1.
         -6    1    1    2    0  502  0.95321742289E+02 -0.59928868860E+02  0.50457238652E+03  0.54516052417E+03  0.17300000000E+03 0. -1.
</event>
<event>
 4    1  0.6031777E+000  0.1000000E+03  0.7546771E-02  0.1280296E+00
         21   -1    0    0  503  502  0.00000000000E+00  0.00000000000E+00  0.35472201158E+03  0.35472201158E+03  0.00000000000E+00 0. -1.
         21   -1    0    0  501  503 -0.00000000000E+00 -0.00000000000E+00 -0.12069620304E+03  0.12069620304E+03  0.00000000000E+00 0. -1.
          6    1    1    2  501    0  0.50237202834E+02  0.38430047799E+02  0.87304431259E+01  0.18440679423E+03  0.17300000000E+03 0. -1.
         -6    1    1    2    0  502 -0.50237202834E+02 -0.38430047799E+02  0.22529536541E+03  0.29101142039E+03  0.17300000000E+03 0. -1.
</event>
<event>
 4    1  0.6031777E+000  0.1000000E+03  0.7546771E-02  0.1280296E+00
         21   -1    0    0  501  502  0.00000000000E+00  0.00000000000E+00  0.42245035799E+02  0.42245035799E+02  0.00000000000E+00 0. -1.
         21   -1    0    0  502  503 -0.00000000000E+00 -0.00000000000E+00 -0.10707662226E+04  0.10707662226E+04  0.00000000000E+00 0.  1.
          6    1    1    2  501    0 -0.76363628653E+02 -0.84985037723E+01 -0.26054750380E+03  0.32205221639E+03  0.17300000000E+03 0. -1.
         -6    1    1    2    0  503  0.76363628653E+02  0.84985037723E+01 -0.76797368299E+03  0.79095904200E+03  0.17300000000E+03 0.  1.
</event>
<event>
 4    1  0.6031777E+000  0.1000000E+03  0.7546771E-02  0.1280296E+00
         21   -1    0    0  501  502  0.00000000000E+00  0.00000000000E+00  0.11475288800E+03  0.11475288800E+03  0.00000000000E+00 0. -1.
         21   -1    0    0  502  503 -0.00000000000E+00 -0.00000000000E+00 -0.86166797142E+03  0.86166797142E+03  0.00000000000E+00 0.  1.
          6    1    1    2  501    0  0.66772797117E+02  0.44202495817E+02  0.14804782431E+02  0.19120839065E+03  0.17300000000E+03 0. -1.
         -6    1    1    2    0  503 -0.66772797117E+02 -0.44202495817E+02 -0.76171986586E+03  0.78521246877E+03  0.17300000000E+03 0.  1.
</event>
<event>
 4    1  0.6031777E+000  0.1000000E+03  0.7546771E-02  0.1280296E+00
         21   -1    0    0  503  502  0.00000000000E+00  0.00000000000E+00  0.45326984300E+03  0.45326984300E+03  0.00000000000E+00 0.  1.
         21   -1    0    0  501  503 -0.00000000000E+00 -0.00000000000E+00 -0.14390903032E+03  0.14390903032E+03  0.00000000000E+00 0.  1.
          6    1    1    2  501    0  0.10954511042E+03 -0.14848962340E+03  0.11332456045E+03  0.27716557412E+03  0.17300000000E+03 0.  1.
         -6    1    1    2    0  502 -0.10954511042E+03  0.14848962340E+03  0.19603625223E+03  0.32001329920E+03  0.17300000000E+03 0.  1.
</event>
<event>
 4    1  0.6031777E+000  0.1000000E+03  0.7546771E-02  0.1280296E+00
         21   -1    0    0  503  502  0.00000000000E+00  0.00000000000E+00  0.36415349435E+03  0.36415349435E+03  0.00000000000E+00 0.  1.
         21   -1    0    0  501  503 -0.00000000000E+00 -0.00000000000E+00 -0.22958199035E+03  0.22958199035E+03  0.00000000000E+00 0.  1.
          6    1    1    2  501    0  0.21976643956E+03 -0.70586071938E+02  0.46895541938E+02  0.29224625466E+03  0.17300000000E+03 0.  1.
         -6    1    1    2    0  502 -0.21976643956E+03  0.70586071938E+02  0.87675962059E+02  0.30148923004E+03  0.17300000000E+03 0.  1.
</event>
<event>
 4    1  0.6031777E+000  0.1000000E+03  0.7546771E-02  0.1280296E+00
         21   -1    0    0  503  502  0.00000000000E+00  0.00000000000E+00  0.23737565249E+02  0.23737565249E+02  0.00000000000E+00 0.  1.
         21   -1    0    0  501  503 -0.00000000000E+00 -0.00000000000E+00 -0.24757577577E+04  0.24757577577E+04  0.00000000000E+00 0.  1.
          6    1    1    2  501    0  0.15380231128E+03 -0.26383124836E+02 -0.88063719326E+03  0.91093473223E+03  0.17300000000E+03 0.  1.
         -6    1    1    2    0  502 -0.15380231128E+03  0.26383124836E+02 -0.15713829992E+04  0.15885605907E+04  0.17300000000E+03 0.  1.
</event>
<event>
 4    1  0.6031777E+000  0.1000000E+03  0.7546771E-02  0.1280296E+00
         21   -1    0    0  503  502  0.00000000000E+00  0.00000000000E+00  0.30369562415E+03  0.30369562415E+03  0.00000000000E+00 0.  1.
         21   -1    0    0  501  503 -0.00000000000E+00 -0.00000000000E+00 -0.17516460771E+03  0.17516460771E+03  0.00000000000E+00 0.  1.
          6    1    1    2  501    0  0.14477399325E+03 -0.23098154732E+02  0.10799734322E+03  0.25116819069E+03  0.17300000000E+03 0.  1.
         -6    1    1    2    0  502 -0.14477399325E+03  0.23098154732E+02  0.20533673230E+02  0.22769204117E+03  0.17300000000E+03 0.  1.
</event>
<event>
 4    1  0.6031777E+000  0.1000000E+03  0.7546771E-02  0.1280296E+00
         21   -1    0    0  501  502  0.00000000000E+00  0.00000000000E+00  0.61536336526E+03  0.61536336526E+03  0.00000000000E+00 0.  1.
         21   -1    0    0  502  503 -0.00000000000E+00 -0.00000000000E+00 -0.15011812735E+03  0.15011812735E+03  0.00000000000E+00 0.  1.
          6    1    1    2  501    0  0.70052045358E+02  0.76639054946E+02  0.51886270682E+03  0.55671208208E+03  0.17300000000E+03 0.  1.
         -6    1    1    2    0  503 -0.70052045358E+02 -0.76639054946E+02 -0.53617468905E+02  0.20876941053E+03  0.17300000000E+03 0.  1.
</event>
<event>
 4    1  0.6031777E+000  0.1000000E+03  0.7546771E-02  0.1280296E+00
         21   -1    0    0  501  502  0.00000000000E+00  0.00000000000E+00  0.66434412388E+03  0.66434412388E+03  0.00000000000E+00 0.  1.
         21   -1    0    0  502  503 -0.00000000000E+00 -0.00000000000E+00 -0.49057903490E+02  0.49057903490E+02  0.00000000000E+00 0.  1.
          6    1    1    2  501    0  0.51133445005E+02 -0.64920460169E+00  0.32122901561E+03  0.36841841856E+03  0.17300000000E+03 0.  1.
         -6    1    1    2    0  503 -0.51133445005E+02  0.64920460169E+00  0.29405720478E+03  0.34498360881E+03  0.17300000000E+03 0.  1.
</event>
<event>
 4    1  0.6031777E+000  0.1000000E+03  0.7546771E-02  0.1280296E+00
         21   -1    0    0  501  502  0.00000000000E+00  0.00000000000E+00  0.38292047271E+03  0.38292047271E+03  0.00000000000E+00 0. -1.
         21   -1    0    0  502  503 -0.00000000000E+00 -0.00000000000E+00 -0.32340426482E+04  0.32340426482E+04  0.00000000000E+00 0.  1.
          6    1    1    2  501    0  0.92421843111E+03 -0.81206538608E+02 -0.46731847116E+03  0.10531333077E+04  0.17300000000E+03 0. -1.
         -6    1    1    2    0  503 -0.92421843111E+03  0.81206538608E+02 -0.23838037044E+04  0.25638298132E+04  0.17300000000E+03 0.  1.
</event>
<event>
 4    1  0.6031777E+000  0.1000000E+03  0.7546771E-02  0.1280296E+00
         21   -1    0    0  501  502  0.00000000000E+00  0.00000000000E+00  0.46051351002E+03  0.46051351002E+03  0.00000000000E+00 0. -1.
         21   -1    0    0  502  503 -0.00000000000E+00 -0.00000000000E+00 -0.10927722172E+03  0.10927722172E+03  0.00000000000E+00 0.  1.
          6    1    1    2  501    0 -0.10296554425E+03  0.98695515849E+02  0.18476987958E+03  0.29053677315E+03  0.17300000000E+03 0. -1.
         -6    1    1    2    0  503  0.10296554425E+03 -0.98695515849E+02  0.16646640872E+03  0.27925395859E+03  0.17300000000E+03 0.  1.
</event>
<event>
 4    1  0.6031777E+000  0.1000000E+03  0.7546771E-02  0.1280296E+00
         21   -1    0    0  503  502  0.00000000000E+00  0.00000000000E+00  0.53948588349E+03  0.53948588349E+03  0.00000000000E+00 0. -1.
         21   -1    0    0  501  503 -0.00000000000E+00 -0.00000000000E+00 -0.40946489151E+03  0.40946489151E+03  0.00000000000E+00 0.  1.
          6    1    1    2  501    0  0.43374519847E+03  0.35028834908E+02  0.24508544425E+02  0.46892599120E+03  0.17300000000E+03 0.  1.
         -6    1    1    2    0  502 -0.43374519847E+03 -0.35028834908E+02  0.10551244756E+03  0.48002478380E+03  0.17300000000E+03 0. -1.
</event>
<event>
 4    1  0.6031777E+000  0.1000000E+03  0.7546771E-02  0.1280296E+00
         21   -1    0    0  501  502  0.00000000000E+00  0.00000000000E+00  0.20960495986E+03  0.20960495986E+03  0.00000000000E+00 0.  1.
         21   -1    0    0  502  503 -0.00000000000E+00 -0.00000000000E+00 -0.30067430899E+03  0.30067430899E+03  0.00000000000E+00 0.  1.
          6    1    1    2  501    0  0.17766395142E+02  0.29819950617E+02  0.13595382721E+03  0.22274944980E+03  0.17300000000E+03 0.  1.
         -6    1    1    2    0  503 -0.17766395142E+02 -0.29819950617E+02 -0.22702317635E+03  0.28752981906E+03  0.17300000000E+03 0.  1.
</event>
<event>
 4    1  0.6031777E+000  0.1000000E+03  0.7546771E-02  0.1280296E+00
         21   -1    0    0  503  502  0.00000000000E+00  0.00000000000E+00  0.51834246374E+03  0.51834246374E+03  0.00000000000E+00 0.  1.
         21   -1    0    0  501  503 -0.00000000000E+00 -0.00000000000E+00 -0.85313881722E+02  0.85313881722E+02  0.00000000000E+00 0. -1.
          6    1    1    2  501    0 -0.99140341171E+02 -0.65695076417E+02  0.19904388090E+03  0.28929589841E+03  0.17300000000E+03 0. -1.
         -6    1    1    2    0  502  0.99140341171E+02  0.65695076417E+02  0.23398470112E+03  0.31436044705E+03  0.17300000000E+03 0.  1.
</event>
<event>
 4    1  0.6031777E+000  0.1000000E+03  0.7546771E-02  0.1280296E+00
         21   -1    0    0  503  502  0.00000000000E+00  0.00000000000E+00  0.14567126691E+03  0.14567126691E+03  0.00000000000E+00 0.  1.
         21   -1    0    0  501  503 -0.00000000000E+00 -0.00000000000E+00 -0.68236078687E+03  0.68236078687E+03  0.00000000000E+00 0. -1.
          6    1    1    2  501    0 -0.33789240695E+02 -0.19596423618E+03 -0.49551926777E+03  0.56125933344E+03  0.17300000000E+03 0. -1.
         -6    1    1    2    0  502  0.33789240695E+02  0.19596423618E+03 -0.41170252192E+02  0.26677272033E+03  0.17300000000E+03 0.  1.
</event>
<event>
 4    1  0.6031777E+000  0.1000000E+03  0.7546771E-02  0.1280296E+00
         21   -1    0    0  501  502  0.00000000000E+00  0.00000000000E+00  0.27222675159E+02  0.27222675159E+02  0.00000000000E+00 0. -1.
         21   -1    0    0  502  503 -0.00000000000E+00 -0.00000000000E+00 -0.12666199828E+04  0.12666199828E+04  0.00000000000E+00 0. -1.
          6    1    1    2  501    0  0.43694342603E+02  0.32317015170E+02 -0.48042198546E+03  0.51350547140E+03  0.17300000000E+03 0. -1.
         -6    1    1    2    0  503 -0.43694342603E+02 -0.32317015170E+02 -0.75897532217E+03  0.78033718655E+03  0.17300000000E+03 0. -1.
</event>
<event>
 4    1  0.6031777E+000  0.1000000E+03  0.7546771E-02  0.1280296E+00
         21   -1    0    0  501  502  0.00000000000E+00  0.00000000000E+00  0.10684781023E+03  0.10684781023E+03  0.00000000000E+00 0. -1.
         21   -1    0    0  502  503 -0.00000000000E+00 -0.00000000000E+00 -0.13340422216E+04  0.13340422216E+04  0.00000000000E+00 0.  1.
          6    1    1    2  501    0 -0.14950683255E+03 -0.62925486192E+02 -0.53020474978E+02  0.24300633852E+03  0.17300000000E+03 0. -1.
         -6    1    1    2    0  503  0.14950683255E+03  0.62925486192E+02 -0.11741739364E+04  0.11978836933E+04  0.17300000000E+03 0.  1.
</event>
<event>
 4    1  0.6031777E+000  0.1000000E+03  0.7546771E-02  0.1280296E+00
         21   -1    0    0  501  502  0.00000000000E+00  0.00000000000E+00  0.33640529085E+03  0.33640529085E+03  0.00000000000E+00 0.  1.
         21   -1    0    0  502  503 -0.00000000000E+00 -0.00000000000E+00 -0.18497714839E+03  0.18497714839E+03  0.00000000000E+00 0.  1.
          6    1    1    2  501    0 -0.14675164816E+03  0.13107279348E+02  0.18325977036E+03  0.29192634421E+03  0.17300000000E+03 0.  1.
         -6    1    1    2    0  503  0.14675164816E+03 -0.13107279348E+02 -0.31831627899E+02  0.22945609502E+03  0.17300000000E+03 0.  1.
</event>
<event>
 4    1  0.6031777E+000  0.1000000E+03  0.7546771E-02  0.1280296E+00
         21   -1    0    0  503  502  0.00000000000E+00  0.00000000000E+00  0.25274974522E+02  0.25274974522E+02  0.00000000000E+00 0. -1.
         21   -1    0    0  501  503 -0.00000000000E+00 -0.00000000000E+00 -0.16707533318E+04  0.16707533318E+04  0.00000000000E+00 0. -1.
          6    1    1    2  501    0  0.40409660856E+02 -0.53807326196E+02 -0.11865220339E+04  0.12009544978E+04  0.17300000000E+03 0. -1.
         -6    1    1    2    0  502 -0.40409660856E+02  0.53807326196E+02 -0.45895632343E+03  0.49507380850E+03  0.17300000000E+03 0. -1.
</event>
<event>
 4    1  0.6031777E+000  0.1000000E+03  0.7546771E-02  0.1280296E+00
         21   -1    0    0  503  502  0.00000000000E+00  0.00000000000E+00  0.82965526279E+02  0.82965526279E+02  0.00000000000E+00 0.  1.
         21   -1    0    0  501  503 -0.00000000000E+00 -0.00000000000E+00 -0.62457369827E+03  0.62457369827E+03  0.00000000000E+00 0. -1.
          6    1    1    2  501    0 -0.21312772299E+02  0.49398362027E+02 -0.48499227921E+03  0.51772670718E+03  0.17300000000E+03 0. -1.
         -6    1    1    2    0  502  0.21312772299E+02 -0.49398362027E+02 -0.56615892779E+02  0.18981251737E+03  0.17300000000E+03 0. -1.
</event>
<event>
 4    1  0.6031777E+000  0.1000000E+03  0.7546771E-02  0.1280296E+00
         21   -1    0    0  503  502  0.00000000000E+00  0.00000000000E+00  0.79985422760E+02  0.79985422760E+02  0.00000000000E+00 0.  1.
         21   -1    0    0  501  503 -0.00000000000E+00 -0.00000000000E+00 -0.18350294999E+04  0.18350294999E+04  0.00000000000E+00 0. -1.
          6    1    1    2  501    0 -0.10545578425E+03  0.47545071316E+02 -0.16814410031E+04  0.16942710241E+04  0.17300000000E+03 0. -1.
         -6    1    1    2    0  502  0.10545578425E+03 -0.47545071316E+02 -0.73603074043E+02  0.22074389855E+03  0.17300000000E+03 0. -1.
</event>
<event>
 4    1  0.6031777E+000  0.1000000E+03  0.7546771E-02  0.1280296E+00
         21   -1    0    0  503  502  0.00000000000E+00  0.00000000000E+00  0.50418205368E+03  0.50418205368E+03  0.00000000000E+00 0.  1.
         21   -1    0    0  501  503 -0.00000000000E+00 -0.00000000000E+00 -0.14949643750E+03  0.14949643750E+03  0.00000000000E+00 0. -1.
          6    1    1    2  501    0 -0.17991480612E+01 -0.25130627958E+01 -0.76415180765E+02  0.18915029017E+03  0.17300000000E+03 0. -1.
         -6    1    1    2    0  502  0.17991480612E+01  0.25130627958E+01  0.43110079694E+03  0.46452820102E+03  0.17300000000E+03 0. -1.
</event>
<event>
 4    1  0.6031777E+000  0.1000000E+03  0.7546771E-02  0.1280296E+00
         21   -1    0    0  503  502  0.00000000000E+00  0.00000000000E+00  0.98606634308E+02  0.98606634308E+02  0.00000000000E+00 0.  1.
         21   -1    0    0  501  503 -0.00000000000E+00 -0.00000000000E+00 -0.35724781691E+03  0.35724781691E+03  0.00000000000E+00 0.  1.
          6    1    1    2  501    0 -0.52560372448E+01 -0.57498467138E+02 -0.18314296244E+03  0.25846478356E+03  0.17300000000E+03 0.  1.
         -6    1    1    2    0  502  0.52560372448E+01  0.57498467138E+02 -0.75498220168E+02  0.19738966766E+03  0.17300000000E+03 0.  1.
</event>
<event>
 4    1  0.6031777E+000  0.1000000E+03  0.7546771E-02  0.1280296E+00
         21   -1    0    0  503  502  0.00000000000E+00  0.00000000000E+00  0.27697843707E+03  0.27697843707E+03  0.00000000000E+00 0.  1.
         21   -1    0    0  501  503 -0.00000000000E+00 -0.00000000000E+00 -0.13545363749E+03  0.13545363749E+03  0.00000000000E+00 0.  1.
          6    1    1    2  501    0 -0.94607060991E+01 -0.59886599080E+02  0.41661996773E+01  0.18336375577E+03  0.17300000000E+03 0.  1.
         -6    1    1    2    0  502  0.94607060991E+01  0.59886599080E+02  0.13735859990E+03  0.22906831880E+03  0.17300000000E+03 0.  1.
</event>
<event>
 4    1  0.6031777E+000  0.1000000E+03  0.7546771E-02  0.1280296E+00
         21   -1    0    0  501  502  0.00000000000E+00  0.00000000000E+00  0.13615177567E+03  0.13615177567E+03  0.00000000000E+00 0.  1.
         21   -1    0    0  502  503 -0.00000000000E+00 -0.00000000000E+00 -0.24583628062E+03  0.24583628062E+03  0.00000000000E+00 0.  1.
          6    1    1    2  501    0  0.52580928811E+02  0.23788807923E+02 -0.70020509166E+02  0.19535233083E+03  0.17300000000E+03 0. -1.
         -6    1    1    2    0  503 -0.52580928811E+02 -0.23788807923E+02 -0.39663995788E+02  0.18663572546E+03  0.17300000000E+03 0. -1.
</event>
<event>
 4    1  0.6031777E+000  0.1000000E+03  0.7546771E-02  0.1280296E+00
         21   -1    0    0  501  502  0.00000000000E+00  0.00000000000E+00  0.42596299889E+03  0.42596299889E+03  0.00000000000E+00 0.  1.
         21   -1    0    0  502  503 -0.00000000000E+00 -0.00000000000E+00 -0.50010021669E+03  0.50010021669E+03  0.00000000000E+00 0.  1.
          6    1    1    2  501    0  0.32455244081E+03 -0.92019536605E+02  0.22701522733E+03  0.44189002636E+03  0.17300000000E+03 0. -1.
         -6    1    1    2    0  503 -0.32455244081E+03  0.92019536605E+02 -0.30115244513E+03  0.48417318922E+03  0.17300000000E+03 0. -1.
</event>
<event>
 4    1  0.6031777E+000  0.1000000E+03  0.7546771E-02  0.1280296E+00
         21   -1    0    0  503  502  0.00000000000E+00  0.00000000000E+00  0.38213059309E+02  0.38213059309E+02  0.00000000000E+00 0.  1.
         21   -1    0    0  501  503 -0.00000000000E+00 -0.00000000000E+00 -0.14086382117E+04  0.14086382117E+04  0.00000000000E+00 0. -1.
          6    1    1    2  501    0  0.87513468844E+02 -0.29991699572E+02 -0.10714184382E+04  0.10892311871E+04  0.17300000000E+03 0. -1.
         -6    1    1    2    0  502 -0.87513468844E+02  0.29991699572E+02 -0.29900671419E+03  0.35762008389E+03  0.17300000000E+03 0.  1.
</event>
<event>
 4    1  0.6031777E+000  0.1000000E+03  0.7546771E-02  0.1280296E+00
         21   -1    0    0  503  502  0.00000000000E+00  0.00000000000E+00  0.47864731128E+02  0.47864731128E+02  0.00000000000E+00 0.  1.
         21   -1    0    0  501  503 -0.00000000000E+00 -0.00000000000E+00 -0.10962685580E+04  0.10962685580E+04  0.00000000000E+00 0. -1.
          6    1    1    2  501    0  0.37118358598E+01 -0.37928577188E+02 -0.88688845835E+03  0.90440726017E+03  0.17300000000E+03 0. -1.
         -6    1    1    2    0  502 -0.37118358598E+01  0.37928577188E+02 -0.16151536853E+03  0.23972602897E+03  0.17300000000E+03 0.  1.
</event>
<event>
 4    1  0.6031777E+000  0.1000000E+03  0.7546771E-02  0.1280296E+00
         21   -1    0    0  501  502  0.00000000000E+00  0.00000000000E+00  0.59729215111E+03  0.59729215111E+03  0.00000000000E+00 0. -1.
         21   -1    0    0  502  503 -0.00000000000E+00 -0.00000000000E+00 -0.24040183613E+03  0.24040183613E+03  0.00000000000E+00 0.  1.
          6    1    1    2  501    0 -0.25329768658E+03 -0.10252635061E+03  0.39670225988E+03  0.51183303292E+03  0.17300000000E+03 0.  1.
         -6    1    1    2    0  503  0.25329768658E+03  0.10252635061E+03 -0.39811944906E+02  0.32586095432E+03  0.17300000000E+03 0. -1.
</event>
<event>
 4    1  0.6031777E+000  0.1000000E+03  0.7546771E-02  0.1280296E+00
         21   -1    0    0  501  502  0.00000000000E+00  0.00000000000E+00  0.15823639800E+04  0.15823639800E+04  0.00000000000E+00 0. -1.
         21   -1    0    0  502  503 -0.00000000000E+00 -0.00000000000E+00 -0.57611145984E+02  0.57611145984E+02  0.00000000000E+00 0.  1.
          6    1    1    2  501    0  0.27812190835E+01  0.19879505964E+03  0.11624930681E+04  0.11919925941E+04  0.17300000000E+03 0.  1.
         -6    1    1    2    0  503 -0.27812190835E+01 -0.19879505964E+03  0.36225976597E+03  0.44798253197E+03  0.17300000000E+03 0. -1.
</event>
<event>
 4    1  0.6031777E+000  0.1000000E+03  0.7546771E-02  0.1280296E+00
         21   -1    0    0  503  502  0.00000000000E+00  0.00000000000E+00  0.21591202132E+03  0.21591202132E+03  0.00000000000E+00 0. -1.
         21   -1    0    0  501  503 -0.00000000000E+00 -0.00000000000E+00 -0.18642375172E+03  0.18642375172E+03  0.00000000000E+00 0.  1.
          6    1    1    2  501    0 -0.40530473698E+02  0.87434727565E+02 -0.17507465987E+02  0.19880408006E+03  0.17300000000E+03 0. -1.
         -6    1    1    2    0  502  0.40530473698E+02 -0.87434727565E+02  0.46995735587E+02  0.20353169298E+03  0.17300000000E+03 0.  1.
</event>
<event>
 4    1  0.6031777E+000  0.1000000E+03  0.7546771E-02  0.1280296E+00
         21   -1    0    0  501  502  0.00000000000E+00  0.00000000000E+00  0.26126329904E+03  0.26126329904E+03  0.00000000000E+00 0.  1.
         21   -1    0    0  502  503 -0.00000000000E+00 -0.00000000000E+00 -0.12139713128E+03  0.12139713128E+03  0.00000000000E+00 0.  1.
          6    1    1    2  501    0  0.40264355140E+02  0.11100731192E+02  0.76991928174E+02  0.19391029249E+03  0.17300000000E+03 0.  1.
         -6    1    1    2    0  503 -0.40264355140E+02 -0.11100731192E+02  0.62874239584E+02  0.18875013783E+03  0.17300000000E+03 0.  1.
</event>
<event>
 4    1  0.6031777E+000  0.1000000E+03  0.7546771E-02  0.1280296E+00
         21   -1    0    0  501  502  0.00000000000E+00  0.00000000000E+00  0.99678371067E+02  0.99678371067E+02  0.00000000000E+00 0.  1.
         21   -1    0    0  502  503 -0.00000000000E+00 -0.00000000000E+00 -0.42575758114E+03  0.42575758114E+03  0.00000000000E+00 0.  1.
          6    1    1    2  501    0 -0.69716492626E+02 -0.87455287546E+02 -0.16431839066E+03  0.26351157503E+03  0.17300000000E+03 0.  1.
         -6    1    1    2    0  503  0.69716492626E+02  0.87455287546E+02 -0.16176081941E+03  0.26192437718E+03  0.17300000000E+03 0.  1.
</event>
<event>
 4    1  0.6031777E+000  0.1000000E+03  0.7546771E-02  0.1280296E+00
         21   -1    0    0  501  502  0.00000000000E+00  0.00000000000E+00  0.24080335592E+03  0.24080335592E+03  0.00000000000E+00 0.  1.
         21   -1    0    0  502  503 -0.00000000000E+00 -0.00000000000E+00 -0.18862654259E+03  0.18862654259E+03  0.00000000000E+00 0.  1.
          6    1    1    2  501    0  0.24308983448E+02  0.32494414859E+02  0.14463612525E+03  0.22911879539E+03  0.17300000000E+03 0. -1.
         -6    1    1    2    0  503 -0.24308983448E+02 -0.32494414859E+02 -0.92459311924E+02  0.20031110312E+03  0.17300000000E+03 0. -1.
</event>
<event>
 4    1  0.6031777E+000  0.1000000E+03  0.7546771E-02  0.1280296E+00
         21   -1    0    0  501  502  0.00000000000E+00  0.00000000000E+00  0.69838945396E+02  0.69838945396E+02  0.00000000000E+00 0. -1.
         21   -1    0    0  502  503 -0.00000000000E+00 -0.00000000000E+00 -0.16140378115E+04  0.16140378115E+04  0.00000000000E+00 0.  1.
          6    1    1    2  501    0 -0.14401295071E+02 -0.40334513455E+02 -0.58575845771E+02  0.18760170570E+03  0.17300000000E+03 0. -1.
         -6    1    1    2    0  503  0.14401295071E+02  0.40334513455E+02 -0.14856230203E+04  0.14962750512E+04  0.17300000000E+03 0.  1.
</event>
<event>
 4    1  0.6031777E+000  0.1000000E+03  0.7546771E-02  0.1280296E+00
         21   -1    0    0  503  502  0.00000000000E+00  0.00000000000E+00  0.64697576521E+03  0.64697576521E+03  0.00000000000E+00 0. -1.
         21   -1    0    0  501  503 -0.00000000000E+00 -0.00000000000E+00 -0.84215225593E+02  0.84215225593E+02  0.00000000000E+00 0. -1.
          6    1    1    2  501    0 -0.40876124824E+02  0.91952923669E+02  0.93234320951E+02  0.22078912191E+03  0.17300000000E+03 0.  1.
         -6    1    1    2    0  502  0.40876124824E+02 -0.91952923669E+02  0.46952621866E+03  0.51040186889E+03  0.17300000000E+03 0.  1.
</event>
<event>
 4    1  0.6031777E+000  0.1000000E+03  0.7546771E-02  0.1280296E+00
         21   -1    0    0  503  502  0.00000000000E+00  0.00000000000E+00  0.63634379848E+03  0.63634379848E+03  0.00000000000E+00 0. -1.
         21   -1    0    0  501  503 -0.00000000000E+00 -0.00000000000E+00 -0.25708860386E+03  0.25708860386E+03  0.00000000000E+00 0. -1.
          6    1    1    2  501    0 -0.26851617200E+03 -0.23000955791E+03  0.29242063123E+03  0.49035105478E+03  0.17300000000E+03 0.  1.
         -6    1    1    2    0  502  0.26851617200E+03  0.23000955791E+03  0.86834563382E+02  0.40308134756E+03  0.17300000000E+03 0.  1.
</event>
<event>
 4    1  0.6031777E+000  0.1000000E+03  0.7546771E-02  0.1280296E+00
         21   -1    0    0  503  502  0.00000000000E+00  0.00000000000E+00  0.14290413881E+04  0.14290413881E+04  0.00000000000E+00 0. -1.
         21   -1    0    0  501  503 -0.00000000000E+00 -0.00000000000E+00 -0.23394168806E+02  0.23394168806E+02  0.00000000000E+00 0. -1.
          6    1    1    2  501    0 -0.52761413605E+02 -0.25899528028E+02  0.73025028159E+03  0.75276093554E+03  0.17300000000E+03 0.  1.
         -6    1    1    2    0  502  0.52761413605E+02  0.25899528028E+02  0.67539693769E+03  0.69967462135E+03  0.17300000000E+03 0.  1.
</event>
<event>
 4    1  0.6031777E+000  0.1000000E+03  0.7546771E-02  0.1280296E+00
         21   -1    0    0  503  502  0.00000000000E+00  0.00000000000E+00  0.97817809956E+02  0.97817809956E+02  0.00000000000E+00 0.  1.
         21   -1    0    0  501  503 -0.00000000000E+00 -0.00000000000E+00 -0.53385068043E+03  0.53385068043E+03  0.00000000000E+00 0.  1.
          6    1    1    2  501    0 -0.59563315538E+02  0.13663186959E+03 -0.20604323951E+03  0.30756929771E+03  0.17300000000E+03 0.  1.
         -6    1    1    2    0  502  0.59563315538E+02 -0.13663186959E+03 -0.22998963097E+03  0.32409919268E+03  0.17300000000E+03 0.  1.
</event>
<event>
 4    1  0.6031777E+000  0.1000000E+03  0.7546771E-02  0.1280296E+00
         21   -1    0    0  503  502  0.00000000000E+00  0.00000000000E+00  0.17470693642E+03  0.17470693642E+03  0.00000000000E+00 0.  1.
         21   -1    0    0  501  503 -0.00000000000E+00 -0.00000000000E+00 -0.24735209764E+03  0.24735209764E+03  0.00000000000E+00 0.  1.
          6    1    1    2  501    0 -0.18977457957E+02  0.11136252152E+03 -0.13098656152E+02  0.20703219533E+03  0.17300000000E+03 0.  1.
         -6    1    1    2    0  502  0.18977457957E+02 -0.11136252152E+03 -0.59546505069E+02  0.21502683873E+03  0.17300000000E+03 0.  1.
</event>
<event>
 4    1  0.6031777E+000  0.1000000E+03  0.7546771E-02  0.1280296E+00
         21   -1    0    0  501  502  0.00000000000E+00  0.00000000000E+00  0.67058796527E+03  0.67058796527E+03  0.00000000000E+00 0. -1.
         21   -1    0    0  502  503 -0.00000000000E+00 -0.00000000000E+00 -0.66869783570E+02  0.66869783570E+02  0.00000000000E+00 0. -1.
          6    1    1    2  501    0 -0.11780969017E+03 -0.19334880847E+02  0.34659671572E+03  0.40535323369E+03  0.17300000000E+03 0. -1.
         -6    1    1    2    0  503  0.11780969017E+03  0.19334880847E+02  0.25712146598E+03  0.33210451515E+03  0.17300000000E+03 0. -1.
</event>
<event>
 4    1  0.6031777E+000  0.1000000E+03  0.7546771E-02  0.1280296E+00
         21   -1    0    0  501  502  0.00000000000E+00  0.00000000000E+00  0.11777486335E+03  0.11777486335E+03  0.00000000000E+00 0. -1.
         21   -1    0    0  502  503 -0.00000000000E+00 -0.00000000000E+00 -0.56010144645E+03  0.56010144645E+03  0.00000000000E+00 0. -1.
          6    1    1    2  501    0 -0.16708182734E+03  0.24813416977E+02 -0.10684092681E+03  0.26434073907E+03  0.17300000000E+03 0.  1.
         -6    1    1    2    0  503  0.16708182734E+03 -0.24813416977E+02 -0.33548565629E+03  0.41353557074E+03  0.17300000000E+03 0.  1.
</event>
<event>
 4    1  0.6031777E+000  0.1000000E+03  0.7546771E-02  0.1280296E+00
         21   -1    0    0  501  502  0.00000000000E+00  0.00000000000E+00  0.34496291859E+03  0.34496291859E+03  0.00000000000E+00 0. -1.
         21   -1    0    0  502  503 -0.00000000000E+00 -0.00000000000E+00 -0.19178200905E+03  0.19178200905E+03  0.00000000000E+00 0.  1.
          6    1    1    2  501    0 -0.26173474303E+02 -0.31048088876E+02  0.27061563357E+03  0.32374504739E+03  0.17300000000E+03 0. -1.
         -6    1    1    2    0  503  0.26173474303E+02  0.31048088876E+02 -0.11743472402E+03  0.21299988025E+03  0.17300000000E+03 0. -1.
</event>
<event>
 4    1  0.6031777E+000  0.1000000E+03  0.7546771E-02  0.1280296E+00
         21   -1    0    0  501  502  0.00000000000E+00  0.00000000000E+00  0.24147605428E+03  0.24147605428E+03  0.00000000000E+00 0.  1.
         21   -1    0    0  502  503 -0.00000000000E+00 -0.00000000000E+00 -0.29310376748E+03  0.29310376748E+03  0.00000000000E+00 0. -1.
          6    1    1    2  501    0 -0.36169429808E+02  0.19878236806E+03 -0.20702354591E+02  0.26679626120E+03  0.17300000000E+03 0. -1.
         -6    1    1    2    0  503  0.36169429808E+02 -0.19878236806E+03 -0.30925358609E+02  0.26778356057E+03  0.17300000000E+03 0.  1.
</event>
<event>
 4    1  0.6031777E+000  0.1000000E+03  0.7546771E-02  0.1280296E+00
         21   -1    0    0  503  502  0.00000000000E+00  0.00000000000E+00  0.50974178444E+02  0.50974178444E+02  0.00000000000E+00 0.  1.
         21   -1    0    0  501  503 -0.00000000000E+00 -0.00000000000E+00 -0.17900268675E+04  0.17900268675E+04  0.00000000000E+00 0.  1.
          6    1    1    2  501    0  0.22690889278E+03 -0.98788006704E+02 -0.89491866196E+03  0.94448670049E+03  0.17300000000E+03 0.  1.
         -6    1    1    2    0  502 -0.22690889278E+03  0.98788006704E+02 -0.84413402713E+03  0.89651434548E+03  0.17300000000E+03 0.  1.
</event>
<event>
 4    1  0.6031777E+000  0.1000000E+03  0.7546771E-02  0.1280296E+00
         21   -1    0    0  503  502  0.00000000000E+00  0.00000000000E+00  0.57553528422E+03  0.57553528422E+03  0.00000000000E+00 0.  1.
         21   -1    0    0  501  503 -0.00000000000E+00 -0.00000000000E+00 -0.10569487871E+03  0.10569487871E+03  0.00000000000E+00 0.  1.
          6    1    1    2  501    0 -0.10797099247E+03 -0.65648435345E+02  0.66148791619E+02  0.22421443957E+03  0.17300000000E+03 0.  1.
         -6    1    1    2    0  502  0.10797099247E+03  0.65648435345E+02  0.40369161389E+03  0.45701572336E+03  0.17300000000E+03 0.  1.
</event>
<event>
 4    1  0.6031777E+000  0.1000000E+03  0.7546771E-02  0.1280296E+00
         21   -1    0    0  503  502  0.00000000000E+00  0.00000000000E+00  0.45833758775E+02  0.45833758775E+02  0.00000000000E+00 0.  1.
         21   -1    0    0  501  503 -0.00000000000E+00 -0.00000000000E+00 -0.73740907336E+03  0.73740907336E+03  0.00000000000E+00 0.  1.
          6    1    1    2  501    0 -0.23242420876E+02  0.57299941942E+02 -0.36019384540E+03  0.40434156321E+03  0.17300000000E+03 0.  1.
         -6    1    1    2    0  502  0.23242420876E+02 -0.57299941942E+02 -0.33138146918E+03  0.37890126893E+03  0.17300000000E+03 0.  1.
</event>
<event>
 4    1  0.6031777E+000  0.1000000E+03  0.7546771E-02  0.1280296E+00
         21   -1    0    0  503  502  0.00000000000E+00  0.00000000000E+00  0.13924472841E+03  0.13924472841E+03  0.00000000000E+00 0. -1.
         21   -1    0    0  501  503 -0.00000000000E+00 -0.00000000000E+00 -0.12221399257E+04  0.12221399257E+04  0.00000000000E+00 0. -1.
          6    1    1    2  501    0 -0.18741487592E+02  0.17853994416E+02 -0.11579130859E+04  0.11710515458E+04  0.17300000000E+03 0. -1.
         -6    1    1    2    0  502  0.18741487592E+02 -0.17853994416E+02  0.75017888664E+02  0.19033310824E+03  0.17300000000E+03 0. -1.
</event>
<event>
 4    1  0.6031777E+000  0.1000000E+03  0.7546771E-02  0.1280296E+00
         21   -1    0    0  503  502  0.00000000000E+00  0.00000000000E+00  0.30608181136E+03  0.30608181136E+03  0.00000000000E+00 0. -1.
         21   -1    0    0  501  503 -0.00000000000E+00 -0.00000000000E+00 -0.25382798651E+03  0.25382798651E+03  0.00000000000E+00 0. -1.
          6    1    1    2  501    0 -0.33283297084E+02  0.17238004372E+03 -0.10459919156E+03  0.26775482855E+03  0.17300000000E+03 0. -1.
         -6    1    1    2    0  502  0.33283297084E+02 -0.17238004372E+03  0.15685301642E+03  0.29215496932E+03  0.17300000000E+03 0. -1.
</event>
<event>
 4    1  0.6031777E+000  0.1000000E+03  0.7546771E-02  0.1280296E+00
         21   -1    0    0  501  502  0.00000000000E+00  0.00000000000E+00  0.26269762931E+02  0.26269762931E+02  0.00000000000E+00 0.  1.
         21   -1    0    0  502  503 -0.00000000000E+00 -0.00000000000E+00 -0.18924888869E+04  0.18924888869E+04  0.00000000000E+00 0. -1.
          6    1    1    2  501    0  0.17737523124E+02 -0.53459897763E+02 -0.37851170107E+03  0.41996748475E+03  0.17300000000E+03 0.  1.
         -6    1    1    2    0  503 -0.17737523124E+02  0.53459897763E+02 -0.14877074229E+04  0.14987911651E+04  0.17300000000E+03 0. -1.
</event>
<event>
 4    1  0.6031777E+000  0.1000000E+03  0.7546771E-02  0.1280296E+00
         21   -1    0    0  503  502  0.00000000000E+00  0.00000000000E+00  0.57142918190E+02  0.57142918190E+02  0.00000000000E+00 0.  1.
         21   -1    0    0  501  503 -0.00000000000E+00 -0.00000000000E+00 -0.13479126900E+04  0.13479126900E+04  0.00000000000E+00 0.  1.
          6    1    1    2  501    0 -0.68104690024E+02 -0.40910587830E+02 -0.11565834514E+04  0.11721459828E+04  0.17300000000E+03 0.  1.
         -6    1    1    2    0  502  0.68104690024E+02  0.40910587830E+02 -0.13418632040E+03  0.23290962535E+03  0.17300000000E+03 0.  1.
</event>
<event>
 4    1  0.6031777E+000  0.1000000E+03  0.7546771E-02  0.1280296E+00
         21   -1    0    0  503  502  0.00000000000E+00  0.00000000000E+00  0.29089241501E+03  0.29089241501E+03  0.00000000000E+00 0.  1.
         21   -1    0    0  501  503 -0.00000000000E+00 -0.00000000000E+00 -0.21737936046E+03  0.21737936046E+03  0.00000000000E+00 0.  1.
          6    1    1    2  501    0 -0.95313365344E+02  0.14553053735E+03  0.92489914436E+02  0.26219679477E+03  0.17300000000E+03 0.  1.
         -6    1    1    2    0  502  0.95313365344E+02 -0.14553053735E+03 -0.18976859885E+02  0.24607498070E+03  0.17300000000E+03 0.  1.
</event>
<event>
 4    1  0.6031777E+000  0.1000000E+03  0.7546771E-02  0.1280296E+00
         21   -1    0    0  501  502  0.00000000000E+00  0.00000000000E+00  0.59889045611E+03  0.59889045611E+03  0.00000000000E+00 0.  1.
         21   -1    0    0  502  503 -0.00000000000E+00 -0.00000000000E+00 -0.14285766844E+03  0.14285766844E+03  0.00000000000E+00 0. -1.
          6    1    1    2  501    0  0.53616997732E+02 -0.34503760995E+02  0.51593188377E+03  0.54788685023E+03  0.17300000000E+03 0.  1.
         -6    1    1    2    0  503 -0.53616997732E+02  0.34503760995E+02 -0.59899096096E+02  0.19386127432E+03  0.17300000000E+03 0. -1.
</event>
<event>
 4    1  0.6031777E+000  0.1000000E+03  0.7546771E-02  0.1280296E+00
         21   -1    0    0  501  502  0.00000000000E+00  0.00000000000E+00  0.86510458987E+02  0.86510458987E+02  0.00000000000E+00 0.  1.
         21   -1    0    0  502  503 -0.00000000000E+00 -0.00000000000E+00 -0.53104085788E+03  0.53104085788E+03  0.00000000000E+00 0. -1.
          6    1    1    2  501    0 -0.21289101058E+02 -0.21082426515E+02 -0.45159326249E+02  0.18128998670E+03  0.17300000000E+03 0.  1.
         -6    1    1    2    0  503  0.21289101058E+02  0.21082426515E+02 -0.39937107265E+03  0.43626133017E+03  0.17300000000E+03 0. -1.
</event>
<event>
 4    1  0.6031777E+000  0.1000000E+03  0.7546771E-02  0.1280296E+00
         21   -1    0    0  501  502  0.00000000000E+00  0.00000000000E+00  0.14208074118E+03  0.14208074118E+03  0.00000000000E+00 0.  1.
         21   -1    0    0  502  503 -0.00000000000E+00 -0.00000000000E+00 -0.49073021948E+03  0.49073021948E+03  0.00000000000E+00 0. -1.
          6    1    1    2  501    0 -0.12131053440E+03  0.14280147208E+02  0.14661015401E+02  0.21228309809E+03  0.17300000000E+03 0.  1.
         -6    1    1    2    0  503  0.12131053440E+03 -0.14280147208E+02 -0.36331049371E+03  0.42052786257E+03  0.17300000000E+03 0. -1.
</event>
<event>
 4    1  0.6031777E+000  0.1000000E+03  0.7546771E-02  0.1280296E+00
         21   -1    0    0  501  502  0.00000000000E+00  0.00000000000E+00  0.78293705076E+02  0.78293705076E+02  0.00000000000E+00 0.  1.
         21   -1    0    0  502  503 -0.00000000000E+00 -0.00000000000E+00 -0.10634760270E+04  0.10634760270E+04  0.00000000000E+00 0. -1.
          6    1    1    2  501    0  0.81157162982E+02  0.87362716023E+01 -0.65177961785E+02  0.20208902555E+03  0.17300000000E+03 0.  1.
         -6    1    1    2    0  503 -0.81157162982E+02 -0.87362716023E+01 -0.92000436016E+03  0.93968070655E+03  0.17300000000E+03 0. -1.
</event>
<event>
 4    1  0.6031777E+000  0.1000000E+03  0.7546771E-02  0.1280296E+00
         21   -1    0    0  501  502  0.00000000000E+00  0.00000000000E+00  0.23095732240E+03  0.23095732240E+03  0.00000000000E+00 0. -1.
         21   -1    0    0  502  503 -0.00000000000E+00 -0.00000000000E+00 -0.15415091076E+03  0.15415091076E+03  0.00000000000E+00 0. -1.
          6    1    1    2  501    0  0.63985355702E+02 -0.11760064783E+02  0.77140054904E+02  0.20027983658E+03  0.17300000000E+03 0. -1.
         -6    1    1    2    0  503 -0.63985355702E+02  0.11760064783E+02 -0.33364326038E+00  0.18482839659E+03  0.17300000000E+03 0. -1.
</event>
<event>
 4    1  0.6031777E+000  0.1000000E+03  0.7546771E-02  0.1280296E+00
         21   -1    0    0  501  502  0.00000000000E+00  0.00000000000E+00  0.21515446484E+03  0.21515446484E+03  0.00000000000E+00 0.  1.
         21   -1    0    0  502  503 -0.00000000000E+00 -0.00000000000E+00 -0.22202579638E+03  0.22202579638E+03  0.00000000000E+00 0. -1.
          6    1    1    2  501    0  0.12412586552E+03  0.41470167663E+02  0.23285346397E+02  0.21817014611E+03  0.17300000000E+03 0. -1.
         -6    1    1    2    0  503 -0.12412586552E+03 -0.41470167663E+02 -0.30156677928E+02  0.21901011511E+03  0.17300000000E+03 0.  1.
</event>
<event>
 4    1  0.6031777E+000  0.1000000E+03  0.7546771E-02  0.1280296E+00
         21   -1    0    0  501  502  0.00000000000E+00  0.00000000000E+00  0.66963236185E+03  0.66963236185E+03  0.00000000000E+00 0.  1.
         21   -1    0    0  502  503 -0.00000000000E+00 -0.00000000000E+00 -0.75691525411E+02  0.75691525411E+02  0.00000000000E+00 0. -1.
          6    1    1    2  501    0  0.12648537605E+03 -0.27557949637E+02  0.19230048048E+03  0.28925156133E+03  0.17300000000E+03 0. -1.
         -6    1    1    2    0  503 -0.12648537605E+03  0.27557949637E+02  0.40164035597E+03  0.45607232593E+03  0.17300000000E+03 0.  1.
</event>
<event>
 4    1  0.6031777E+000  0.1000000E+03  0.7546771E-02  0.1280296E+00
         21   -1    0    0  501  502  0.00000000000E+00  0.00000000000E+00  0.16202488539E+02  0.16202488539E+02  0.00000000000E+00 0.  1.
         21   -1    0    0  502  503 -0.00000000000E+00 -0.00000000000E+00 -0.23389146169E+04  0.23389146169E+04  0.00000000000E+00 0.  1.
          6    1    1    2  501    0 -0.72016492895E+02  0.47533741347E+02 -0.12994810520E+04  0.13137830248E+04  0.17300000000E+03 0.  1.
         -6    1    1    2    0  503  0.72016492895E+02 -0.47533741347E+02 -0.10232310764E+04  0.10413340807E+04  0.17300000000E+03 0.  1.
</event>
<event>
 4    1  0.6031777E+000  0.1000000E+03  0.7546771E-02  0.1280296E+00
         21   -1    0    0  501  502  0.00000000000E+00  0.00000000000E+00  0.13171932283E+04  0.13171932283E+04  0.00000000000E+00 0.  1.
         21   -1    0    0  502  503 -0.00000000000E+00 -0.00000000000E+00 -0.53196805865E+02  0.53196805865E+02  0.00000000000E+00 0.  1.
          6    1    1    2  501    0 -0.14082006942E+03  0.14059556265E+03  0.69237546706E+03  0.74088473569E+03  0.17300000000E+03 0.  1.
         -6    1    1    2    0  503  0.14082006942E+03 -0.14059556265E+03  0.57162095540E+03  0.62950529850E+03  0.17300000000E+03 0.  1.
</event>
<event>
 4    1  0.6031777E+000  0.1000000E+03  0.7546771E-02  0.1280296E+00
         21   -1    0    0  501  502  0.00000000000E+00  0.00000000000E+00  0.38875292668E+03  0.38875292668E+03  0.00000000000E+00 0.  1.
         21   -1    0    0  502  503 -0.00000000000E+00 -0.00000000000E+00 -0.80920400935E+02  0.80920400935E+02  0.00000000000E+00 0.  1.
          6    1    1    2  501    0  0.36480476404E+02  0.14066275315E+02  0.15470784637E+03  0.23535548217E+03  0.17300000000E+03 0.  1.
         -6    1    1    2    0  503 -0.36480476404E+02 -0.14066275315E+02  0.15312467938E+03  0.23431784545E+03  0.17300000000E+03 0.  1.
</event>
<event>
 4    1  0.6031777E+000  0.1000000E+03  0.7546771E-02  0.1280296E+00
         21   -1    0    0  503  502  0.00000000000E+00  0.00000000000E+00  0.26530002019E+03  0.26530002019E+03  0.00000000000E+00 0. -1.
         21   -1    0    0  501  503 -0.00000000000E+00 -0.00000000000E+00 -0.17689716983E+03  0.17689716983E+03  0.00000000000E+00 0.  1.
          6    1    1    2  501    0  0.45234473998E+02  0.75918065848E+02 -0.53649415514E+02  0.20153652310E+03  0.17300000000E+03 0. -1.
         -6    1    1    2    0  502 -0.45234473998E+02 -0.75918065848E+02  0.14205226587E+03  0.24066066691E+03  0.17300000000E+03 0. -1.
</event>
<event>
 4    1  0.6031777E+000  0.1000000E+03  0.7546771E-02  0.1280296E+00
         21   -1    0    0  503  502  0.00000000000E+00  0.00000000000E+00  0.42916589634E+02  0.42916589634E+02  0.00000000000E+00 0. -1.
         21   -1    0    0  501  503 -0.00000000000E+00 -0.00000000000E+00 -0.83115834792E+03  0.83115834792E+03  0.00000000000E+00 0.  1.
          6    1    1    2  501    0 -0.72465242384E+02 -0.16905403536E+02 -0.42721014848E+03  0.46687740895E+03  0.17300000000E+03 0. -1.
         -6    1    1    2    0  502  0.72465242384E+02  0.16905403536E+02 -0.36103160981E+03  0.40719752861E+03  0.17300000000E+03 0. -1.
</event>
<event>
 4    1  0.6031777E+000  0.1000000E+03  0.7546771E-02  0.1280296E+00
         21   -1    0    0  503  502  0.00000000000E+00  0.00000000000E+00  0.10987113269E+03  0.10987113269E+03  0.00000000000E+00 0. -1.
         21   -1    0    0  501  503 -0.00000000000E+00 -0.00000000000E+00 -0.48254756151E+03  0.48254756151E+03  0.00000000000E+00 0.  1.
          6    1    1    2  501    0  0.84473485835E+02 -0.58623314615E+01 -0.34864757421E+03  0.39831428262E+03  0.17300000000E+03 0. -1.
         -6    1    1    2    0  502 -0.84473485835E+02  0.58623314615E+01 -0.24028854604E+02  0.19410441157E+03  0.17300000000E+03 0. -1.
</event>
<event>
 4    1  0.6031777E+000  0.1000000E+03  0.7546771E-02  0.1280296E+00
         21   -1    0    0  501  502  0.00000000000E+00  0.00000000000E+00  0.14151709224E+04  0.14151709224E+04  0.00000000000E+00 0.  1.
         21   -1    0    0  502  503 -0.00000000000E+00 -0.00000000000E+00 -0.27567709061E+02  0.27567709061E+02  0.00000000000E+00 0.  1.
          6    1    1    2  501    0  0.53291994358E+02  0.56694958385E+02  0.49277654486E+03  0.52802658847E+03  0.17300000000E+03 0.  1.
         -6    1    1    2    0  503 -0.53291994358E+02 -0.56694958385E+02  0.89482666847E+03  0.91471204298E+03  0.17300000000E+03 0.  1.
</event>
<event>
 4    1  0.6031777E+000  0.1000000E+03  0.7546771E-02  0.1280296E+00
         21   -1    0    0  501  502  0.00000000000E+00  0.00000000000E+00  0.12104380178E+04  0.12104380178E+04  0.00000000000E+00 0.  1.
         21   -1    0    0  502  503 -0.00000000000E+00 -0.00000000000E+00 -0.20007157488E+03  0.20007157488E+03  0.00000000000E+00 0.  1.
          6    1    1    2  501    0 -0.30625303745E+03 -0.11247572298E+03  0.97134015966E+03  0.10391690993E+04  0.17300000000E+03 0.  1.
         -6    1    1    2    0  503  0.30625303745E+03  0.11247572298E+03  0.39026283235E+02  0.37134049334E+03  0.17300000000E+03 0.  1.
</event>
<event>
 4    1  0.6031777E+000  0.1000000E+03  0.7546771E-02  0.1280296E+00
         21   -1    0    0  501  502  0.00000000000E+00  0.00000000000E+00  0.31245209382E+02  0.31245209382E+02  0.00000000000E+00 0.  1.
         21   -1    0    0  502  503 -0.00000000000E+00 -0.00000000000E+00 -0.10752115043E+04  0.10752115043E+04  0.00000000000E+00 0.  1.
          6    1    1    2  501    0 -0.45331086229E+02  0.39386493889E+02 -0.49860228250E+03  0.53116799545E+03  0.17300000000E+03 0.  1.
         -6    1    1    2    0  503  0.45331086229E+02 -0.39386493889E+02 -0.54536401239E+03  0.57528871820E+03  0.17300000000E+03 0.  1.
</event>
<event>
 4    1  0.6031777E+000  0.1000000E+03  0.7546771E-02  0.1280296E+00
         21   -1    0    0  501  502  0.00000000000E+00  0.00000000000E+00  0.10883699045E+03  0.10883699045E+03  0.00000000000E+00 0.  1.
         21   -1    0    0  502  503 -0.00000000000E+00 -0.00000000000E+00 -0.58463269159E+03  0.58463269159E+03  0.00000000000E+00 0.  1.
          6    1    1    2  501    0  0.17182273509E+03  0.50821875386E+02 -0.18300527376E+03  0.30907255707E+03  0.17300000000E+03 0.  1.
         -6    1    1    2    0  503 -0.17182273509E+03 -0.50821875386E+02 -0.29279042739E+03  0.38439712497E+03  0.17300000000E+03 0.  1.
</event>
<event>
 4    1  0.6031777E+000  0.1000000E+03  0.7546771E-02  0.1280296E+00
         21   -1    0    0  501  502  0.00000000000E+00  0.00000000000E+00  0.14642057701E+04  0.14642057701E+04  0.00000000000E+00 0.  1.
         21   -1    0    0  502  503 -0.00000000000E+00 -0.00000000000E+00 -0.34286184645E+02  0.34286184645E+02  0.00000000000E+00 0.  1.
          6    1    1    2  501    0 -0.12760362972E+03 -0.37394092881E+02  0.88520832124E+03  0.91170377673E+03  0.17300000000E+03 0.  1.
         -6    1    1    2    0  503  0.12760362972E+03  0.37394092881E+02  0.54471126418E+03  0.58678817799E+03  0.17300000000E+03 0.  1.
</event>
<event>
 4    1  0.6031777E+000  0.1000000E+03  0.7546771E-02  0.1280296E+00
         21   -1    0    0  501  502  0.00000000000E+00  0.00000000000E+00  0.22490414604E+03  0.22490414604E+03  0.00000000000E+00 0.  1.
         21   -1    0    0  502  503 -0.00000000000E+00 -0.00000000000E+00 -0.18465225105E+03  0.18465225105E+03  0.00000000000E+00 0.  1.
          6    1    1    2  501    0 -0.24283833697E+01  0.83425978082E+02  0.88532572150E+02  0.21150131724E+03  0.17300000000E+03 0.  1.
         -6    1    1    2    0  503  0.24283833697E+01 -0.83425978082E+02 -0.48280677157E+02  0.19805507984E+03  0.17300000000E+03 0.  1.
</event>
<event>
 4    1  0.6031777E+000  0.1000000E+03  0.7546771E-02  0.1280296E+00
         21   -1    0    0  503  502  0.00000000000E+00  0.00000000000E+00  0.28958302105E+03  0.28958302105E+03  0.00000000000E+00 0. -1.
         21   -1    0    0  501  503 -0.00000000000E+00 -0.00000000000E+00 -0.14010142990E+03  0.14010142990E+03  0.00000000000E+00 0. -1.
          6    1    1    2  501    0 -0.31926205745E+02  0.35648597356E+02 -0.22736663443E+02  0.18093109454E+03  0.17300000000E+03 0. -1.
         -6    1    1    2    0  502  0.31926205745E+02 -0.35648597356E+02  0.17221825460E+03  0.24875335641E+03  0.17300000000E+03 0. -1.
</event>
<event>
 4    1  0.6031777E+000  0.1000000E+03  0.7546771E-02  0.1280296E+00
         21   -1    0    0  503  502  0.00000000000E+00  0.00000000000E+00  0.22223951788E+03  0.22223951788E+03  0.00000000000E+00 0.  1.
         21   -1    0    0  501  503 -0.00000000000E+00 -0.00000000000E+00 -0.57166722462E+03  0.57166722462E+03  0.00000000000E+00 0.  1.
          6    1    1    2  501    0 -0.76541812852E+02 -0.17565041969E+03 -0.44842874609E+03  0.51742541430E+03  0.17300000000E+03 0.  1.
         -6    1    1    2    0  502  0.76541812852E+02  0.17565041969E+03  0.99001039339E+02  0.27648132820E+03  0.17300000000E+03 0.  1.
</event>
<event>
 4    1  0.6031777E+000  0.1000000E+03  0.7546771E-02  0.1280296E+00
         21   -1    0    0  503  502  0.00000000000E+00  0.00000000000E+00  0.44351327910E+03  0.44351327910E+03  0.00000000000E+00 0.  1.
         21   -1    0    0  501  503 -0.00000000000E+00 -0.00000000000E+00 -0.72309566490E+02  0.72309566490E+02  0.00000000000E+00 0.  1.
          6    1    1    2  501    0 -0.33282321453E+02  0.17112114936E+02  0.14640555258E+03  0.22970442579E+03  0.17300000000E+03 0.  1.
         -6    1    1    2    0  502  0.33282321453E+02 -0.17112114936E+02  0.22479816003E+03  0.28611841980E+03  0.17300000000E+03 0.  1.
</event>
<event>
 4    1  0.6031777E+000  0.1000000E+03  0.7546771E-02  0.1280296E+00
         21   -1    0    0  501  502  0.00000000000E+00  0.00000000000E+00  0.80548410202E+03  0.80548410202E+03  0.00000000000E+00 0. -1.
         21   -1    0    0  502  503 -0.00000000000E+00 -0.00000000000E+00 -0.58677946026E+02  0.58677946026E+02  0.00000000000E+00 0. -1.
          6    1    1    2  501    0  0.11751146207E+03  0.29038125701E+02  0.47634903237E+03  0.52104659783E+03  0.17300000000E+03 0. -1.
         -6    1    1    2    0  503 -0.11751146207E+03 -0.29038125701E+02  0.27045712362E+03  0.34311545022E+03  0.17300000000E+03 0. -1.
</event>
<event>
 4    1  0.6031777E+000  0.1000000E+03  0.7546771E-02  0.1280296E+00
         21   -1    0    0  501  502  0.00000000000E+00  0.00000000000E+00  0.34939429599E+03  0.34939429599E+03  0.00000000000E+00 0.  1.
         21   -1    0    0  502  503 -0.00000000000E+00 -0.00000000000E+00 -0.14267552112E+03  0.14267552112E+03  0.00000000000E+00 0.  1.
          6    1    1    2  501    0 -0.68509757287E+02 -0.50377238687E+02  0.22749242359E+03  0.29818325877E+03  0.17300000000E+03 0.  1.
         -6    1    1    2    0  503  0.68509757287E+02  0.50377238687E+02 -0.20773648720E+02  0.19388655833E+03  0.17300000000E+03 0.  1.
</event>
<event>
 4    1  0.6031777E+000  0.1000000E+03  0.7546771E-02  0.1280296E+00
         21   -1    0    0  501  502  0.00000000000E+00  0.00000000000E+00  0.18051069631E+02  0.18051069631E+02  0.00000000000E+00 0.  1.
         21   -1    0    0  502  503 -0.00000000000E+00 -0.00000000000E+00 -0.22613725779E+04  0.22613725779E+04  0.00000000000E+00 0.  1.
          6    1    1    2  501    0  0.87180704340E+01 -0.10394895888E+03 -0.11393226942E+04  0.11570940292E+04  0.17300000000E+03 0.  1.
         -6    1    1    2    0  503 -0.87180704340E+01  0.10394895888E+03 -0.11039988140E+04  0.11223296183E+04  0.17300000000E+03 0.  1.
</event>
<event>
 4    1  0.6031777E+000  0.1000000E+03  0.7546771E-02  0.1280296E+00
         21   -1    0    0  501  502  0.00000000000E+00  0.00000000000E+00  0.66359545585E+02  0.66359545585E+02  0.00000000000E+00 0.  1.
         21   -1    0    0  502  503 -0.00000000000E+00 -0.00000000000E+00 -0.15044901937E+04  0.15044901937E+04  0.00000000000E+00 0.  1.
          6    1    1    2  501    0  0.36486085395E+02  0.35715157140E+02 -0.74197705978E+02  0.19504129422E+03  0.17300000000E+03 0.  1.
         -6    1    1    2    0  503 -0.36486085395E+02 -0.35715157140E+02 -0.13639329421E+04  0.13758084450E+04  0.17300000000E+03 0.  1.
</event>
<event>
 4    1  0.6031777E+000  0.1000000E+03  0.7546771E-02  0.1280296E+00
         21   -1    0    0  501  502  0.00000000000E+00  0.00000000000E+00  0.31114280657E+03  0.31114280657E+03  0.00000000000E+00 0.  1.
         21   -1    0    0  502  503 -0.00000000000E+00 -0.00000000000E+00 -0.16207289279E+03  0.16207289279E+03  0.00000000000E+00 0.  1.
          6    1    1    2  501    0  0.60639819787E+02  0.12351451702E+03  0.32842164724E+02  0.22347400619E+03  0.17300000000E+03 0.  1.
         -6    1    1    2    0  503 -0.60639819787E+02 -0.12351451702E+03  0.11622774905E+03  0.24974169317E+03  0.17300000000E+03 0.  1.
</event>
<event>
 4    1  0.6031777E+000  0.1000000E+03  0.7546771E-02  0.1280296E+00
         21   -1    0    0  501  502  0.00000000000E+00  0.00000000000E+00  0.72422481705E+02  0.72422481705E+02  0.00000000000E+00 0.  1.
         21   -1    0    0  502  503 -0.00000000000E+00 -0.00000000000E+00 -0.60378965961E+03  0.60378965961E+03  0.00000000000E+00 0.  1.
          6    1    1    2  501    0  0.25913043492E+02  0.94524989603E+02 -0.16099261334E+03  0.25583995199E+03  0.17300000000E+03 0.  1.
         -6    1    1    2    0  503 -0.25913043492E+02 -0.94524989603E+02 -0.37037456456E+03  0.42037218932E+03  0.17300000000E+03 0.  1.
</event>
<event>
 4    1  0.6031777E+000  0.1000000E+03  0.7546771E-02  0.1280296E+00
         21   -1    0    0  501  502  0.00000000000E+00  0.00000000000E+00  0.33045254442E+03  0.33045254442E+03  0.00000000000E+00 0.  1.
         21   -1    0    0  502  503 -0.00000000000E+00 -0.00000000000E+00 -0.25981724126E+03  0.25981724126E+03  0.00000000000E+00 0.  1.
          6    1    1    2  501    0  0.21817625979E+03 -0.48813866709E+02 -0.42341589677E+02  0.28584171168E+03  0.17300000000E+03 0.  1.
         -6    1    1    2    0  503 -0.21817625979E+03  0.48813866709E+02  0.11297689284E+03  0.30442807399E+03  0.17300000000E+03 0.  1.
</event>
<event>
 4    1  0.6031777E+000  0.1000000E+03  0.7546771E-02  0.1280296E+00
         21   -1    0    0  501  502  0.00000000000E+00  0.00000000000E+00  0.46417886102E+03  0.46417886102E+03  0.00000000000E+00 0.  1.
         21   -1    0    0  502  503 -0.00000000000E+00 -0.00000000000E+00 -0.13659838398E+03  0.13659838398E+03  0.00000000000E+00 0.  1.
          6    1    1    2  501    0 -0.65501180962E+02  0.11234230309E+03  0.31733158123E+03  0.38410874791E+03  0.17300000000E+03 0.  1.
         -6    1    1    2    0  503  0.65501180962E+02 -0.11234230309E+03  0.10248895808E+02  0.21666849710E+03  0.17300000000E+03 0.  1.
</event>
<event>
 4    1  0.6031777E+000  0.1000000E+03  0.7546771E-02  0.1280296E+00
         21   -1    0    0  503  502  0.00000000000E+00  0.00000000000E+00  0.55122833579E+02  0.55122833579E+02  0.00000000000E+00 0.  1.
         21   -1    0    0  501  503 -0.00000000000E+00 -0.00000000000E+00 -0.10966185714E+04  0.10966185714E+04  0.00000000000E+00 0.  1.
          6    1    1    2  501    0 -0.72553958211E+02 -0.95456334627E+02 -0.81834820681E+03  0.84498448285E+03  0.17300000000E+03 0.  1.
         -6    1    1    2    0  502  0.72553958211E+02  0.95456334627E+02 -0.22314753099E+03  0.30675692211E+03  0.17300000000E+03 0.  1.
</event>
<event>
 4    1  0.6031777E+000  0.1000000E+03  0.7546771E-02  0.1280296E+00
         21   -1    0    0  503  502  0.00000000000E+00  0.00000000000E+00  0.66062872500E+02  0.66062872500E+02  0.00000000000E+00 0.  1.
         21   -1    0    0  501  503 -0.00000000000E+00 -0.00000000000E+00 -0.11892706827E+04  0.11892706827E+04  0.00000000000E+00 0.  1.
          6    1    1    2  501    0  0.41380403403E+02 -0.18308321433E+02 -0.10449485416E+04  0.10601386641E+04  0.17300000000E+03 0.  1.
         -6    1    1    2    0  502 -0.41380403403E+02  0.18308321433E+02 -0.78259268642E+02  0.19519489119E+03  0.17300000000E+03 0.  1.
</event>
<event>
 4    1  0.6031777E+000  0.1000000E+03  0.7546771E-02  0.1280296E+00
         21   -1    0    0  503  502  0.00000000000E+00  0.00000000000E+00  0.33938580127E+03  0.33938580127E+03  0.00000000000E+00 0.  1.
         21   -1    0    0  501  503 -0.00000000000E+00 -0.00000000000E+00 -0.21011018685E+03  0.21011018685E+03  0.00000000000E+00 0.  1.
          6    1    1    2  501    0 -0.10987486996E+03 -0.35274124074E+02 -0.10771905682E+03  0.23419894552E+03  0.17300000000E+03 0.  1.
         -6    1    1    2    0  502  0.10987486996E+03  0.35274124074E+02  0.23699467124E+03  0.31529704260E+03  0.17300000000E+03 0.  1.
</event>
<event>
 4    1  0.6031777E+000  0.1000000E+03  0.7546771E-02  0.1280296E+00
         21   -1    0    0  503  502  0.00000000000E+00  0.00000000000E+00  0.18501736556E+04  0.18501736556E+04  0.00000000000E+00 0.  1.
         21   -1    0    0  501  503 -0.00000000000E+00 -0.00000000000E+00 -0.70478974880E+02  0.70478974880E+02  0.00000000000E+00 0.  1.
          6    1    1    2  501    0 -0.30034036227E+03 -0.37094685871E+01  0.62058774418E+03  0.71082785651E+03  0.17300000000E+03 0.  1.
         -6    1    1    2    0  502  0.30034036227E+03  0.37094685871E+01  0.11591069365E+04  0.12098247739E+04  0.17300000000E+03 0.  1.
</event>
<event>
 4    1  0.6031777E+000  0.1000000E+03  0.7546771E-02  0.1280296E+00
         21   -1    0    0  503  502  0.00000000000E+00  0.00000000000E+00  0.95397243401E+03  0.95397243401E+03  0.00000000000E+00 0.  1.
         21   -1    0    0  501  503 -0.00000000000E+00 -0.00000000000E+00 -0.55380112021E+03  0.55380112021E+03  0.00000000000E+00 0.  1.
          6    1    1    2  501    0  0.82369166127E+02  0.39232085731E+02 -0.52599541232E+03  0.56118090653E+03  0.17300000000E+03 0.  1.
         -6    1    1    2    0  502 -0.82369166127E+02 -0.39232085731E+02  0.92616672612E+03  0.94659264769E+03  0.17300000000E+03 0.  1.
</event>
<event>
 4    1  0.6031777E+000  0.1000000E+03  0.7546771E-02  0.1280296E+00
         21   -1    0    0  503  502  0.00000000000E+00  0.00000000000E+00  0.10129536252E+04  0.10129536252E+04  0.00000000000E+00 0.  1.
         21   -1    0    0  501  503 -0.00000000000E+00 -0.00000000000E+00 -0.80660203413E+02  0.80660203413E+02  0.00000000000E+00 0. -1.
          6    1    1    2  501    0 -0.12765478676E+03  0.53338844085E+02  0.12056308643E+03  0.25220078247E+03  0.17300000000E+03 0. -1.
         -6    1    1    2    0  502  0.12765478676E+03 -0.53338844085E+02  0.81173033538E+03  0.84141304616E+03  0.17300000000E+03 0.  1.
</event>
<event>
 4    1  0.6031777E+000  0.1000000E+03  0.7546771E-02  0.1280296E+00
         21   -1    0    0  503  502  0.00000000000E+00  0.00000000000E+00  0.21011454816E+03  0.21011454816E+03  0.00000000000E+00 0.  1.
         21   -1    0    0  501  503 -0.00000000000E+00 -0.00000000000E+00 -0.21969931059E+03  0.21969931059E+03  0.00000000000E+00 0. -1.
          6    1    1    2  501    0 -0.77230455441E+02  0.95684987262E+02 -0.38160255311E+02  0.21565102624E+03  0.17300000000E+03 0. -1.
         -6    1    1    2    0  502  0.77230455441E+02 -0.95684987262E+02  0.28575492874E+02  0.21416283251E+03  0.17300000000E+03 0.  1.
</event>
<event>
 4    1  0.6031777E+000  0.1000000E+03  0.7546771E-02  0.1280296E+00
         21   -1    0    0  503  502  0.00000000000E+00  0.00000000000E+00  0.27719812613E+03  0.27719812613E+03  0.00000000000E+00 0.  1.
         21   -1    0    0  501  503 -0.00000000000E+00 -0.00000000000E+00 -0.12031392970E+03  0.12031392970E+03  0.00000000000E+00 0. -1.
          6    1    1    2  501    0  0.84769562053E+01 -0.23193080941E+02  0.20728751197E+02  0.17597857516E+03  0.17300000000E+03 0.  1.
         -6    1    1    2    0  502 -0.84769562053E+01  0.23193080941E+02  0.13615544523E+03  0.22153348067E+03  0.17300000000E+03 0. -1.
</event>
<event>
 4    1  0.6031777E+000  0.1000000E+03  0.7546771E-02  0.1280296E+00
         21   -1    0    0  503  502  0.00000000000E+00  0.00000000000E+00  0.74080700856E+03  0.74080700856E+03  0.00000000000E+00 0.  1.
         21   -1    0    0  501  503 -0.00000000000E+00 -0.00000000000E+00 -0.67402860254E+02  0.67402860254E+02  0.00000000000E+00 0. -1.
          6    1    1    2  501    0  0.91208854659E+02 -0.84030437482E+02  0.45966677128E+03  0.50655968080E+03  0.17300000000E+03 0.  1.
         -6    1    1    2    0  502 -0.91208854659E+02  0.84030437482E+02  0.21373737703E+03  0.30165018801E+03  0.17300000000E+03 0. -1.
</event>
<event>
 4    1  0.6031777E+000  0.1000000E+03  0.7546771E-02  0.1280296E+00
         21   -1    0    0  503  502  0.00000000000E+00  0.00000000000E+00  0.18761862466E+03  0.18761862466E+03  0.00000000000E+00 0.  1.
         21   -1    0    0  501  503 -0.00000000000E+00 -0.00000000000E+00 -0.55562738650E+03  0.55562738650E+03  0.00000000000E+00 0. -1.
          6    1    1    2  501    0  0.13703233727E+02  0.17584029407E+03  0.55251271726E+02  0.25315862747E+03  0.17300000000E+03 0.  1.
         -6    1    1    2    0  502 -0.13703233727E+02 -0.17584029407E+03 -0.42326003357E+03  0.49008738369E+03  0.17300000000E+03 0. -1.
</event>
<event>
 4    1  0.6031777E+000  0.1000000E+03  0.7546771E-02  0.1280296E+00
         21   -1    0    0  503  502  0.00000000000E+00  0.00000000000E+00  0.18392982229E+03  0.18392982229E+03  0.00000000000E+00 0.  1.
         21   -1    0    0  501  503 -0.00000000000E+00 -0.00000000000E+00 -0.36003472769E+03  0.36003472769E+03  0.00000000000E+00 0. -1.
          6    1    1    2  501    0 -0.65468301176E+01  0.82649509967E+02 -0.26933302812E+03  0.33067065567E+03  0.17300000000E+03 0.  1.
         -6    1    1    2    0  502  0.65468301176E+01 -0.82649509967E+02  0.93228122720E+02  0.21329389431E+03  0.17300000000E+03 0. -1.
</event>
<event>
 4    1  0.6031777E+000  0.1000000E+03  0.7546771E-02  0.1280296E+00
         21   -1    0    0  503  502  0.00000000000E+00  0.00000000000E+00  0.28369418324E+03  0.28369418324E+03  0.00000000000E+00 0.  1.
         21   -1    0    0  501  503 -0.00000000000E+00 -0.00000000000E+00 -0.76209928300E+03  0.76209928300E+03  0.00000000000E+00 0. -1.
          6    1    1    2  501    0  0.46235831579E+02  0.29597184267E+03 -0.58860982857E+03  0.68273539096E+03  0.17300000000E+03 0.  1.
         -6    1    1    2    0  502 -0.46235831579E+02 -0.29597184267E+03  0.11020472881E+03  0.36305807528E+03  0.17300000000E+03 0. -1.
</event>
<event>
 4    1  0.6031777E+000  0.1000000E+03  0.7546771E-02  0.1280296E+00
         21   -1    0    0  503  502  0.00000000000E+00  0.00000000000E+00  0.29339493633E+02  0.29339493633E+02  0.00000000000E+00 0. -1.
         21   -1    0    0  501  503 -0.00000000000E+00 -0.00000000000E+00 -0.15280274644E+04  0.15280274644E+04  0.00000000000E+00 0.  1.
          6    1    1    2  501    0  0.53127381314E+02  0.92430760735E+02 -0.96805028922E+03  0.98914929442E+03  0.17300000000E+03 0.  1.
         -6    1    1    2    0  502 -0.53127381314E+02 -0.92430760735E+02 -0.53063768155E+03  0.56821766363E+03  0.17300000000E+03 0. -1.
</event>
<event>
 4    1  0.6031777E+000  0.1000000E+03  0.7546771E-02  0.1280296E+00
         21   -1    0    0  503  502  0.00000000000E+00  0.00000000000E+00  0.47388909377E+03  0.47388909377E+03  0.00000000000E+00 0. -1.
         21   -1    0    0  501  503 -0.00000000000E+00 -0.00000000000E+00 -0.11791107939E+03  0.11791107939E+03  0.00000000000E+00 0.  1.
          6    1    1    2  501    0  0.45525510144E+02  0.39552564049E+01 -0.15368317623E+02  0.17959231975E+03  0.17300000000E+03 0.  1.
         -6    1    1    2    0  502 -0.45525510144E+02 -0.39552564049E+01  0.37134633200E+03  0.41220785341E+03  0.17300000000E+03 0. -1.
</event>
<event>
 4    1  0.6031777E+000  0.1000000E+03  0.7546771E-02  0.1280296E+00
         21   -1    0    0  503  502  0.00000000000E+00  0.00000000000E+00  0.18065453454E+04  0.18065453454E+04  0.00000000000E+00 0. -1.
         21   -1    0    0  501  503 -0.00000000000E+00 -0.00000000000E+00 -0.31315634487E+02  0.31315634487E+02  0.00000000000E+00 0.  1.
          6    1    1    2  501    0 -0.12433237841E+03  0.55368501197E+02  0.53947557538E+03  0.58265522196E+03  0.17300000000E+03 0.  1.
         -6    1    1    2    0  502  0.12433237841E+03 -0.55368501197E+02  0.12357541355E+04  0.12552057579E+04  0.17300000000E+03 0. -1.
</event>
<event>
 4    1  0.6031777E+000  0.1000000E+03  0.7546771E-02  0.1280296E+00
         21   -1    0    0  503  502  0.00000000000E+00  0.00000000000E+00  0.33840511679E+02  0.33840511679E+02  0.00000000000E+00 0. -1.
         21   -1    0    0  501  503 -0.00000000000E+00 -0.00000000000E+00 -0.11569645201E+04  0.11569645201E+04  0.00000000000E+00 0.  1.
          6    1    1    2  501    0  0.15450919694E+02  0.93301993714E+02 -0.61184844095E+03  0.64283085462E+03  0.17300000000E+03 0.  1.
         -6    1    1    2    0  502 -0.15450919694E+02 -0.93301993714E+02 -0.51127556750E+03  0.54797417720E+03  0.17300000000E+03 0. -1.
</event>
<event>
 4    1  0.6031777E+000  0.1000000E+03  0.7546771E-02  0.1280296E+00
         21   -1    0    0  501  502  0.00000000000E+00  0.00000000000E+00  0.21194963327E+03  0.21194963327E+03  0.00000000000E+00 0. -1.
         21   -1    0    0  502  503 -0.00000000000E+00 -0.00000000000E+00 -0.50842171858E+03  0.50842171858E+03  0.00000000000E+00 0. -1.
          6    1    1    2  501    0  0.96812294114E+02 -0.22685736143E+03 -0.52002376105E+01  0.30131864396E+03  0.17300000000E+03 0. -1.
         -6    1    1    2    0  503 -0.96812294114E+02  0.22685736143E+03 -0.29127184770E+03  0.41905270789E+03  0.17300000000E+03 0. -1.
</event>
<event>
 4    1  0.6031777E+000  0.1000000E+03  0.7546771E-02  0.1280296E+00
         21   -1    0    0  501  502  0.00000000000E+00  0.00000000000E+00  0.10894680116E+03  0.10894680116E+03  0.00000000000E+00 0. -1.
         21   -1    0    0  502  503 -0.00000000000E+00 -0.00000000000E+00 -0.10747388414E+04  0.10747388414E+04  0.00000000000E+00 0. -1.
          6    1    1    2  501    0  0.89405590522E+02  0.17598709722E+02  0.28045123340E+01  0.19555035027E+03  0.17300000000E+03 0. -1.
         -6    1    1    2    0  503 -0.89405590522E+02 -0.17598709722E+02 -0.96859655258E+03  0.98813529229E+03  0.17300000000E+03 0. -1.
</event>
<event>
 4    1  0.6031777E+000  0.1000000E+03  0.7546771E-02  0.1280296E+00
         21   -1    0    0  501  502  0.00000000000E+00  0.00000000000E+00  0.60324945189E+03  0.60324945189E+03  0.00000000000E+00 0. -1.
         21   -1    0    0  502  503 -0.00000000000E+00 -0.00000000000E+00 -0.17351770252E+03  0.17351770252E+03  0.00000000000E+00 0. -1.
          6    1    1    2  501    0  0.25163083270E+03  0.86345551791E+01  0.34277234466E+03  0.45914541463E+03  0.17300000000E+03 0. -1.
         -6    1    1    2    0  503 -0.25163083270E+03 -0.86345551791E+01  0.86959404712E+02  0.31762173978E+03  0.17300000000E+03 0. -1.
</event>
<event>
 4    1  0.6031777E+000  0.1000000E+03  0.7546771E-02  0.1280296E+00
         21   -1    0    0  501  502  0.00000000000E+00  0.00000000000E+00  0.23140128277E+03  0.23140128277E+03  0.00000000000E+00 0. -1.
         21   -1    0    0  502  503 -0.00000000000E+00 -0.00000000000E+00 -0.24204741764E+03  0.24204741764E+03  0.00000000000E+00 0. -1.
          6    1    1    2  501    0  0.81373567144E+02 -0.12547325008E+03  0.55650442045E+02  0.23535327832E+03  0.17300000000E+03 0. -1.
         -6    1    1    2    0  503 -0.81373567144E+02  0.12547325008E+03 -0.66296576914E+02  0.23809542210E+03  0.17300000000E+03 0. -1.
</event>
<event>
 4    1  0.6031777E+000  0.1000000E+03  0.7546771E-02  0.1280296E+00
         21   -1    0    0  501  502  0.00000000000E+00  0.00000000000E+00  0.69926870851E+03  0.69926870851E+03  0.00000000000E+00 0. -1.
         21   -1    0    0  502  503 -0.00000000000E+00 -0.00000000000E+00 -0.13198032911E+03  0.13198032911E+03  0.00000000000E+00 0. -1.
          6    1    1    2  501    0 -0.13818249665E+03  0.89351453656E+02  0.54062753722E+03  0.59100356907E+03  0.17300000000E+03 0. -1.
         -6    1    1    2    0  503  0.13818249665E+03 -0.89351453656E+02  0.26660842182E+02  0.24024546855E+03  0.17300000000E+03 0. -1.
</event>
<event>
 4    1  0.6031777E+000  0.1000000E+03  0.7546771E-02  0.1280296E+00
         21   -1    0    0  501  502  0.00000000000E+00  0.00000000000E+00  0.27468037793E+02  0.27468037793E+02  0.00000000000E+00 0. -1.
         21   -1    0    0  502  503 -0.00000000000E+00 -0.00000000000E+00 -0.16997790658E+04  0.16997790658E+04  0.00000000000E+00 0. -1.
          6    1    1    2  501    0  0.40053711916E+02 -0.67394352759E+02 -0.42438045426E+03  0.46494523181E+03  0.17300000000E+03 0. -1.
         -6    1    1    2    0  503 -0.40053711916E+02  0.67394352759E+02 -0.12479305737E+04  0.12623018718E+04  0.17300000000E+03 0. -1.
</event>
<event>
 4    1  0.6031777E+000  0.1000000E+03  0.7546771E-02  0.1280296E+00
         21   -1    0    0  503  502  0.00000000000E+00  0.00000000000E+00  0.51934882722E+03  0.51934882722E+03  0.00000000000E+00 0. -1.
         21   -1    0    0  501  503 -0.00000000000E+00 -0.00000000000E+00 -0.85310654274E+02  0.85310654274E+02  0.00000000000E+00 0. -1.
          6    1    1    2  501    0 -0.85563590759E+02  0.57793798421E+02  0.30457231069E+03  0.36517741392E+03  0.17300000000E+03 0. -1.
         -6    1    1    2    0  502  0.85563590759E+02 -0.57793798421E+02  0.12946586226E+03  0.23948206758E+03  0.17300000000E+03 0. -1.
</event>
<event>
 4    1  0.6031777E+000  0.1000000E+03  0.7546771E-02  0.1280296E+00
         21   -1    0    0  503  502  0.00000000000E+00  0.00000000000E+00  0.22959754473E+03  0.22959754473E+03  0.00000000000E+00 0. -1.
         21   -1    0    0  501  503 -0.00000000000E+00 -0.00000000000E+00 -0.89324113736E+03  0.89324113736E+03  0.00000000000E+00 0. -1.
          6    1    1    2  501    0  0.23349954641E+03 -0.97351787694E+02 -0.74514415712E+03  0.80570976389E+03  0.17300000000E+03 0. -1.
         -6    1    1    2    0  502 -0.23349954641E+03  0.97351787694E+02  0.81500564498E+02  0.31712891819E+03  0.17300000000E+03 0. -1.
</event>
<event>
 4    1  0.6031777E+000  0.1000000E+03  0.7546771E-02  0.1280296E+00
         21   -1    0    0  503  502  0.00000000000E+00  0.00000000000E+00  0.37265173747E+03  0.37265173747E+03  0.00000000000E+00 0.  1.
         21   -1    0    0  501  503 -0.00000000000E+00 -0.00000000000E+00 -0.11039205140E+03  0.11039205140E+03  0.00000000000E+00 0.  1.
          6    1    1    2  501    0  0.22385721649E+02 -0.86784686983E+02  0.64020614427E+02  0.20508618067E+03  0.17300000000E+03 0.  1.
         -6    1    1    2    0  502 -0.22385721649E+02  0.86784686983E+02  0.19823907164E+03  0.27795760820E+03  0.17300000000E+03 0.  1.
</event>
<event>
 4    1  0.6031777E+000  0.1000000E+03  0.7546771E-02  0.1280296E+00
         21   -1    0    0  503  502  0.00000000000E+00  0.00000000000E+00  0.26565806532E+03  0.26565806532E+03  0.00000000000E+00 0.  1.
         21   -1    0    0  501  503 -0.00000000000E+00 -0.00000000000E+00 -0.35747696710E+03  0.35747696710E+03  0.00000000000E+00 0.  1.
          6    1    1    2  501    0 -0.10214042438E+03 -0.14974947378E+02 -0.28167976942E+03  0.34630825552E+03  0.17300000000E+03 0.  1.
         -6    1    1    2    0  502  0.10214042438E+03  0.14974947378E+02  0.18986086765E+03  0.27682677689E+03  0.17300000000E+03 0.  1.
</event>
<event>
 4    1  0.6031777E+000  0.1000000E+03  0.7546771E-02  0.1280296E+00
         21   -1    0    0  503  502  0.00000000000E+00  0.00000000000E+00  0.66006073535E+03  0.66006073535E+03  0.00000000000E+00 0.  1.
         21   -1    0    0  501  503 -0.00000000000E+00 -0.00000000000E+00 -0.76779914985E+02  0.76779914985E+02  0.00000000000E+00 0.  1.
          6    1    1    2  501    0 -0.97879710763E+02  0.10209212141E+03  0.24690648750E+03  0.33300908787E+03  0.17300000000E+03 0.  1.
         -6    1    1    2    0  502  0.97879710763E+02 -0.10209212141E+03  0.33637433287E+03  0.40383156247E+03  0.17300000000E+03 0.  1.
</event>
<event>
 4    1  0.6031777E+000  0.1000000E+03  0.7546771E-02  0.1280296E+00
         21   -1    0    0  501  502  0.00000000000E+00  0.00000000000E+00  0.48109368624E+02  0.48109368624E+02  0.00000000000E+00 0. -1.
         21   -1    0    0  502  503 -0.00000000000E+00 -0.00000000000E+00 -0.77086272935E+03  0.77086272935E+03  0.00000000000E+00 0.  1.
          6    1    1    2  501    0 -0.56420003071E+02  0.11375370402E+02 -0.22954090185E+03  0.29313928673E+03  0.17300000000E+03 0. -1.
         -6    1    1    2    0  503  0.56420003071E+02 -0.11375370402E+02 -0.49321245887E+03  0.52583281125E+03  0.17300000000E+03 0.  1.
</event>
<event>
 4    1  0.6031777E+000  0.1000000E+03  0.7546771E-02  0.1280296E+00
         21   -1    0    0  501  502  0.00000000000E+00  0.00000000000E+00  0.11669683628E+03  0.11669683628E+03  0.00000000000E+00 0.  1.
         21   -1    0    0  502  503 -0.00000000000E+00 -0.00000000000E+00 -0.10103222057E+04  0.10103222057E+04  0.00000000000E+00 0.  1.
          6    1    1    2  501    0 -0.14768811663E+03  0.83945197570E+02 -0.47800357097E+02  0.24712840817E+03  0.17300000000E+03 0.  1.
         -6    1    1    2    0  503  0.14768811663E+03 -0.83945197570E+02 -0.84582501229E+03  0.87989063377E+03  0.17300000000E+03 0.  1.
</event>
<event>
 4    1  0.6031777E+000  0.1000000E+03  0.7546771E-02  0.1280296E+00
         21   -1    0    0  501  502  0.00000000000E+00  0.00000000000E+00  0.45881696634E+03  0.45881696634E+03  0.00000000000E+00 0.  1.
         21   -1    0    0  502  503 -0.00000000000E+00 -0.00000000000E+00 -0.19232212163E+03  0.19232212163E+03  0.00000000000E+00 0.  1.
          6    1    1    2  501    0 -0.18691320996E+02  0.70282301353E+02  0.38561890215E+03  0.42885884048E+03  0.17300000000E+03 0.  1.
         -6    1    1    2    0  503  0.18691320996E+02 -0.70282301353E+02 -0.11912405744E+03  0.22228024749E+03  0.17300000000E+03 0.  1.
</event>
<event>
 4    1  0.6031777E+000  0.1000000E+03  0.7546771E-02  0.1280296E+00
         21   -1    0    0  503  502  0.00000000000E+00  0.00000000000E+00  0.40390437157E+03  0.40390437157E+03  0.00000000000E+00 0. -1.
         21   -1    0    0  501  503 -0.00000000000E+00 -0.00000000000E+00 -0.13290399016E+03  0.13290399016E+03  0.00000000000E+00 0. -1.
          6    1    1    2  501    0  0.68398466584E+02  0.75618394433E+02  0.16240723903E+01  0.20081864809E+03  0.17300000000E+03 0. -1.
         -6    1    1    2    0  502 -0.68398466584E+02 -0.75618394433E+02  0.26937630902E+03  0.33598971364E+03  0.17300000000E+03 0. -1.
</event>
<event>
 4    1  0.6031777E+000  0.1000000E+03  0.7546771E-02  0.1280296E+00
         21   -1    0    0  503  502  0.00000000000E+00  0.00000000000E+00  0.21530818900E+04  0.21530818900E+04  0.00000000000E+00 0. -1.
         21   -1    0    0  501  503 -0.00000000000E+00 -0.00000000000E+00 -0.36929758884E+03  0.36929758884E+03  0.00000000000E+00 0. -1.
          6    1    1    2  501    0  0.56724679165E+03  0.52286151978E+02 -0.47034280644E+02  0.59719677484E+03  0.17300000000E+03 0. -1.
         -6    1    1    2    0  502 -0.56724679165E+03 -0.52286151978E+02  0.18308185818E+04  0.19251827040E+04  0.17300000000E+03 0. -1.
</event>
<event>
 4    1  0.6031777E+000  0.1000000E+03  0.7546771E-02  0.1280296E+00
         21   -1    0    0  503  502  0.00000000000E+00  0.00000000000E+00  0.47036439940E+02  0.47036439940E+02  0.00000000000E+00 0. -1.
         21   -1    0    0  501  503 -0.00000000000E+00 -0.00000000000E+00 -0.11348368195E+04  0.11348368195E+04  0.00000000000E+00 0. -1.
          6    1    1    2  501    0  0.15152885105E+03 -0.20949685034E+02 -0.52585007694E+03  0.57432324123E+03  0.17300000000E+03 0. -1.
         -6    1    1    2    0  502 -0.15152885105E+03  0.20949685034E+02 -0.56195030259E+03  0.60755001817E+03  0.17300000000E+03 0. -1.
</event>
<event>
 4    1  0.6031777E+000  0.1000000E+03  0.7546771E-02  0.1280296E+00
         21   -1    0    0  501  502  0.00000000000E+00  0.00000000000E+00  0.11274689068E+04  0.11274689068E+04  0.00000000000E+00 0.  1.
         21   -1    0    0  502  503 -0.00000000000E+00 -0.00000000000E+00 -0.75795021438E+02  0.75795021438E+02  0.00000000000E+00 0. -1.
          6    1    1    2  501    0  0.54318832343E+02  0.12444510616E+03  0.92219627826E+03  0.94805701075E+03  0.17300000000E+03 0. -1.
         -6    1    1    2    0  503 -0.54318832343E+02 -0.12444510616E+03  0.12947760711E+03  0.25520691749E+03  0.17300000000E+03 0.  1.
</event>
<event>
 4    1  0.6031777E+000  0.1000000E+03  0.7546771E-02  0.1280296E+00
         21   -1    0    0  501  502  0.00000000000E+00  0.00000000000E+00  0.84490307506E+02  0.84490307506E+02  0.00000000000E+00 0.  1.
         21   -1    0    0  502  503 -0.00000000000E+00 -0.00000000000E+00 -0.80391475615E+03  0.80391475615E+03  0.00000000000E+00 0. -1.
          6    1    1    2  501    0  0.12601372816E+03  0.84949486762E+02 -0.15167623938E+03  0.27573638965E+03  0.17300000000E+03 0. -1.
         -6    1    1    2    0  503 -0.12601372816E+03 -0.84949486762E+02 -0.56774820926E+03  0.61266867400E+03  0.17300000000E+03 0.  1.
</event>
<event>
 4    1  0.6031777E+000  0.1000000E+03  0.7546771E-02  0.1280296E+00
         21   -1    0    0  501  502  0.00000000000E+00  0.00000000000E+00  0.69036572138E+02  0.69036572138E+02  0.00000000000E+00 0.  1.
         21   -1    0    0  502  503 -0.00000000000E+00 -0.00000000000E+00 -0.46066351215E+03  0.46066351215E+03  0.00000000000E+00 0.  1.
          6    1    1    2  501    0 -0.40283335062E+02 -0.94572800760E+01 -0.17694322476E+03  0.25089856918E+03  0.17300000000E+03 0.  1.
         -6    1    1    2    0  503  0.40283335062E+02  0.94572800760E+01 -0.21468371526E+03  0.27880151511E+03  0.17300000000E+03 0.  1.
</event>
<event>
 4    1  0.6031777E+000  0.1000000E+03  0.7546771E-02  0.1280296E+00
         21   -1    0    0  501  502  0.00000000000E+00  0.00000000000E+00  0.52867254157E+03  0.52867254157E+03  0.00000000000E+00 0.  1.
         21   -1    0    0  502  503 -0.00000000000E+00 -0.00000000000E+00 -0.77529484569E+03  0.77529484569E+03  0.00000000000E+00 0.  1.
          6    1    1    2  501    0  0.19517198587E+03  0.10989814774E+03  0.46150721644E+03  0.54137567157E+03  0.17300000000E+03 0.  1.
         -6    1    1    2    0  503 -0.19517198587E+03 -0.10989814774E+03 -0.70812952056E+03  0.76259171568E+03  0.17300000000E+03 0.  1.
</event>
<event>
 4    1  0.6031777E+000  0.1000000E+03  0.7546771E-02  0.1280296E+00
         21   -1    0    0  501  502  0.00000000000E+00  0.00000000000E+00  0.12660745633E+03  0.12660745633E+03  0.00000000000E+00 0.  1.
         21   -1    0    0  502  503 -0.00000000000E+00 -0.00000000000E+00 -0.54525488933E+03  0.54525488933E+03  0.00000000000E+00 0.  1.
          6    1    1    2  501    0 -0.11961383633E+03 -0.10995952561E+03 -0.65204686072E+02  0.24612845874E+03  0.17300000000E+03 0.  1.
         -6    1    1    2    0  503  0.11961383633E+03  0.10995952561E+03 -0.35344274694E+03  0.42573388692E+03  0.17300000000E+03 0.  1.
</event>
<event>
 4    1  0.6031777E+000  0.1000000E+03  0.7546771E-02  0.1280296E+00
         21   -1    0    0  503  502  0.00000000000E+00  0.00000000000E+00  0.59882875061E+03  0.59882875061E+03  0.00000000000E+00 0. -1.
         21   -1    0    0  501  503 -0.00000000000E+00 -0.00000000000E+00 -0.11972412307E+03  0.11972412307E+03  0.00000000000E+00 0. -1.
          6    1    1    2  501    0 -0.89919628802E+02 -0.88040057515E+02  0.23491214624E+02  0.21521484274E+03  0.17300000000E+03 0. -1.
         -6    1    1    2    0  502  0.89919628802E+02  0.88040057515E+02  0.45561341292E+03  0.50333803095E+03  0.17300000000E+03 0. -1.
</event>
<event>
 4    1  0.6031777E+000  0.1000000E+03  0.7546771E-02  0.1280296E+00
         21   -1    0    0  503  502  0.00000000000E+00  0.00000000000E+00  0.20469235544E+04  0.20469235544E+04  0.00000000000E+00 0. -1.
         21   -1    0    0  501  503 -0.00000000000E+00 -0.00000000000E+00 -0.17038068623E+02  0.17038068623E+02  0.00000000000E+00 0. -1.
          6    1    1    2  501    0 -0.50339886412E+02 -0.15871176506E+02  0.75808043196E+03  0.77935931362E+03  0.17300000000E+03 0. -1.
         -6    1    1    2    0  502  0.50339886412E+02  0.15871176506E+02  0.12718050539E+04  0.12846023094E+04  0.17300000000E+03 0. -1.
</event>
<event>
 4    1  0.6031777E+000  0.1000000E+03  0.7546771E-02  0.1280296E+00
         21   -1    0    0  503  502  0.00000000000E+00  0.00000000000E+00  0.29533782942E+02  0.29533782942E+02  0.00000000000E+00 0.  1.
         21   -1    0    0  501  503 -0.00000000000E+00 -0.00000000000E+00 -0.18212731175E+04  0.18212731175E+04  0.00000000000E+00 0.  1.
          6    1    1    2  501    0 -0.14787165778E+03  0.37451880718E+02 -0.99290501771E+03  0.10193419665E+04  0.17300000000E+03 0.  1.
         -6    1    1    2    0  502  0.14787165778E+03 -0.37451880718E+02 -0.79883431685E+03  0.83146493391E+03  0.17300000000E+03 0.  1.
</event>
<event>
 4    1  0.6031777E+000  0.1000000E+03  0.7546771E-02  0.1280296E+00
         21   -1    0    0  503  502  0.00000000000E+00  0.00000000000E+00  0.26523362374E+03  0.26523362374E+03  0.00000000000E+00 0.  1.
         21   -1    0    0  501  503 -0.00000000000E+00 -0.00000000000E+00 -0.39507331038E+03  0.39507331038E+03  0.00000000000E+00 0.  1.
          6    1    1    2  501    0  0.55064191243E+02  0.99051982449E+02 -0.31890531729E+03  0.38009599022E+03  0.17300000000E+03 0.  1.
         -6    1    1    2    0  502 -0.55064191243E+02 -0.99051982449E+02  0.18906563065E+03  0.28021094389E+03  0.17300000000E+03 0.  1.
</event>
<event>
 4    1  0.6031777E+000  0.1000000E+03  0.7546771E-02  0.1280296E+00
         21   -1    0    0  503  502  0.00000000000E+00  0.00000000000E+00  0.70702645733E+02  0.70702645733E+02  0.00000000000E+00 0.  1.
         21   -1    0    0  501  503 -0.00000000000E+00 -0.00000000000E+00 -0.25739250811E+04  0.25739250811E+04  0.00000000000E+00 0.  1.
          6    1    1    2  501    0  0.22592265925E+03 -0.56852499851E+02 -0.22208842608E+04  0.22397609592E+04  0.17300000000E+03 0.  1.
         -6    1    1    2    0  502 -0.22592265925E+03  0.56852499851E+02 -0.28233817466E+03  0.40486676768E+03  0.17300000000E+03 0.  1.
</event>
<event>
 4    1  0.6031777E+000  0.1000000E+03  0.7546771E-02  0.1280296E+00
         21   -1    0    0  503  502  0.00000000000E+00  0.00000000000E+00  0.25086235396E+03  0.25086235396E+03  0.00000000000E+00 0. -1.
         21   -1    0    0  501  503 -0.00000000000E+00 -0.00000000000E+00 -0.24525487133E+03  0.24525487133E+03  0.00000000000E+00 0.  1.
          6    1    1    2  501    0 -0.10902463645E+02 -0.10496915158E+02 -0.17431535175E+03  0.24605668208E+03  0.17300000000E+03 0.  1.
         -6    1    1    2    0  502  0.10902463645E+02  0.10496915158E+02  0.17992283438E+03  0.25006054321E+03  0.17300000000E+03 0. -1.
</event>
<event>
 4    1  0.6031777E+000  0.1000000E+03  0.7546771E-02  0.1280296E+00
         21   -1    0    0  503  502  0.00000000000E+00  0.00000000000E+00  0.35960663107E+03  0.35960663107E+03  0.00000000000E+00 0. -1.
         21   -1    0    0  501  503 -0.00000000000E+00 -0.00000000000E+00 -0.95397547037E+02  0.95397547037E+02  0.00000000000E+00 0.  1.
          6    1    1    2  501    0  0.28045213228E+02  0.91812498125E+01  0.59377805046E+02  0.18527156572E+03  0.17300000000E+03 0.  1.
         -6    1    1    2    0  502 -0.28045213228E+02 -0.91812498125E+01  0.20483127899E+03  0.26973261239E+03  0.17300000000E+03 0. -1.
</event>
<event>
 4    1  0.6031777E+000  0.1000000E+03  0.7546771E-02  0.1280296E+00
         21   -1    0    0  501  502  0.00000000000E+00  0.00000000000E+00  0.50340088058E+03  0.50340088058E+03  0.00000000000E+00 0.  1.
         21   -1    0    0  502  503 -0.00000000000E+00 -0.00000000000E+00 -0.10972432068E+03  0.10972432068E+03  0.00000000000E+00 0.  1.
          6    1    1    2  501    0  0.24419544425E+02 -0.12525400699E+03  0.32073181644E+03  0.38611239102E+03  0.17300000000E+03 0.  1.
         -6    1    1    2    0  503 -0.24419544425E+02  0.12525400699E+03  0.72944743452E+02  0.22701281024E+03  0.17300000000E+03 0.  1.
</event>
<event>
 4    1  0.6031777E+000  0.1000000E+03  0.7546771E-02  0.1280296E+00
         21   -1    0    0  501  502  0.00000000000E+00  0.00000000000E+00  0.80759052124E+02  0.80759052124E+02  0.00000000000E+00 0.  1.
         21   -1    0    0  502  503 -0.00000000000E+00 -0.00000000000E+00 -0.13613320173E+04  0.13613320173E+04  0.00000000000E+00 0.  1.
          6    1    1    2  501    0  0.21117025663E+03 -0.90806223078E+01 -0.10490677384E+04  0.10840421831E+04  0.17300000000E+03 0.  1.
         -6    1    1    2    0  503 -0.21117025663E+03  0.90806223078E+01 -0.23150522682E+03  0.35804888637E+03  0.17300000000E+03 0.  1.
</event>
<event>
 4    1  0.6031777E+000  0.1000000E+03  0.7546771E-02  0.1280296E+00
         21   -1    0    0  503  502  0.00000000000E+00  0.00000000000E+00  0.39078934082E+03  0.39078934082E+03  0.00000000000E+00 0. -1.
         21   -1    0    0  501  503 -0.00000000000E+00 -0.00000000000E+00 -0.19359657420E+03  0.19359657420E+03  0.00000000000E+00 0. -1.
          6    1    1    2  501    0  0.86746204430E+02  0.13055550708E+03 -0.55920125389E+02  0.24005354577E+03  0.17300000000E+03 0. -1.
         -6    1    1    2    0  502 -0.86746204430E+02 -0.13055550708E+03  0.25311289201E+03  0.34433236925E+03  0.17300000000E+03 0. -1.
</event>
<event>
 4    1  0.6031777E+000  0.1000000E+03  0.7546771E-02  0.1280296E+00
         21   -1    0    0  501  502  0.00000000000E+00  0.00000000000E+00  0.46576058078E+02  0.46576058078E+02  0.00000000000E+00 0.  1.
         21   -1    0    0  502  503 -0.00000000000E+00 -0.00000000000E+00 -0.14269177592E+04  0.14269177592E+04  0.00000000000E+00 0.  1.
          6    1    1    2  501    0  0.11334524261E+03 -0.11513485196E+03 -0.39833506561E+03  0.46336055362E+03  0.17300000000E+03 0.  1.
         -6    1    1    2    0  503 -0.11334524261E+03  0.11513485196E+03 -0.98200663550E+03  0.10101332636E+04  0.17300000000E+03 0.  1.
</event>
<event>
 4    1  0.6031777E+000  0.1000000E+03  0.7546771E-02  0.1280296E+00
         21   -1    0    0  501  502  0.00000000000E+00  0.00000000000E+00  0.15023935742E+03  0.15023935742E+03  0.00000000000E+00 0. -1.
         21   -1    0    0  502  503 -0.00000000000E+00 -0.00000000000E+00 -0.85521555803E+03  0.85521555803E+03  0.00000000000E+00 0. -1.
          6    1    1    2  501    0  0.24978491153E+03 -0.39182833615E+02 -0.91493995503E+02  0.31973105525E+03  0.17300000000E+03 0. -1.
         -6    1    1    2    0  503 -0.24978491153E+03  0.39182833615E+02 -0.61348220510E+03  0.68572386020E+03  0.17300000000E+03 0. -1.
</event>
<event>
 4    1  0.6031777E+000  0.1000000E+03  0.7546771E-02  0.1280296E+00
         21   -1    0    0  501  502  0.00000000000E+00  0.00000000000E+00  0.37048871968E+02  0.37048871968E+02  0.00000000000E+00 0. -1.
         21   -1    0    0  502  503 -0.00000000000E+00 -0.00000000000E+00 -0.93993048283E+03  0.93993048283E+03  0.00000000000E+00 0. -1.
          6    1    1    2  501    0 -0.19292830584E+02  0.47984224214E+02 -0.32811222033E+03  0.37451479038E+03  0.17300000000E+03 0. -1.
         -6    1    1    2    0  503  0.19292830584E+02 -0.47984224214E+02 -0.57476939053E+03  0.60246456442E+03  0.17300000000E+03 0. -1.
</event>
<event>
 4    1  0.6031777E+000  0.1000000E+03  0.7546771E-02  0.1280296E+00
         21   -1    0    0  501  502  0.00000000000E+00  0.00000000000E+00  0.20341883030E+03  0.20341883030E+03  0.00000000000E+00 0. -1.
         21   -1    0    0  502  503 -0.00000000000E+00 -0.00000000000E+00 -0.17543075752E+03  0.17543075752E+03  0.00000000000E+00 0. -1.
          6    1    1    2  501    0  0.56980833395E+02 -0.48843116840E+02  0.28075703484E+01  0.18859837722E+03  0.17300000000E+03 0. -1.
         -6    1    1    2    0  503 -0.56980833395E+02  0.48843116840E+02  0.25180502431E+02  0.19025121061E+03  0.17300000000E+03 0. -1.
</event>
<event>
 4    1  0.6031777E+000  0.1000000E+03  0.7546771E-02  0.1280296E+00
         21   -1    0    0  501  502  0.00000000000E+00  0.00000000000E+00  0.19178664117E+03  0.19178664117E+03  0.00000000000E+00 0. -1.
         21   -1    0    0  502  503 -0.00000000000E+00 -0.00000000000E+00 -0.41341593371E+03  0.41341593371E+03  0.00000000000E+00 0. -1.
          6    1    1    2  501    0 -0.10265145497E+03  0.12804343284E+03  0.50118664355E+02  0.24366641627E+03  0.17300000000E+03 0. -1.
         -6    1    1    2    0  503  0.10265145497E+03 -0.12804343284E+03 -0.27174795689E+03  0.36153615860E+03  0.17300000000E+03 0. -1.
</event>
<event>
 4    1  0.6031777E+000  0.1000000E+03  0.7546771E-02  0.1280296E+00
         21   -1    0    0  501  502  0.00000000000E+00  0.00000000000E+00  0.51577807492E+02  0.51577807492E+02  0.00000000000E+00 0. -1.
         21   -1    0    0  502  503 -0.00000000000E+00 -0.00000000000E+00 -0.11510463647E+04  0.11510463647E+04  0.00000000000E+00 0. -1.
          6    1    1    2  501    0 -0.11107597311E+03  0.12646597748E+03 -0.46758973009E+03  0.52621352220E+03  0.17300000000E+03 0. -1.
         -6    1    1    2    0  503  0.11107597311E+03 -0.12646597748E+03 -0.63187882714E+03  0.67641065002E+03  0.17300000000E+03 0. -1.
</event>
<event>
 4    1  0.6031777E+000  0.1000000E+03  0.7546771E-02  0.1280296E+00
         21   -1    0    0  501  502  0.00000000000E+00  0.00000000000E+00  0.96943556306E+02  0.96943556306E+02  0.00000000000E+00 0. -1.
         21   -1    0    0  502  503 -0.00000000000E+00 -0.00000000000E+00 -0.42308499920E+03  0.42308499920E+03  0.00000000000E+00 0. -1.
          6    1    1    2  501    0 -0.66506608271E+01  0.87130221299E+02 -0.23848650751E+03  0.30731209058E+03  0.17300000000E+03 0. -1.
         -6    1    1    2    0  503  0.66506608271E+01 -0.87130221299E+02 -0.87654935385E+02  0.21271646493E+03  0.17300000000E+03 0. -1.
</event>
<event>
 4    1  0.6031777E+000  0.1000000E+03  0.7546771E-02  0.1280296E+00
         21   -1    0    0  501  502  0.00000000000E+00  0.00000000000E+00  0.80157872375E+03  0.80157872375E+03  0.00000000000E+00 0. -1.
         21   -1    0    0  502  503 -0.00000000000E+00 -0.00000000000E+00 -0.98416370251E+02  0.98416370251E+02  0.00000000000E+00 0. -1.
          6    1    1    2  501    0 -0.97786816295E+02 -0.19425847193E+03  0.41687453336E+03  0.50101096986E+03  0.17300000000E+03 0. -1.
         -6    1    1    2    0  503  0.97786816295E+02  0.19425847193E+03  0.28628782014E+03  0.39898412414E+03  0.17300000000E+03 0. -1.
</event>
<event>
 4    1  0.6031777E+000  0.1000000E+03  0.7546771E-02  0.1280296E+00
         21   -1    0    0  501  502  0.00000000000E+00  0.00000000000E+00  0.13333940076E+03  0.13333940076E+03  0.00000000000E+00 0.  1.
         21   -1    0    0  502  503 -0.00000000000E+00 -0.00000000000E+00 -0.47083966459E+03  0.47083966459E+03  0.00000000000E+00 0.  1.
          6    1    1    2  501    0  0.16486600859E+03  0.35212238004E+02 -0.88488345967E+02  0.25725452351E+03  0.17300000000E+03 0.  1.
         -6    1    1    2    0  503 -0.16486600859E+03 -0.35212238004E+02 -0.24901191787E+03  0.34692454185E+03  0.17300000000E+03 0.  1.
</event>
<event>
 4    1  0.6031777E+000  0.1000000E+03  0.7546771E-02  0.1280296E+00
         21   -1    0    0  501  502  0.00000000000E+00  0.00000000000E+00  0.18693542641E+04  0.18693542641E+04  0.00000000000E+00 0.  1.
         21   -1    0    0  502  503 -0.00000000000E+00 -0.00000000000E+00 -0.38653951414E+02  0.38653951414E+02  0.00000000000E+00 0.  1.
          6    1    1    2  501    0  0.11626926124E+03 -0.74707463980E+02  0.14562594633E+04  0.14729970709E+04  0.17300000000E+03 0.  1.
         -6    1    1    2    0  503 -0.11626926124E+03  0.74707463980E+02  0.37444084931E+03  0.43501114458E+03  0.17300000000E+03 0.  1.
</event>
<event>
 4    1  0.6031777E+000  0.1000000E+03  0.7546771E-02  0.1280296E+00
         21   -1    0    0  503  502  0.00000000000E+00  0.00000000000E+00  0.22012215525E+03  0.22012215525E+03  0.00000000000E+00 0.  1.
         21   -1    0    0  501  503 -0.00000000000E+00 -0.00000000000E+00 -0.19499974768E+03  0.19499974768E+03  0.00000000000E+00 0.  1.
          6    1    1    2  501    0 -0.69770817218E+02 -0.89490488662E+02  0.16669432226E+01  0.20690165102E+03  0.17300000000E+03 0.  1.
         -6    1    1    2    0  502  0.69770817218E+02  0.89490488662E+02  0.23455464347E+02  0.20822025191E+03  0.17300000000E+03 0.  1.
</event>
<event>
 4    1  0.6031777E+000  0.1000000E+03  0.7546771E-02  0.1280296E+00
         21   -1    0    0  503  502  0.00000000000E+00  0.00000000000E+00  0.68815573798E+03  0.68815573798E+03  0.00000000000E+00 0.  1.
         21   -1    0    0  501  503 -0.00000000000E+00 -0.00000000000E+00 -0.72213321704E+02  0.72213321704E+02  0.00000000000E+00 0.  1.
          6    1    1    2  501    0  0.11841932816E+03  0.10116210529E+02  0.43604613759E+03  0.48393254603E+03  0.17300000000E+03 0.  1.
         -6    1    1    2    0  502 -0.11841932816E+03 -0.10116210529E+02  0.17989627868E+03  0.27643651365E+03  0.17300000000E+03 0.  1.
</event>
<event>
 4    1  0.6031777E+000  0.1000000E+03  0.7546771E-02  0.1280296E+00
         21   -1    0    0  501  502  0.00000000000E+00  0.00000000000E+00  0.39505935765E+02  0.39505935765E+02  0.00000000000E+00 0.  1.
         21   -1    0    0  502  503 -0.00000000000E+00 -0.00000000000E+00 -0.22245941884E+04  0.22245941884E+04  0.00000000000E+00 0.  1.
          6    1    1    2  501    0 -0.99601213077E+02 -0.75801958290E+00 -0.25561902548E+03  0.32433171665E+03  0.17300000000E+03 0.  1.
         -6    1    1    2    0  503  0.99601213077E+02  0.75801958290E+00 -0.19294692271E+04  0.19397684075E+04  0.17300000000E+03 0.  1.
</event>
<event>
 4    1  0.6031777E+000  0.1000000E+03  0.7546771E-02  0.1280296E+00
         21   -1    0    0  501  502  0.00000000000E+00  0.00000000000E+00  0.62559661185E+02  0.62559661185E+02  0.00000000000E+00 0.  1.
         21   -1    0    0  502  503 -0.00000000000E+00 -0.00000000000E+00 -0.18599864005E+04  0.18599864005E+04  0.00000000000E+00 0.  1.
          6    1    1    2  501    0 -0.18208752318E+03  0.13451124276E+03 -0.37014057185E+03  0.46709975750E+03  0.17300000000E+03 0.  1.
         -6    1    1    2    0  503  0.18208752318E+03 -0.13451124276E+03 -0.14272861674E+04  0.14554463042E+04  0.17300000000E+03 0.  1.
</event>
<event>
 4    1  0.6031777E+000  0.1000000E+03  0.7546771E-02  0.1280296E+00
         21   -1    0    0  503  502  0.00000000000E+00  0.00000000000E+00  0.30585692147E+03  0.30585692147E+03  0.00000000000E+00 0. -1.
         21   -1    0    0  501  503 -0.00000000000E+00 -0.00000000000E+00 -0.30624859623E+03  0.30624859623E+03  0.00000000000E+00 0. -1.
          6    1    1    2  501    0  0.18868394823E+03  0.12607809084E+03 -0.11083914061E+03  0.30612355741E+03  0.17300000000E+03 0. -1.
         -6    1    1    2    0  502 -0.18868394823E+03 -0.12607809084E+03  0.11044746586E+03  0.30598196029E+03  0.17300000000E+03 0. -1.
</event>
<event>
 4    1  0.6031777E+000  0.1000000E+03  0.7546771E-02  0.1280296E+00
         21   -1    0    0  503  502  0.00000000000E+00  0.00000000000E+00  0.99988820517E+03  0.99988820517E+03  0.00000000000E+00 0. -1.
         21   -1    0    0  501  503 -0.00000000000E+00 -0.00000000000E+00 -0.34928234118E+02  0.34928234118E+02  0.00000000000E+00 0. -1.
          6    1    1    2  501    0  0.27365300397E+02  0.55176196478E+02  0.38648869798E+03  0.42789693384E+03  0.17300000000E+03 0. -1.
         -6    1    1    2    0  502 -0.27365300397E+02 -0.55176196478E+02  0.57847127308E+03  0.60691950545E+03  0.17300000000E+03 0. -1.
</event>
<event>
 4    1  0.6031777E+000  0.1000000E+03  0.7546771E-02  0.1280296E+00
         21   -1    0    0  503  502  0.00000000000E+00  0.00000000000E+00  0.16659187779E+03  0.16659187779E+03  0.00000000000E+00 0.  1.
         21   -1    0    0  501  503 -0.00000000000E+00 -0.00000000000E+00 -0.27294757615E+03  0.27294757615E+03  0.00000000000E+00 0.  1.
          6    1    1    2  501    0  0.21716754836E+02 -0.21128050352E+02 -0.17781055079E+03  0.24992719725E+03  0.17300000000E+03 0.  1.
         -6    1    1    2    0  502 -0.21716754836E+02  0.21128050352E+02  0.71454852426E+02  0.18961225669E+03  0.17300000000E+03 0.  1.
</event>
<event>
 4    1  0.6031777E+000  0.1000000E+03  0.7546771E-02  0.1280296E+00
         21   -1    0    0  503  502  0.00000000000E+00  0.00000000000E+00  0.17431040012E+04  0.17431040012E+04  0.00000000000E+00 0.  1.
         21   -1    0    0  501  503 -0.00000000000E+00 -0.00000000000E+00 -0.28987567387E+02  0.28987567387E+02  0.00000000000E+00 0.  1.
          6    1    1    2  501    0 -0.40911267807E+02  0.12443388736E+03  0.62580768563E+03  0.66236076540E+03  0.17300000000E+03 0.  1.
         -6    1    1    2    0  502  0.40911267807E+02 -0.12443388736E+03  0.10883087482E+04  0.11097308032E+04  0.17300000000E+03 0.  1.
</event>
<event>
 4    1  0.6031777E+000  0.1000000E+03  0.7546771E-02  0.1280296E+00
         21   -1    0    0  503  502  0.00000000000E+00  0.00000000000E+00  0.92200768412E+02  0.92200768412E+02  0.00000000000E+00 0.  1.
         21   -1    0    0  501  503 -0.00000000000E+00 -0.00000000000E+00 -0.55790640901E+03  0.55790640901E+03  0.00000000000E+00 0.  1.
          6    1    1    2  501    0 -0.37769474965E+02 -0.60357022352E+02 -0.41662076739E+03  0.45669614319E+03  0.17300000000E+03 0.  1.
         -6    1    1    2    0  502  0.37769474965E+02  0.60357022352E+02 -0.49084873217E+02  0.19341103424E+03  0.17300000000E+03 0.  1.
</event>
<event>
 4    1  0.6031777E+000  0.1000000E+03  0.7546771E-02  0.1280296E+00
         21   -1    0    0  503  502  0.00000000000E+00  0.00000000000E+00  0.71326110899E+02  0.71326110899E+02  0.00000000000E+00 0.  1.
         21   -1    0    0  501  503 -0.00000000000E+00 -0.00000000000E+00 -0.52169694965E+03  0.52169694965E+03  0.00000000000E+00 0.  1.
          6    1    1    2  501    0 -0.22092309243E+02 -0.75236743890E+02 -0.27692449435E+03  0.33580472499E+03  0.17300000000E+03 0.  1.
         -6    1    1    2    0  502  0.22092309243E+02  0.75236743890E+02 -0.17344634441E+03  0.25721833556E+03  0.17300000000E+03 0.  1.
</event>
<event>
 4    1  0.6031777E+000  0.1000000E+03  0.7546771E-02  0.1280296E+00
         21   -1    0    0  503  502  0.00000000000E+00  0.00000000000E+00  0.10850139834E+03  0.10850139834E+03  0.00000000000E+00 0.  1.
         21   -1    0    0  501  503 -0.00000000000E+00 -0.00000000000E+00 -0.68933025012E+03  0.68933025012E+03  0.00000000000E+00 0.  1.
          6    1    1    2  501    0 -0.15584223941E+03 -0.13798232139E+03 -0.34762555703E+03  0.44056605918E+03  0.17300000000E+03 0.  1.
         -6    1    1    2    0  502  0.15584223941E+03  0.13798232139E+03 -0.23320329475E+03  0.35726558928E+03  0.17300000000E+03 0.  1.
</event>
<event>
 4    1  0.6031777E+000  0.1000000E+03  0.7546771E-02  0.1280296E+00
         21   -1    0    0  503  502  0.00000000000E+00  0.00000000000E+00  0.92033823694E+03  0.92033823694E+03  0.00000000000E+00 0.  1.
         21   -1    0    0  501  503 -0.00000000000E+00 -0.00000000000E+00 -0.75457069158E+02  0.75457069158E+02  0.00000000000E+00 0.  1.
          6    1    1    2  501    0 -0.59678491293E+02  0.45412509711E+02  0.74606035362E+02  0.20277790529E+03  0.17300000000E+03 0.  1.
         -6    1    1    2    0  502  0.59678491293E+02 -0.45412509711E+02  0.77027513242E+03  0.79301740081E+03  0.17300000000E+03 0.  1.
</event>
<event>
 4    1  0.6031777E+000  0.1000000E+03  0.7546771E-02  0.1280296E+00
         21   -1    0    0  501  502  0.00000000000E+00  0.00000000000E+00  0.18443779213E+03  0.18443779213E+03  0.00000000000E+00 0.  1.
         21   -1    0    0  502  503 -0.00000000000E+00 -0.00000000000E+00 -0.44525790932E+03  0.44525790932E+03  0.00000000000E+00 0.  1.
          6    1    1    2  501    0 -0.63494943120E+02 -0.61353171905E+02  0.10108916353E+03  0.21896081496E+03  0.17300000000E+03 0.  1.
         -6    1    1    2    0  503  0.63494943120E+02  0.61353171905E+02 -0.36190928073E+03  0.41073488649E+03  0.17300000000E+03 0.  1.
</event>
<event>
 4    1  0.6031777E+000  0.1000000E+03  0.7546771E-02  0.1280296E+00
         21   -1    0    0  501  502  0.00000000000E+00  0.00000000000E+00  0.34432007435E+03  0.34432007435E+03  0.00000000000E+00 0. -1.
         21   -1    0    0  502  503 -0.00000000000E+00 -0.00000000000E+00 -0.33725629975E+03  0.33725629975E+03  0.00000000000E+00 0. -1.
          6    1    1    2  501    0  0.17178282073E+02 -0.54921025754E+02  0.29144264649E+03  0.34377205913E+03  0.17300000000E+03 0. -1.
         -6    1    1    2    0  503 -0.17178282073E+02  0.54921025754E+02 -0.28437887188E+03  0.33780431498E+03  0.17300000000E+03 0. -1.
</event>
<event>
 4    1  0.6031777E+000  0.1000000E+03  0.7546771E-02  0.1280296E+00
         21   -1    0    0  501  502  0.00000000000E+00  0.00000000000E+00  0.32485547204E+03  0.32485547204E+03  0.00000000000E+00 0.  1.
         21   -1    0    0  502  503 -0.00000000000E+00 -0.00000000000E+00 -0.16471109758E+03  0.16471109758E+03  0.00000000000E+00 0. -1.
          6    1    1    2  501    0 -0.11173044103E+03 -0.24487199660E+01  0.19150519703E+03  0.28123464966E+03  0.17300000000E+03 0. -1.
         -6    1    1    2    0  503  0.11173044103E+03  0.24487199660E+01 -0.31360822571E+02  0.20833191996E+03  0.17300000000E+03 0.  1.
</event>
<event>
 4    1  0.6031777E+000  0.1000000E+03  0.7546771E-02  0.1280296E+00
         21   -1    0    0  501  502  0.00000000000E+00  0.00000000000E+00  0.63232526867E+03  0.63232526867E+03  0.00000000000E+00 0.  1.
         21   -1    0    0  502  503 -0.00000000000E+00 -0.00000000000E+00 -0.18398355075E+03  0.18398355075E+03  0.00000000000E+00 0. -1.
          6    1    1    2  501    0 -0.31564595774E+02 -0.14620755276E+02  0.57345618333E+03  0.59999257028E+03  0.17300000000E+03 0. -1.
         -6    1    1    2    0  503  0.31564595774E+02  0.14620755276E+02 -0.12511446541E+03  0.21631624915E+03  0.17300000000E+03 0.  1.
</event>
<event>
 4    1  0.6031777E+000  0.1000000E+03  0.7546771E-02  0.1280296E+00
         21   -1    0    0  501  502  0.00000000000E+00  0.00000000000E+00  0.62371508599E+02  0.62371508599E+02  0.00000000000E+00 0.  1.
         21   -1    0    0  502  503 -0.00000000000E+00 -0.00000000000E+00 -0.73494903421E+03  0.73494903421E+03  0.00000000000E+00 0. -1.
          6    1    1    2  501    0 -0.11979221246E+03 -0.35383581941E+02 -0.30357314368E+03  0.37106310191E+03  0.17300000000E+03 0. -1.
         -6    1    1    2    0  503  0.11979221246E+03  0.35383581941E+02 -0.36900438193E+03  0.42625744090E+03  0.17300000000E+03 0.  1.
</event>
<event>
 4    1  0.6031777E+000  0.1000000E+03  0.7546771E-02  0.1280296E+00
         21   -1    0    0  503  502  0.00000000000E+00  0.00000000000E+00  0.17097763648E+04  0.17097763648E+04  0.00000000000E+00 0. -1.
         21   -1    0    0  501  503 -0.00000000000E+00 -0.00000000000E+00 -0.54333609511E+02  0.54333609511E+02  0.00000000000E+00 0.  1.
          6    1    1    2  501    0  0.23948700432E+03 -0.58624759524E+02  0.69264982289E+03  0.75530369046E+03  0.17300000000E+03 0.  1.
         -6    1    1    2    0  502 -0.23948700432E+03  0.58624759524E+02  0.96279293240E+03  0.10088062839E+04  0.17300000000E+03 0. -1.
</event>
<event>
 4    1  0.6031777E+000  0.1000000E+03  0.7546771E-02  0.1280296E+00
         21   -1    0    0  503  502  0.00000000000E+00  0.00000000000E+00  0.16312400346E+03  0.16312400346E+03  0.00000000000E+00 0. -1.
         21   -1    0    0  501  503 -0.00000000000E+00 -0.00000000000E+00 -0.20116317130E+03  0.20116317130E+03  0.00000000000E+00 0.  1.
          6    1    1    2  501    0 -0.38551638235E+01  0.11827385744E+02  0.33524650025E+02  0.17665687505E+03  0.17300000000E+03 0.  1.
         -6    1    1    2    0  502  0.38551638235E+01 -0.11827385744E+02 -0.71563817864E+02  0.18763029971E+03  0.17300000000E+03 0. -1.
</event>
<event>
 4    1  0.6031777E+000  0.1000000E+03  0.7546771E-02  0.1280296E+00
         21   -1    0    0  501  502  0.00000000000E+00  0.00000000000E+00  0.92310209679E+03  0.92310209679E+03  0.00000000000E+00 0. -1.
         21   -1    0    0  502  503 -0.00000000000E+00 -0.00000000000E+00 -0.58764651506E+02  0.58764651506E+02  0.00000000000E+00 0. -1.
          6    1    1    2  501    0  0.49466835172E+02  0.80871198267E+02  0.69314785894E+03  0.72067334684E+03  0.17300000000E+03 0. -1.
         -6    1    1    2    0  503 -0.49466835172E+02 -0.80871198267E+02  0.17118958634E+03  0.26119340145E+03  0.17300000000E+03 0. -1.
</event>
<event>
 4    1  0.6031777E+000  0.1000000E+03  0.7546771E-02  0.1280296E+00
         21   -1    0    0  501  502  0.00000000000E+00  0.00000000000E+00  0.73021198618E+02  0.73021198618E+02  0.00000000000E+00 0. -1.
         21   -1    0    0  502  503 -0.00000000000E+00 -0.00000000000E+00 -0.83078636251E+03  0.83078636251E+03  0.00000000000E+00 0. -1.
          6    1    1    2  501    0 -0.19150512632E+02 -0.81719423893E+02 -0.96478848425E+02  0.21513245819E+03  0.17300000000E+03 0. -1.
         -6    1    1    2    0  503  0.19150512632E+02  0.81719423893E+02 -0.66128631547E+03  0.68867510293E+03  0.17300000000E+03 0. -1.
</event>
<event>
 4    1  0.6031777E+000  0.1000000E+03  0.7546771E-02  0.1280296E+00
         21   -1    0    0  501  502  0.00000000000E+00  0.00000000000E+00  0.12300725298E+03  0.12300725298E+03  0.00000000000E+00 0. -1.
         21   -1    0    0  502  503 -0.00000000000E+00 -0.00000000000E+00 -0.46190262246E+03  0.46190262246E+03  0.00000000000E+00 0. -1.
          6    1    1    2  501    0 -0.13977604073E+02 -0.73027883494E+01  0.30807050049E+02  0.17642782792E+03  0.17300000000E+03 0. -1.
         -6    1    1    2    0  503  0.13977604073E+02  0.73027883494E+01 -0.36970241954E+03  0.40848204752E+03  0.17300000000E+03 0. -1.
</event>
<event>
 4    1  0.6031777E+000  0.1000000E+03  0.7546771E-02  0.1280296E+00
         21   -1    0    0  501  502  0.00000000000E+00  0.00000000000E+00  0.60979619675E+03  0.60979619675E+03  0.00000000000E+00 0. -1.
         21   -1    0    0  502  503 -0.00000000000E+00 -0.00000000000E+00 -0.89625781606E+02  0.89625781606E+02  0.00000000000E+00 0.  1.
          6    1    1    2  501    0  0.73370008645E+02 -0.20848151383E+02  0.46577267011E+03  0.50268378113E+03  0.17300000000E+03 0. -1.
         -6    1    1    2    0  503 -0.73370008645E+02  0.20848151383E+02  0.54397745032E+02  0.19673819723E+03  0.17300000000E+03 0.  1.
</event>
<event>
 4    1  0.6031777E+000  0.1000000E+03  0.7546771E-02  0.1280296E+00
         21   -1    0    0  501  502  0.00000000000E+00  0.00000000000E+00  0.81254439751E+02  0.81254439751E+02  0.00000000000E+00 0. -1.
         21   -1    0    0  502  503 -0.00000000000E+00 -0.00000000000E+00 -0.55903945774E+03  0.55903945774E+03  0.00000000000E+00 0.  1.
          6    1    1    2  501    0 -0.43926551400E+02 -0.56345492385E+01 -0.64141358149E+02  0.18974826452E+03  0.17300000000E+03 0. -1.
         -6    1    1    2    0  503  0.43926551400E+02  0.56345492385E+01 -0.41364365984E+03  0.45054563297E+03  0.17300000000E+03 0.  1.
</event>
<event>
 4    1  0.6031777E+000  0.1000000E+03  0.7546771E-02  0.1280296E+00
         21   -1    0    0  501  502  0.00000000000E+00  0.00000000000E+00  0.24431330004E+03  0.24431330004E+03  0.00000000000E+00 0. -1.
         21   -1    0    0  502  503 -0.00000000000E+00 -0.00000000000E+00 -0.90075059315E+03  0.90075059315E+03  0.00000000000E+00 0.  1.
          6    1    1    2  501    0  0.32500318907E+03  0.13159052973E+03 -0.11854991571E+02  0.39116835410E+03  0.17300000000E+03 0. -1.
         -6    1    1    2    0  503 -0.32500318907E+03 -0.13159052973E+03 -0.64458230153E+03  0.75389553910E+03  0.17300000000E+03 0.  1.
</event>
<event>
 4    1  0.6031777E+000  0.1000000E+03  0.7546771E-02  0.1280296E+00
         21   -1    0    0  503  502  0.00000000000E+00  0.00000000000E+00  0.29236629799E+03  0.29236629799E+03  0.00000000000E+00 0.  1.
         21   -1    0    0  501  503 -0.00000000000E+00 -0.00000000000E+00 -0.13137370235E+03  0.13137370235E+03  0.00000000000E+00 0. -1.
          6    1    1    2  501    0  0.24194097746E+02 -0.80390504839E+02  0.12140934468E+03  0.22741419615E+03  0.17300000000E+03 0. -1.
         -6    1    1    2    0  502 -0.24194097746E+02  0.80390504839E+02  0.39583250951E+02  0.19632580419E+03  0.17300000000E+03 0.  1.
</event>
<event>
 4    1  0.6031777E+000  0.1000000E+03  0.7546771E-02  0.1280296E+00
         21   -1    0    0  501  502  0.00000000000E+00  0.00000000000E+00  0.35400554888E+04  0.35400554888E+04  0.00000000000E+00 0.  1.
         21   -1    0    0  502  503 -0.00000000000E+00 -0.00000000000E+00 -0.68618258825E+02  0.68618258825E+02  0.00000000000E+00 0. -1.
          6    1    1    2  501    0 -0.28514760204E+03  0.34915058702E+03  0.20975440107E+04  0.21524021845E+04  0.17300000000E+03 0. -1.
         -6    1    1    2    0  503  0.28514760204E+03 -0.34915058702E+03  0.13738932194E+04  0.14562715631E+04  0.17300000000E+03 0.  1.
</event>
<event>
 4    1  0.6031777E+000  0.1000000E+03  0.7546771E-02  0.1280296E+00
         21   -1    0    0  501  502  0.00000000000E+00  0.00000000000E+00  0.65510023645E+03  0.65510023645E+03  0.00000000000E+00 0.  1.
         21   -1    0    0  502  503 -0.00000000000E+00 -0.00000000000E+00 -0.80490793327E+02  0.80490793327E+02  0.00000000000E+00 0. -1.
          6    1    1    2  501    0 -0.35262701835E+02 -0.69194331089E+02  0.49471770179E+03  0.52981687219E+03  0.17300000000E+03 0. -1.
         -6    1    1    2    0  503  0.35262701835E+02  0.69194331089E+02  0.79891741329E+02  0.20577415758E+03  0.17300000000E+03 0.  1.
</event>
<event>
 4    1  0.6031777E+000  0.1000000E+03  0.7546771E-02  0.1280296E+00
         21   -1    0    0  503  502  0.00000000000E+00  0.00000000000E+00  0.73053760257E+02  0.73053760257E+02  0.00000000000E+00 0. -1.
         21   -1    0    0  501  503 -0.00000000000E+00 -0.00000000000E+00 -0.44525589238E+03  0.44525589238E+03  0.00000000000E+00 0. -1.
          6    1    1    2  501    0  0.33017736066E+02  0.35733192671E+02 -0.20796803736E+03  0.27485766592E+03  0.17300000000E+03 0. -1.
         -6    1    1    2    0  502 -0.33017736066E+02 -0.35733192671E+02 -0.16423409477E+03  0.24345198672E+03  0.17300000000E+03 0. -1.
</event>
<event>
 4    1  0.6031777E+000  0.1000000E+03  0.7546771E-02  0.1280296E+00
         21   -1    0    0  503  502  0.00000000000E+00  0.00000000000E+00  0.57380699266E+02  0.57380699266E+02  0.00000000000E+00 0. -1.
         21   -1    0    0  501  503 -0.00000000000E+00 -0.00000000000E+00 -0.11381688378E+04  0.11381688378E+04  0.00000000000E+00 0. -1.
          6    1    1    2  501    0  0.72437061071E+02 -0.51281064858E+02 -0.92831367758E+03  0.94845777946E+03  0.17300000000E+03 0. -1.
         -6    1    1    2    0  502 -0.72437061071E+02  0.51281064858E+02 -0.15247446092E+03  0.24709175758E+03  0.17300000000E+03 0. -1.
</event>
<event>
 4    1  0.6031777E+000  0.1000000E+03  0.7546771E-02  0.1280296E+00
         21   -1    0    0  503  502  0.00000000000E+00  0.00000000000E+00  0.28596833908E+03  0.28596833908E+03  0.00000000000E+00 0. -1.
         21   -1    0    0  501  503 -0.00000000000E+00 -0.00000000000E+00 -0.29711716940E+03  0.29711716940E+03  0.00000000000E+00 0. -1.
          6    1    1    2  501    0  0.74965934604E+02  0.10943372142E+01 -0.22791219225E+03  0.29579394230E+03  0.17300000000E+03 0. -1.
         -6    1    1    2    0  502 -0.74965934604E+02 -0.10943372142E+01  0.21676336193E+03  0.28729156618E+03  0.17300000000E+03 0. -1.
</event>
<event>
 4    1  0.6031777E+000  0.1000000E+03  0.7546771E-02  0.1280296E+00
         21   -1    0    0  503  502  0.00000000000E+00  0.00000000000E+00  0.14188164058E+04  0.14188164058E+04  0.00000000000E+00 0.  1.
         21   -1    0    0  501  503 -0.00000000000E+00 -0.00000000000E+00 -0.44446455530E+02  0.44446455530E+02  0.00000000000E+00 0. -1.
          6    1    1    2  501    0 -0.42267261326E+02 -0.50766886276E+02  0.19302249798E+03  0.26748922006E+03  0.17300000000E+03 0. -1.
         -6    1    1    2    0  502  0.42267261326E+02  0.50766886276E+02  0.11813474523E+04  0.11957736412E+04  0.17300000000E+03 0.  1.
</event>
<event>
 4    1  0.6031777E+000  0.1000000E+03  0.7546771E-02  0.1280296E+00
         21   -1    0    0  503  502  0.00000000000E+00  0.00000000000E+00  0.42142793162E+02  0.42142793162E+02  0.00000000000E+00 0. -1.
         21   -1    0    0  501  503 -0.00000000000E+00 -0.00000000000E+00 -0.83013872625E+03  0.83013872625E+03  0.00000000000E+00 0. -1.
          6    1    1    2  501    0 -0.62412371051E+02 -0.33279499265E+02 -0.41089911176E+03  0.45140880494E+03  0.17300000000E+03 0. -1.
         -6    1    1    2    0  502  0.62412371051E+02  0.33279499265E+02 -0.37709682133E+03  0.42087271447E+03  0.17300000000E+03 0. -1.
</event>
<event>
 4    1  0.6031777E+000  0.1000000E+03  0.7546771E-02  0.1280296E+00
         21   -1    0    0  503  502  0.00000000000E+00  0.00000000000E+00  0.10087301394E+04  0.10087301394E+04  0.00000000000E+00 0.  1.
         21   -1    0    0  501  503 -0.00000000000E+00 -0.00000000000E+00 -0.45966154861E+02  0.45966154861E+02  0.00000000000E+00 0. -1.
          6    1    1    2  501    0  0.45615987803E+02  0.47481676302E+02  0.21195601341E+03  0.28140660893E+03  0.17300000000E+03 0.  1.
         -6    1    1    2    0  502 -0.45615987803E+02 -0.47481676302E+02  0.75080797109E+03  0.77328968529E+03  0.17300000000E+03 0. -1.
</event>
<event>
 4    1  0.6031777E+000  0.1000000E+03  0.7546771E-02  0.1280296E+00
         21   -1    0    0  503  502  0.00000000000E+00  0.00000000000E+00  0.48315770814E+03  0.48315770814E+03  0.00000000000E+00 0.  1.
         21   -1    0    0  501  503 -0.00000000000E+00 -0.00000000000E+00 -0.30832312602E+03  0.30832312602E+03  0.00000000000E+00 0. -1.
          6    1    1    2  501    0 -0.13823820625E+03  0.20098088427E+02 -0.23605053408E+03  0.32428781887E+03  0.17300000000E+03 0. -1.
         -6    1    1    2    0  502  0.13823820625E+03 -0.20098088427E+02  0.41088511619E+03  0.46719301529E+03  0.17300000000E+03 0.  1.
</event>
<event>
 4    1  0.6031777E+000  0.1000000E+03  0.7546771E-02  0.1280296E+00
         21   -1    0    0  501  502  0.00000000000E+00  0.00000000000E+00  0.19650879472E+04  0.19650879472E+04  0.00000000000E+00 0. -1.
         21   -1    0    0  502  503 -0.00000000000E+00 -0.00000000000E+00 -0.23057366548E+02  0.23057366548E+02  0.00000000000E+00 0.  1.
          6    1    1    2  501    0 -0.88350696024E+01  0.27916496980E+02  0.15338176234E+04  0.15438208740E+04  0.17300000000E+03 0.  1.
         -6    1    1    2    0  503  0.88350696024E+01 -0.27916496980E+02  0.40821295729E+03  0.44432443975E+03  0.17300000000E+03 0. -1.
</event>
<event>
 4    1  0.6031777E+000  0.1000000E+03  0.7546771E-02  0.1280296E+00
         21   -1    0    0  503  502  0.00000000000E+00  0.00000000000E+00  0.42489402233E+03  0.42489402233E+03  0.00000000000E+00 0. -1.
         21   -1    0    0  501  503 -0.00000000000E+00 -0.00000000000E+00 -0.10521867134E+03  0.10521867134E+03  0.00000000000E+00 0. -1.
          6    1    1    2  501    0 -0.18157067674E+01  0.14118362974E+02  0.84961354255E+01  0.17379243160E+03  0.17300000000E+03 0. -1.
         -6    1    1    2    0  502  0.18157067674E+01 -0.14118362974E+02  0.31117921557E+03  0.35632026208E+03  0.17300000000E+03 0. -1.
</event>
<event>
 4    1  0.6031777E+000  0.1000000E+03  0.7546771E-02  0.1280296E+00
         21   -1    0    0  501  502  0.00000000000E+00  0.00000000000E+00  0.14732401545E+04  0.14732401545E+04  0.00000000000E+00 0. -1.
         21   -1    0    0  502  503 -0.00000000000E+00 -0.00000000000E+00 -0.21526719421E+02  0.21526719421E+02  0.00000000000E+00 0. -1.
          6    1    1    2  501    0 -0.17130559597E+02  0.30510410918E+02  0.82523184616E+03  0.84389628579E+03  0.17300000000E+03 0. -1.
         -6    1    1    2    0  503  0.17130559597E+02 -0.30510410918E+02  0.62648158893E+03  0.65087058815E+03  0.17300000000E+03 0. -1.
</event>
<event>
 4    1  0.6031777E+000  0.1000000E+03  0.7546771E-02  0.1280296E+00
         21   -1    0    0  501  502  0.00000000000E+00  0.00000000000E+00  0.16260635340E+03  0.16260635340E+03  0.00000000000E+00 0. -1.
         21   -1    0    0  502  503 -0.00000000000E+00 -0.00000000000E+00 -0.35924049082E+03  0.35924049082E+03  0.00000000000E+00 0. -1.
          6    1    1    2  501    0 -0.26987887857E+02 -0.71451955782E+02  0.64165023926E+02  0.19969947013E+03  0.17300000000E+03 0. -1.
         -6    1    1    2    0  503  0.26987887857E+02  0.71451955782E+02 -0.26079916135E+03  0.32214737409E+03  0.17300000000E+03 0. -1.
</event>
<event>
 4    1  0.6031777E+000  0.1000000E+03  0.7546771E-02  0.1280296E+00
         21   -1    0    0  503  502  0.00000000000E+00  0.00000000000E+00  0.40221949417E+03  0.40221949417E+03  0.00000000000E+00 0. -1.
         21   -1    0    0  501  503 -0.00000000000E+00 -0.00000000000E+00 -0.12566887250E+03  0.12566887250E+03  0.00000000000E+00 0. -1.
          6    1    1    2  501    0 -0.58386431801E+01 -0.75467808273E+02  0.28152204190E+03  0.33898840675E+03  0.17300000000E+03 0. -1.
         -6    1    1    2    0  502  0.58386431801E+01  0.75467808273E+02 -0.49714202283E+01  0.18889995992E+03  0.17300000000E+03 0. -1.
</event>
<event>
 4    1  0.6031777E+000  0.1000000E+03  0.7546771E-02  0.1280296E+00
         21   -1    0    0  501  502  0.00000000000E+00  0.00000000000E+00  0.20318093245E+03  0.20318093245E+03  0.00000000000E+00 0.  1.
         21   -1    0    0  502  503 -0.00000000000E+00 -0.00000000000E+00 -0.18437937569E+03  0.18437937569E+03  0.00000000000E+00 0.  1.
          6    1    1    2  501    0 -0.13089066835E+02 -0.16829678471E+02  0.93635633492E+02  0.19786660559E+03  0.17300000000E+03 0.  1.
         -6    1    1    2    0  503  0.13089066835E+02  0.16829678471E+02 -0.74834076729E+02  0.18969370255E+03  0.17300000000E+03 0.  1.
</event>
<event>
 4    1  0.6031777E+000  0.1000000E+03  0.7546771E-02  0.1280296E+00
         21   -1    0    0  501  502  0.00000000000E+00  0.00000000000E+00  0.15020340681E+04  0.15020340681E+04  0.00000000000E+00 0.  1.
         21   -1    0    0  502  503 -0.00000000000E+00 -0.00000000000E+00 -0.34173738884E+02  0.34173738884E+02  0.00000000000E+00 0.  1.
          6    1    1    2  501    0  0.11577491650E+03  0.84124418931E+02  0.83678276326E+03  0.86638048342E+03  0.17300000000E+03 0.  1.
         -6    1    1    2    0  503 -0.11577491650E+03 -0.84124418931E+02  0.63107756597E+03  0.66982732358E+03  0.17300000000E+03 0.  1.
</event>
<event>
 4    1  0.6031777E+000  0.1000000E+03  0.7546771E-02  0.1280296E+00
         21   -1    0    0  501  502  0.00000000000E+00  0.00000000000E+00  0.11964459826E+03  0.11964459826E+03  0.00000000000E+00 0.  1.
         21   -1    0    0  502  503 -0.00000000000E+00 -0.00000000000E+00 -0.59805568544E+03  0.59805568544E+03  0.00000000000E+00 0.  1.
          6    1    1    2  501    0 -0.14851488431E+03 -0.24713857205E+02 -0.54496383878E+02  0.23572505479E+03  0.17300000000E+03 0.  1.
         -6    1    1    2    0  503  0.14851488431E+03  0.24713857205E+02 -0.42391470331E+03  0.48197522891E+03  0.17300000000E+03 0.  1.
</event>
<event>
 4    1  0.6031777E+000  0.1000000E+03  0.7546771E-02  0.1280296E+00
         21   -1    0    0  501  502  0.00000000000E+00  0.00000000000E+00  0.80133585315E+02  0.80133585315E+02  0.00000000000E+00 0.  1.
         21   -1    0    0  502  503 -0.00000000000E+00 -0.00000000000E+00 -0.12701870590E+04  0.12701870590E+04  0.00000000000E+00 0.  1.
          6    1    1    2  501    0  0.19823255374E+03 -0.87755930020E+02 -0.26136813913E+03  0.38110307368E+03  0.17300000000E+03 0.  1.
         -6    1    1    2    0  503 -0.19823255374E+03  0.87755930020E+02 -0.92868533452E+03  0.96921757061E+03  0.17300000000E+03 0.  1.
</event>
<event>
 4    1  0.6031777E+000  0.1000000E+03  0.7546771E-02  0.1280296E+00
         21   -1    0    0  501  502  0.00000000000E+00  0.00000000000E+00  0.50013549397E+03  0.50013549397E+03  0.00000000000E+00 0.  1.
         21   -1    0    0  502  503 -0.00000000000E+00 -0.00000000000E+00 -0.10337064147E+03  0.10337064147E+03  0.00000000000E+00 0.  1.
          6    1    1    2  501    0  0.22420366232E+02  0.62888564621E+02  0.37300139999E+03  0.41655334446E+03  0.17300000000E+03 0.  1.
         -6    1    1    2    0  503 -0.22420366232E+02 -0.62888564621E+02  0.23763452503E+02  0.18695279098E+03  0.17300000000E+03 0.  1.
</event>
<event>
 4    1  0.6031777E+000  0.1000000E+03  0.7546771E-02  0.1280296E+00
         21   -1    0    0  501  502  0.00000000000E+00  0.00000000000E+00  0.78338197952E+02  0.78338197952E+02  0.00000000000E+00 0.  1.
         21   -1    0    0  502  503 -0.00000000000E+00 -0.00000000000E+00 -0.14994649224E+04  0.14994649224E+04  0.00000000000E+00 0.  1.
          6    1    1    2  501    0 -0.17435656876E+02  0.12917835440E+03 -0.99196341781E+02  0.23824349645E+03  0.17300000000E+03 0.  1.
         -6    1    1    2    0  503  0.17435656876E+02 -0.12917835440E+03 -0.13219303826E+04  0.13395596239E+04  0.17300000000E+03 0.  1.
</event>
<event>
 4    1  0.6031777E+000  0.1000000E+03  0.7546771E-02  0.1280296E+00
         21   -1    0    0  503  502  0.00000000000E+00  0.00000000000E+00  0.13603186439E+03  0.13603186439E+03  0.00000000000E+00 0. -1.
         21   -1    0    0  501  503 -0.00000000000E+00 -0.00000000000E+00 -0.34423119417E+03  0.34423119417E+03  0.00000000000E+00 0. -1.
          6    1    1    2  501    0 -0.33046226808E+02  0.13402498845E+02 -0.24281482330E+03  0.30026607949E+03  0.17300000000E+03 0. -1.
         -6    1    1    2    0  502  0.33046226808E+02 -0.13402498845E+02  0.34615493522E+02  0.17999697907E+03  0.17300000000E+03 0. -1.
</event>
<event>
 4    1  0.6031777E+000  0.1000000E+03  0.7546771E-02  0.1280296E+00
         21   -1    0    0  503  502  0.00000000000E+00  0.00000000000E+00  0.33690906826E+03  0.33690906826E+03  0.00000000000E+00 0. -1.
         21   -1    0    0  501  503 -0.00000000000E+00 -0.00000000000E+00 -0.23096554034E+03  0.23096554034E+03  0.00000000000E+00 0. -1.
          6    1    1    2  501    0 -0.11973808640E+02  0.20881191640E+03 -0.12517711844E+02  0.27171949072E+03  0.17300000000E+03 0. -1.
         -6    1    1    2    0  502  0.11973808640E+02 -0.20881191640E+03  0.11846123976E+03  0.29615511789E+03  0.17300000000E+03 0. -1.
</event>
<event>
 4    1  0.6031777E+000  0.1000000E+03  0.7546771E-02  0.1280296E+00
         21   -1    0    0  503  502  0.00000000000E+00  0.00000000000E+00  0.71603304560E+03  0.71603304560E+03  0.00000000000E+00 0. -1.
         21   -1    0    0  501  503 -0.00000000000E+00 -0.00000000000E+00 -0.18521882134E+03  0.18521882134E+03  0.00000000000E+00 0. -1.
          6    1    1    2  501    0  0.17640582634E+03  0.14793437806E+03 -0.10423502585E+02  0.28816877899E+03  0.17300000000E+03 0. -1.
         -6    1    1    2    0  502 -0.17640582634E+03 -0.14793437806E+03  0.54123772684E+03  0.61308308795E+03  0.17300000000E+03 0. -1.
</event>
<event>
 4    1  0.6031777E+000  0.1000000E+03  0.7546771E-02  0.1280296E+00
         21   -1    0    0  503  502  0.00000000000E+00  0.00000000000E+00  0.64186083691E+03  0.64186083691E+03  0.00000000000E+00 0. -1.
         21   -1    0    0  501  503 -0.00000000000E+00 -0.00000000000E+00 -0.19223862104E+03  0.19223862104E+03  0.00000000000E+00 0. -1.
          6    1    1    2  501    0  0.28172903964E+02  0.23444539453E+03 -0.57231841730E+01  0.29277996921E+03  0.17300000000E+03 0. -1.
         -6    1    1    2    0  502 -0.28172903964E+02 -0.23444539453E+03  0.45534540004E+03  0.54131948873E+03  0.17300000000E+03 0. -1.
</event>
<event>
 4    1  0.6031777E+000  0.1000000E+03  0.7546771E-02  0.1280296E+00
         21   -1    0    0  503  502  0.00000000000E+00  0.00000000000E+00  0.13433180191E+03  0.13433180191E+03  0.00000000000E+00 0. -1.
         21   -1    0    0  501  503 -0.00000000000E+00 -0.00000000000E+00 -0.32530507515E+03  0.32530507515E+03  0.00000000000E+00 0. -1.
          6    1    1    2  501    0 -0.51823335486E+02  0.34391985584E+02 -0.20488157787E+03  0.27527064450E+03  0.17300000000E+03 0. -1.
         -6    1    1    2    0  502  0.51823335486E+02 -0.34391985584E+02  0.13908304624E+02  0.18436623257E+03  0.17300000000E+03 0. -1.
</event>
<event>
 4    1  0.6031777E+000  0.1000000E+03  0.7546771E-02  0.1280296E+00
         21   -1    0    0  503  502  0.00000000000E+00  0.00000000000E+00  0.31584939259E+02  0.31584939259E+02  0.00000000000E+00 0. -1.
         21   -1    0    0  501  503 -0.00000000000E+00 -0.00000000000E+00 -0.23213737556E+04  0.23213737556E+04  0.00000000000E+00 0. -1.
          6    1    1    2  501    0 -0.26039035073E+02 -0.82289915584E+02 -0.19685991874E+04  0.19780701257E+04  0.17300000000E+03 0. -1.
         -6    1    1    2    0  502  0.26039035073E+02  0.82289915584E+02 -0.32118962901E+03  0.37488856923E+03  0.17300000000E+03 0. -1.
</event>
<event>
 4    1  0.6031777E+000  0.1000000E+03  0.7546771E-02  0.1280296E+00
         21   -1    0    0  501  502  0.00000000000E+00  0.00000000000E+00  0.96737551507E+03  0.96737551507E+03  0.00000000000E+00 0. -1.
         21   -1    0    0  502  503 -0.00000000000E+00 -0.00000000000E+00 -0.49536603851E+02  0.49536603851E+02  0.00000000000E+00 0. -1.
          6    1    1    2  501    0 -0.67561012478E+02  0.10305181857E+02  0.72699555291E+03  0.75041469944E+03  0.17300000000E+03 0. -1.
         -6    1    1    2    0  503  0.67561012478E+02 -0.10305181857E+02  0.19084335831E+03  0.26649741948E+03  0.17300000000E+03 0. -1.
</event>
<event>
 4    1  0.6031777E+000  0.1000000E+03  0.7546771E-02  0.1280296E+00
         21   -1    0    0  501  502  0.00000000000E+00  0.00000000000E+00  0.83893707732E+03  0.83893707732E+03  0.00000000000E+00 0. -1.
         21   -1    0    0  502  503 -0.00000000000E+00 -0.00000000000E+00 -0.17592129462E+03  0.17592129462E+03  0.00000000000E+00 0. -1.
          6    1    1    2  501    0 -0.83761890540E+02  0.15337774545E+03  0.72136303766E+03  0.76212493674E+03  0.17300000000E+03 0. -1.
         -6    1    1    2    0  503  0.83761890540E+02 -0.15337774545E+03 -0.58347254965E+02  0.25273343520E+03  0.17300000000E+03 0. -1.
</event>
<event>
 4    1  0.6031777E+000  0.1000000E+03  0.7546771E-02  0.1280296E+00
         21   -1    0    0  503  502  0.00000000000E+00  0.00000000000E+00  0.62920709412E+03  0.62920709412E+03  0.00000000000E+00 0.  1.
         21   -1    0    0  501  503 -0.00000000000E+00 -0.00000000000E+00 -0.57588692290E+02  0.57588692290E+02  0.00000000000E+00 0.  1.
          6    1    1    2  501    0 -0.51003756167E+02  0.51634249522E+02  0.34395047799E+03  0.39178873156E+03  0.17300000000E+03 0.  1.
         -6    1    1    2    0  502  0.51003756167E+02 -0.51634249522E+02  0.22766792384E+03  0.29500705485E+03  0.17300000000E+03 0.  1.
</event>
<event>
 4    1  0.6031777E+000  0.1000000E+03  0.7546771E-02  0.1280296E+00
         21   -1    0    0  503  502  0.00000000000E+00  0.00000000000E+00  0.20978644241E+03  0.20978644241E+03  0.00000000000E+00 0.  1.
         21   -1    0    0  501  503 -0.00000000000E+00 -0.00000000000E+00 -0.15948372642E+03  0.15948372642E+03  0.00000000000E+00 0.  1.
          6    1    1    2  501    0 -0.48291434181E+02 -0.47109553783E+01 -0.94386707112E+01  0.17992316199E+03  0.17300000000E+03 0.  1.
         -6    1    1    2    0  502  0.48291434181E+02  0.47109553783E+01  0.59741386705E+02  0.18934700685E+03  0.17300000000E+03 0.  1.
</event>
<event>
 4    1  0.6031777E+000  0.1000000E+03  0.7546771E-02  0.1280296E+00
         21   -1    0    0  503  502  0.00000000000E+00  0.00000000000E+00  0.38936893284E+03  0.38936893284E+03  0.00000000000E+00 0. -1.
         21   -1    0    0  501  503 -0.00000000000E+00 -0.00000000000E+00 -0.94437060029E+02  0.94437060029E+02  0.00000000000E+00 0. -1.
          6    1    1    2  501    0  0.29206600597E+02  0.77384728323E+02  0.14663335396E+03  0.24139544774E+03  0.17300000000E+03 0. -1.
         -6    1    1    2    0  502 -0.29206600597E+02 -0.77384728323E+02  0.14829851885E+03  0.24241054513E+03  0.17300000000E+03 0. -1.
</event>
<event>
 4    1  0.6031777E+000  0.1000000E+03  0.7546771E-02  0.1280296E+00
         21   -1    0    0  503  502  0.00000000000E+00  0.00000000000E+00  0.28436007620E+03  0.28436007620E+03  0.00000000000E+00 0. -1.
         21   -1    0    0  501  503 -0.00000000000E+00 -0.00000000000E+00 -0.33322198329E+03  0.33322198329E+03  0.00000000000E+00 0. -1.
          6    1    1    2  501    0  0.64819336874E+02 -0.67466363206E+02 -0.26197248678E+03  0.32758485989E+03  0.17300000000E+03 0. -1.
         -6    1    1    2    0  502 -0.64819336874E+02  0.67466363206E+02  0.21311057969E+03  0.28999719960E+03  0.17300000000E+03 0. -1.
</event>
<event>
 4    1  0.6031777E+000  0.1000000E+03  0.7546771E-02  0.1280296E+00
         21   -1    0    0  501  502  0.00000000000E+00  0.00000000000E+00  0.13856339690E+03  0.13856339690E+03  0.00000000000E+00 0. -1.
         21   -1    0    0  502  503 -0.00000000000E+00 -0.00000000000E+00 -0.45595138969E+03  0.45595138969E+03  0.00000000000E+00 0.  1.
          6    1    1    2  501    0 -0.89565130652E+02 -0.68554759706E+02  0.10746503013E+02  0.20679979457E+03  0.17300000000E+03 0. -1.
         -6    1    1    2    0  503  0.89565130652E+02  0.68554759706E+02 -0.32813449580E+03  0.38771499202E+03  0.17300000000E+03 0.  1.
</event>
<event>
 4    1  0.6031777E+000  0.1000000E+03  0.7546771E-02  0.1280296E+00
         21   -1    0    0  501  502  0.00000000000E+00  0.00000000000E+00  0.36870882822E+03  0.36870882822E+03  0.00000000000E+00 0. -1.
         21   -1    0    0  502  503 -0.00000000000E+00 -0.00000000000E+00 -0.14563526611E+03  0.14563526611E+03  0.00000000000E+00 0. -1.
          6    1    1    2  501    0  0.85641232179E+02  0.98960748664E+02  0.20197342976E+03  0.29639486627E+03  0.17300000000E+03 0.  1.
         -6    1    1    2    0  503 -0.85641232179E+02 -0.98960748664E+02  0.21100132346E+02  0.21794922806E+03  0.17300000000E+03 0.  1.
</event>
<event>
 4    1  0.6031777E+000  0.1000000E+03  0.7546771E-02  0.1280296E+00
         21   -1    0    0  503  502  0.00000000000E+00  0.00000000000E+00  0.26001014277E+03  0.26001014277E+03  0.00000000000E+00 0.  1.
         21   -1    0    0  501  503 -0.00000000000E+00 -0.00000000000E+00 -0.16628719253E+03  0.16628719253E+03  0.00000000000E+00 0. -1.
          6    1    1    2  501    0  0.24372411958E+01 -0.11375478319E+03  0.27377771288E+02  0.20886510767E+03  0.17300000000E+03 0. -1.
         -6    1    1    2    0  502 -0.24372411958E+01  0.11375478319E+03  0.66345178954E+02  0.21743222763E+03  0.17300000000E+03 0.  1.
</event>
<event>
 4    1  0.6031777E+000  0.1000000E+03  0.7546771E-02  0.1280296E+00
         21   -1    0    0  501  502  0.00000000000E+00  0.00000000000E+00  0.15638638211E+03  0.15638638211E+03  0.00000000000E+00 0. -1.
         21   -1    0    0  502  503 -0.00000000000E+00 -0.00000000000E+00 -0.43268362014E+03  0.43268362014E+03  0.00000000000E+00 0.  1.
          6    1    1    2  501    0 -0.16782603667E+03  0.73236434573E+02 -0.21159546625E+03  0.32898449092E+03  0.17300000000E+03 0. -1.
         -6    1    1    2    0  503  0.16782603667E+03 -0.73236434573E+02 -0.64701771779E+02  0.26008551133E+03  0.17300000000E+03 0.  1.
</event>
<event>
 4    1  0.6031777E+000  0.1000000E+03  0.7546771E-02  0.1280296E+00
         21   -1    0    0  501  502  0.00000000000E+00  0.00000000000E+00  0.15037735987E+03  0.15037735987E+03  0.00000000000E+00 0. -1.
         21   -1    0    0  502  503 -0.00000000000E+00 -0.00000000000E+00 -0.38635440915E+03  0.38635440915E+03  0.00000000000E+00 0.  1.
          6    1    1    2  501    0  0.76268509956E+02  0.94017360880E+02  0.11440591708E+02  0.21146166768E+03  0.17300000000E+03 0. -1.
         -6    1    1    2    0  503 -0.76268509956E+02 -0.94017360880E+02 -0.24741764099E+03  0.32527010135E+03  0.17300000000E+03 0.  1.
</event>
<event>
 4    1  0.6031777E+000  0.1000000E+03  0.7546771E-02  0.1280296E+00
         21   -1    0    0  501  502  0.00000000000E+00  0.00000000000E+00  0.16588739325E+02  0.16588739325E+02  0.00000000000E+00 0. -1.
         21   -1    0    0  502  503 -0.00000000000E+00 -0.00000000000E+00 -0.21830906828E+04  0.21830906828E+04  0.00000000000E+00 0.  1.
          6    1    1    2  501    0  0.61273447577E+02 -0.13108315250E+02 -0.13639836896E+04  0.13763381738E+04  0.17300000000E+03 0. -1.
         -6    1    1    2    0  503 -0.61273447577E+02  0.13108315250E+02 -0.80251825393E+03  0.82334124833E+03  0.17300000000E+03 0.  1.
</event>
<event>
 4    1  0.6031777E+000  0.1000000E+03  0.7546771E-02  0.1280296E+00
         21   -1    0    0  503  502  0.00000000000E+00  0.00000000000E+00  0.99362958285E+03  0.99362958285E+03  0.00000000000E+00 0. -1.
         21   -1    0    0  501  503 -0.00000000000E+00 -0.00000000000E+00 -0.11255007287E+03  0.11255007287E+03  0.00000000000E+00 0.  1.
          6    1    1    2  501    0  0.19742907715E+03 -0.19383027468E+03  0.31950300055E+03  0.45668324170E+03  0.17300000000E+03 0.  1.
         -6    1    1    2    0  502 -0.19742907715E+03  0.19383027468E+03  0.56157650943E+03  0.64949641402E+03  0.17300000000E+03 0. -1.
</event>
<event>
 4    1  0.6031777E+000  0.1000000E+03  0.7546771E-02  0.1280296E+00
         21   -1    0    0  503  502  0.00000000000E+00  0.00000000000E+00  0.14775710882E+03  0.14775710882E+03  0.00000000000E+00 0. -1.
         21   -1    0    0  501  503 -0.00000000000E+00 -0.00000000000E+00 -0.12804053168E+04  0.12804053168E+04  0.00000000000E+00 0.  1.
          6    1    1    2  501    0 -0.11435083144E+03 -0.78209301863E+02 -0.11807476822E+04  0.12013687596E+04  0.17300000000E+03 0.  1.
         -6    1    1    2    0  502  0.11435083144E+03  0.78209301863E+02  0.48099474176E+02  0.22679366606E+03  0.17300000000E+03 0. -1.
</event>
<event>
 4    1  0.6031777E+000  0.1000000E+03  0.7546771E-02  0.1280296E+00
         21   -1    0    0  501  502  0.00000000000E+00  0.00000000000E+00  0.23612661436E+03  0.23612661436E+03  0.00000000000E+00 0.  1.
         21   -1    0    0  502  503 -0.00000000000E+00 -0.00000000000E+00 -0.13200481839E+04  0.13200481839E+04  0.00000000000E+00 0.  1.
          6    1    1    2  501    0  0.68240204914E+02  0.31095807141E+03  0.50010696234E+02  0.36576183163E+03  0.17300000000E+03 0.  1.
         -6    1    1    2    0  503 -0.68240204914E+02 -0.31095807141E+03 -0.11339322657E+04  0.11904129666E+04  0.17300000000E+03 0.  1.
</event>
<event>
 4    1  0.6031777E+000  0.1000000E+03  0.7546771E-02  0.1280296E+00
         21   -1    0    0  501  502  0.00000000000E+00  0.00000000000E+00  0.57079167182E+03  0.57079167182E+03  0.00000000000E+00 0.  1.
         21   -1    0    0  502  503 -0.00000000000E+00 -0.00000000000E+00 -0.11626330116E+03  0.11626330116E+03  0.00000000000E+00 0.  1.
          6    1    1    2  501    0 -0.14865503102E+03  0.21680074974E+02  0.38428522419E+03  0.44740638958E+03  0.17300000000E+03 0.  1.
         -6    1    1    2    0  503  0.14865503102E+03 -0.21680074974E+02  0.70243146463E+02  0.23964858340E+03  0.17300000000E+03 0.  1.
</event>
<event>
 4    1  0.6031777E+000  0.1000000E+03  0.7546771E-02  0.1280296E+00
         21   -1    0    0  501  502  0.00000000000E+00  0.00000000000E+00  0.56030570398E+02  0.56030570398E+02  0.00000000000E+00 0.  1.
         21   -1    0    0  502  503 -0.00000000000E+00 -0.00000000000E+00 -0.89253046946E+03  0.89253046946E+03  0.00000000000E+00 0.  1.
          6    1    1    2  501    0  0.27530254439E+02 -0.11343337267E+03 -0.24785467028E+03  0.32401540476E+03  0.17300000000E+03 0.  1.
         -6    1    1    2    0  503 -0.27530254439E+02  0.11343337267E+03 -0.58864522878E+03  0.62454563509E+03  0.17300000000E+03 0.  1.
</event>
<event>
 4    1  0.6031777E+000  0.1000000E+03  0.7546771E-02  0.1280296E+00
         21   -1    0    0  501  502  0.00000000000E+00  0.00000000000E+00  0.56705201021E+02  0.56705201021E+02  0.00000000000E+00 0.  1.
         21   -1    0    0  502  503 -0.00000000000E+00 -0.00000000000E+00 -0.15806679946E+04  0.15806679946E+04  0.00000000000E+00 0.  1.
          6    1    1    2  501    0 -0.86454268227E+02 -0.97578290334E+02 -0.19686667433E+03  0.29271376924E+03  0.17300000000E+03 0.  1.
         -6    1    1    2    0  503  0.86454268227E+02  0.97578290334E+02 -0.13270961192E+04  0.13446594264E+04  0.17300000000E+03 0.  1.
</event>
<event>
 4    1  0.6031777E+000  0.1000000E+03  0.7546771E-02  0.1280296E+00
         21   -1    0    0  501  502  0.00000000000E+00  0.00000000000E+00  0.12789512914E+03  0.12789512914E+03  0.00000000000E+00 0. -1.
         21   -1    0    0  502  503 -0.00000000000E+00 -0.00000000000E+00 -0.69063507653E+03  0.69063507653E+03  0.00000000000E+00 0. -1.
          6    1    1    2  501    0 -0.24389460167E+02 -0.15093804776E+02  0.49059396762E+02  0.18209473666E+03  0.17300000000E+03 0. -1.
         -6    1    1    2    0  503  0.24389460167E+02  0.15093804776E+02 -0.61179934415E+03  0.63643546901E+03  0.17300000000E+03 0. -1.
</event>
<event>
 4    1  0.6031777E+000  0.1000000E+03  0.7546771E-02  0.1280296E+00
         21   -1    0    0  503  502  0.00000000000E+00  0.00000000000E+00  0.23224475802E+03  0.23224475802E+03  0.00000000000E+00 0. -1.
         21   -1    0    0  501  503 -0.00000000000E+00 -0.00000000000E+00 -0.27974227729E+03  0.27974227729E+03  0.00000000000E+00 0. -1.
          6    1    1    2  501    0  0.14313517039E+03  0.21012719515E+02 -0.14305073510E+03  0.26706127423E+03  0.17300000000E+03 0. -1.
         -6    1    1    2    0  502 -0.14313517039E+03 -0.21012719515E+02  0.95553215825E+02  0.24492576107E+03  0.17300000000E+03 0. -1.
</event>
<event>
 4    1  0.6031777E+000  0.1000000E+03  0.7546771E-02  0.1280296E+00
         21   -1    0    0  501  502  0.00000000000E+00  0.00000000000E+00  0.12015185794E+04  0.12015185794E+04  0.00000000000E+00 0. -1.
         21   -1    0    0  502  503 -0.00000000000E+00 -0.00000000000E+00 -0.44615088477E+02  0.44615088477E+02  0.00000000000E+00 0. -1.
          6    1    1    2  501    0  0.21059740904E+02  0.15232175412E+03  0.59353825227E+03  0.63707306204E+03  0.17300000000E+03 0. -1.
         -6    1    1    2    0  503 -0.21059740904E+02 -0.15232175412E+03  0.56336523866E+03  0.60906060584E+03  0.17300000000E+03 0. -1.
</event>
<event>
 4    1  0.6031777E+000  0.1000000E+03  0.7546771E-02  0.1280296E+00
         21   -1    0    0  501  502  0.00000000000E+00  0.00000000000E+00  0.35113057667E+03  0.35113057667E+03  0.00000000000E+00 0.  1.
         21   -1    0    0  502  503 -0.00000000000E+00 -0.00000000000E+00 -0.12431340613E+03  0.12431340613E+03  0.00000000000E+00 0. -1.
          6    1    1    2  501    0 -0.19841785142E+02  0.37443527713E+02 -0.10846674909E+02  0.17844428980E+03  0.17300000000E+03 0.  1.
         -6    1    1    2    0  503  0.19841785142E+02 -0.37443527713E+02  0.23766384546E+03  0.29699969300E+03  0.17300000000E+03 0. -1.
</event>
<event>
 4    1  0.6031777E+000  0.1000000E+03  0.7546771E-02  0.1280296E+00
         21   -1    0    0  501  502  0.00000000000E+00  0.00000000000E+00  0.16986279875E+03  0.16986279875E+03  0.00000000000E+00 0.  1.
         21   -1    0    0  502  503 -0.00000000000E+00 -0.00000000000E+00 -0.22003560518E+03  0.22003560518E+03  0.00000000000E+00 0. -1.
          6    1    1    2  501    0  0.52609614310E+02  0.59079782059E+02  0.96797610580E+01  0.19047543133E+03  0.17300000000E+03 0.  1.
         -6    1    1    2    0  503 -0.52609614310E+02 -0.59079782059E+02 -0.59852567483E+02  0.19942297260E+03  0.17300000000E+03 0. -1.
</event>
<event>
 4    1  0.6031777E+000  0.1000000E+03  0.7546771E-02  0.1280296E+00
         21   -1    0    0  503  502  0.00000000000E+00  0.00000000000E+00  0.47801478434E+03  0.47801478434E+03  0.00000000000E+00 0.  1.
         21   -1    0    0  501  503 -0.00000000000E+00 -0.00000000000E+00 -0.96668406399E+02  0.96668406399E+02  0.00000000000E+00 0. -1.
          6    1    1    2  501    0  0.76983170775E+02  0.99040242179E+02  0.15948040408E+03  0.26664278996E+03  0.17300000000E+03 0. -1.
         -6    1    1    2    0  502 -0.76983170775E+02 -0.99040242179E+02  0.22186597386E+03  0.30804040078E+03  0.17300000000E+03 0.  1.
</event>
<event>
 4    1  0.6031777E+000  0.1000000E+03  0.7546771E-02  0.1280296E+00
         21   -1    0    0  503  502  0.00000000000E+00  0.00000000000E+00  0.22313128756E+03  0.22313128756E+03  0.00000000000E+00 0.  1.
         21   -1    0    0  501  503 -0.00000000000E+00 -0.00000000000E+00 -0.15653136462E+03  0.15653136462E+03  0.00000000000E+00 0. -1.
          6    1    1    2  501    0 -0.15371586506E+02  0.68975274245E+02  0.35374381584E+02  0.19019521813E+03  0.17300000000E+03 0. -1.
         -6    1    1    2    0  502  0.15371586506E+02 -0.68975274245E+02  0.31225541358E+02  0.18946743404E+03  0.17300000000E+03 0.  1.
</event>
<event>
 4    1  0.6031777E+000  0.1000000E+03  0.7546771E-02  0.1280296E+00
         21   -1    0    0  503  502  0.00000000000E+00  0.00000000000E+00  0.13021047926E+03  0.13021047926E+03  0.00000000000E+00 0.  1.
         21   -1    0    0  501  503 -0.00000000000E+00 -0.00000000000E+00 -0.24331368169E+04  0.24331368169E+04  0.00000000000E+00 0. -1.
          6    1    1    2  501    0 -0.12307283003E+03  0.10152106273E+03 -0.23157369883E+04  0.23276641181E+04  0.17300000000E+03 0. -1.
         -6    1    1    2    0  502  0.12307283003E+03 -0.10152106273E+03  0.12810650623E+02  0.23568317810E+03  0.17300000000E+03 0.  1.
</event>
<event>
 4    1  0.6031777E+000  0.1000000E+03  0.7546771E-02  0.1280296E+00
         21   -1    0    0  501  502  0.00000000000E+00  0.00000000000E+00  0.17389171145E+03  0.17389171145E+03  0.00000000000E+00 0. -1.
         21   -1    0    0  502  503 -0.00000000000E+00 -0.00000000000E+00 -0.20190151231E+03  0.20190151231E+03  0.00000000000E+00 0. -1.
          6    1    1    2  501    0  0.29204548248E+01  0.54828393248E+02  0.32657872255E+02  0.18441859555E+03  0.17300000000E+03 0.  1.
         -6    1    1    2    0  503 -0.29204548248E+01 -0.54828393248E+02 -0.60667673116E+02  0.19137462821E+03  0.17300000000E+03 0.  1.
</event>
<event>
 4    1  0.6031777E+000  0.1000000E+03  0.7546771E-02  0.1280296E+00
         21   -1    0    0  501  502  0.00000000000E+00  0.00000000000E+00  0.44373355312E+03  0.44373355312E+03  0.00000000000E+00 0. -1.
         21   -1    0    0  502  503 -0.00000000000E+00 -0.00000000000E+00 -0.46115647261E+03  0.46115647261E+03  0.00000000000E+00 0. -1.
          6    1    1    2  501    0  0.12394303739E+03 -0.33526931529E+03  0.20797175585E+03  0.44827295426E+03  0.17300000000E+03 0.  1.
         -6    1    1    2    0  503 -0.12394303739E+03  0.33526931529E+03 -0.22539467533E+03  0.45661707147E+03  0.17300000000E+03 0.  1.
</event>
<event>
 4    1  0.6031777E+000  0.1000000E+03  0.7546771E-02  0.1280296E+00
         21   -1    0    0  501  502  0.00000000000E+00  0.00000000000E+00  0.77595020900E+03  0.77595020900E+03  0.00000000000E+00 0. -1.
         21   -1    0    0  502  503 -0.00000000000E+00 -0.00000000000E+00 -0.99156851863E+02  0.99156851863E+02  0.00000000000E+00 0. -1.
          6    1    1    2  501    0 -0.10235244043E+02 -0.10095626282E+03  0.64065188835E+03  0.67131272092E+03  0.17300000000E+03 0.  1.
         -6    1    1    2    0  503  0.10235244043E+02  0.10095626282E+03  0.36141468780E+02  0.20379433994E+03  0.17300000000E+03 0.  1.
</event>
<event>
 4    1  0.6031777E+000  0.1000000E+03  0.7546771E-02  0.1280296E+00
         21   -1    0    0  503  502  0.00000000000E+00  0.00000000000E+00  0.29738456126E+02  0.29738456126E+02  0.00000000000E+00 0.  1.
         21   -1    0    0  501  503 -0.00000000000E+00 -0.00000000000E+00 -0.18776527111E+04  0.18776527111E+04  0.00000000000E+00 0.  1.
          6    1    1    2  501    0 -0.18239014703E+02 -0.15981841145E+03 -0.90011220544E+03  0.93059420194E+03  0.17300000000E+03 0.  1.
         -6    1    1    2    0  502  0.18239014703E+02  0.15981841145E+03 -0.94780204952E+03  0.97679696528E+03  0.17300000000E+03 0.  1.
</event>
<event>
 4    1  0.6031777E+000  0.1000000E+03  0.7546771E-02  0.1280296E+00
         21   -1    0    0  503  502  0.00000000000E+00  0.00000000000E+00  0.18644441883E+03  0.18644441883E+03  0.00000000000E+00 0.  1.
         21   -1    0    0  501  503 -0.00000000000E+00 -0.00000000000E+00 -0.33470947749E+03  0.33470947749E+03  0.00000000000E+00 0.  1.
          6    1    1    2  501    0 -0.75988888589E+01 -0.66793188713E+02 -0.24854188927E+03  0.31019533183E+03  0.17300000000E+03 0.  1.
         -6    1    1    2    0  502  0.75988888589E+01  0.66793188713E+02  0.10027683061E+03  0.21095856448E+03  0.17300000000E+03 0.  1.
</event>
<event>
 4    1  0.6031777E+000  0.1000000E+03  0.7546771E-02  0.1280296E+00
         21   -1    0    0  503  502  0.00000000000E+00  0.00000000000E+00  0.20301907105E+03  0.20301907105E+03  0.00000000000E+00 0.  1.
         21   -1    0    0  501  503 -0.00000000000E+00 -0.00000000000E+00 -0.24434366750E+03  0.24434366750E+03  0.00000000000E+00 0. -1.
          6    1    1    2  501    0 -0.13012172557E+03 -0.42599212871E+02  0.99821318032E+01  0.22085062680E+03  0.17300000000E+03 0.  1.
         -6    1    1    2    0  502  0.13012172557E+03  0.42599212871E+02 -0.51306728261E+02  0.22651211175E+03  0.17300000000E+03 0. -1.
</event>
<event>
 4    1  0.6031777E+000  0.1000000E+03  0.7546771E-02  0.1280296E+00
         21   -1    0    0  503  502  0.00000000000E+00  0.00000000000E+00  0.16075044358E+03  0.16075044358E+03  0.00000000000E+00 0.  1.
         21   -1    0    0  501  503 -0.00000000000E+00 -0.00000000000E+00 -0.38158114899E+03  0.38158114899E+03  0.00000000000E+00 0. -1.
          6    1    1    2  501    0 -0.17404942336E+03 -0.32733083080E+02 -0.11781549544E+03  0.27417904272E+03  0.17300000000E+03 0.  1.
         -6    1    1    2    0  502  0.17404942336E+03  0.32733083080E+02 -0.10301520997E+03  0.26815254984E+03  0.17300000000E+03 0. -1.
</event>
<event>
 4    1  0.6031777E+000  0.1000000E+03  0.7546771E-02  0.1280296E+00
         21   -1    0    0  501  502  0.00000000000E+00  0.00000000000E+00  0.10585963739E+03  0.10585963739E+03  0.00000000000E+00 0. -1.
         21   -1    0    0  502  503 -0.00000000000E+00 -0.00000000000E+00 -0.60832452811E+03  0.60832452811E+03  0.00000000000E+00 0. -1.
          6    1    1    2  501    0  0.70848918376E+02 -0.35328528921E+02 -0.14926566165E+02  0.19083887594E+03  0.17300000000E+03 0. -1.
         -6    1    1    2    0  503 -0.70848918376E+02  0.35328528921E+02 -0.48753832456E+03  0.52334528956E+03  0.17300000000E+03 0. -1.
</event>
<event>
 4    1  0.6031777E+000  0.1000000E+03  0.7546771E-02  0.1280296E+00
         21   -1    0    0  501  502  0.00000000000E+00  0.00000000000E+00  0.36963080212E+03  0.36963080212E+03  0.00000000000E+00 0. -1.
         21   -1    0    0  502  503 -0.00000000000E+00 -0.00000000000E+00 -0.44142989991E+03  0.44142989991E+03  0.00000000000E+00 0. -1.
          6    1    1    2  501    0 -0.33680099374E+03  0.14055492881E+03 -0.42744824031E+02  0.40613632857E+03  0.17300000000E+03 0. -1.
         -6    1    1    2    0  503  0.33680099374E+03 -0.14055492881E+03 -0.29054273755E+02  0.40492437346E+03  0.17300000000E+03 0. -1.
</event>
<event>
 4    1  0.6031777E+000  0.1000000E+03  0.7546771E-02  0.1280296E+00
         21   -1    0    0  503  502  0.00000000000E+00  0.00000000000E+00  0.18140444415E+03  0.18140444415E+03  0.00000000000E+00 0.  1.
         21   -1    0    0  501  503 -0.00000000000E+00 -0.00000000000E+00 -0.64057795584E+03  0.64057795584E+03  0.00000000000E+00 0.  1.
          6    1    1    2  501    0  0.81720858263E+02 -0.17361637128E+03 -0.49770240271E+03  0.56076521354E+03  0.17300000000E+03 0.  1.
         -6    1    1    2    0  502 -0.81720858263E+02  0.17361637128E+03  0.38528891024E+02  0.26121718645E+03  0.17300000000E+03 0.  1.
</event>
<event>
 4    1  0.6031777E+000  0.1000000E+03  0.7546771E-02  0.1280296E+00
         21   -1    0    0  503  502  0.00000000000E+00  0.00000000000E+00  0.12460554045E+04  0.12460554045E+04  0.00000000000E+00 0.  1.
         21   -1    0    0  501  503 -0.00000000000E+00 -0.00000000000E+00 -0.48038663963E+02  0.48038663963E+02  0.00000000000E+00 0.  1.
          6    1    1    2  501    0 -0.56992899271E+02  0.14586332256E+03  0.40456588955E+03  0.46704053188E+03  0.17300000000E+03 0.  1.
         -6    1    1    2    0  502  0.56992899271E+02 -0.14586332256E+03  0.79345085100E+03  0.82705353659E+03  0.17300000000E+03 0.  1.
</event>
<event>
 4    1  0.6031777E+000  0.1000000E+03  0.7546771E-02  0.1280296E+00
         21   -1    0    0  501  502  0.00000000000E+00  0.00000000000E+00  0.14880408060E+03  0.14880408060E+03  0.00000000000E+00 0.  1.
         21   -1    0    0  502  503 -0.00000000000E+00 -0.00000000000E+00 -0.55966510414E+03  0.55966510414E+03  0.00000000000E+00 0.  1.
          6    1    1    2  501    0  0.10873313661E+03 -0.19225890710E+03 -0.28836651515E+03  0.40233149195E+03  0.17300000000E+03 0. -1.
         -6    1    1    2    0  503 -0.10873313661E+03  0.19225890710E+03 -0.12249450839E+03  0.30613769278E+03  0.17300000000E+03 0. -1.
</event>
<event>
 4    1  0.6031777E+000  0.1000000E+03  0.7546771E-02  0.1280296E+00
         21   -1    0    0  501  502  0.00000000000E+00  0.00000000000E+00  0.14743942304E+04  0.14743942304E+04  0.00000000000E+00 0.  1.
         21   -1    0    0  502  503 -0.00000000000E+00 -0.00000000000E+00 -0.48628862925E+02  0.48628862925E+02  0.00000000000E+00 0.  1.
          6    1    1    2  501    0 -0.65153238341E+01  0.38790235354E+02  0.14251571857E+03  0.22756726883E+03  0.17300000000E+03 0. -1.
         -6    1    1    2    0  503  0.65153238341E+01 -0.38790235354E+02  0.12832496489E+04  0.12954558244E+04  0.17300000000E+03 0. -1.
</event>
<event>
 4    1  0.6031777E+000  0.1000000E+03  0.7546771E-02  0.1280296E+00
         21   -1    0    0  501  502  0.00000000000E+00  0.00000000000E+00  0.28727204092E+03  0.28727204092E+03  0.00000000000E+00 0.  1.
         21   -1    0    0  502  503 -0.00000000000E+00 -0.00000000000E+00 -0.60524162443E+03  0.60524162443E+03  0.00000000000E+00 0.  1.
          6    1    1    2  501    0 -0.33637683035E+03 -0.14757559397E+03 -0.57386582525E+02  0.41006115128E+03  0.17300000000E+03 0. -1.
         -6    1    1    2    0  503  0.33637683035E+03  0.14757559397E+03 -0.26058300099E+03  0.48245251408E+03  0.17300000000E+03 0. -1.
</event>
<event>
 4    1  0.6031777E+000  0.1000000E+03  0.7546771E-02  0.1280296E+00
         21   -1    0    0  501  502  0.00000000000E+00  0.00000000000E+00  0.17741417188E+03  0.17741417188E+03  0.00000000000E+00 0. -1.
         21   -1    0    0  502  503 -0.00000000000E+00 -0.00000000000E+00 -0.35448306476E+03  0.35448306476E+03  0.00000000000E+00 0. -1.
          6    1    1    2  501    0  0.14424734506E+03  0.76569492319E+02 -0.44200440573E+01  0.23794688588E+03  0.17300000000E+03 0. -1.
         -6    1    1    2    0  503 -0.14424734506E+03 -0.76569492319E+02 -0.17264884882E+03  0.29395035076E+03  0.17300000000E+03 0. -1.
</event>
<event>
 4    1  0.6031777E+000  0.1000000E+03  0.7546771E-02  0.1280296E+00
         21   -1    0    0  501  502  0.00000000000E+00  0.00000000000E+00  0.52981035168E+02  0.52981035168E+02  0.00000000000E+00 0. -1.
         21   -1    0    0  502  503 -0.00000000000E+00 -0.00000000000E+00 -0.92662922157E+03  0.92662922157E+03  0.00000000000E+00 0. -1.
          6    1    1    2  501    0 -0.15478069766E+02  0.46439474916E+02 -0.15056568321E+03  0.23451059770E+03  0.17300000000E+03 0. -1.
         -6    1    1    2    0  503  0.15478069766E+02 -0.46439474916E+02 -0.72308250319E+03  0.74509965903E+03  0.17300000000E+03 0. -1.
</event>
<event>
 4    1  0.6031777E+000  0.1000000E+03  0.7546771E-02  0.1280296E+00
         21   -1    0    0  501  502  0.00000000000E+00  0.00000000000E+00  0.17034706052E+03  0.17034706052E+03  0.00000000000E+00 0. -1.
         21   -1    0    0  502  503 -0.00000000000E+00 -0.00000000000E+00 -0.27819306132E+03  0.27819306132E+03  0.00000000000E+00 0. -1.
          6    1    1    2  501    0  0.42925211443E+02 -0.12469775666E+03 -0.45410974655E+02  0.22222344816E+03  0.17300000000E+03 0. -1.
         -6    1    1    2    0  503 -0.42925211443E+02  0.12469775666E+03 -0.62435026139E+02  0.22631667367E+03  0.17300000000E+03 0. -1.
</event>
<event>
 4    1  0.6031777E+000  0.1000000E+03  0.7546771E-02  0.1280296E+00
         21   -1    0    0  501  502  0.00000000000E+00  0.00000000000E+00  0.30929460518E+03  0.30929460518E+03  0.00000000000E+00 0.  1.
         21   -1    0    0  502  503 -0.00000000000E+00 -0.00000000000E+00 -0.15126998609E+03  0.15126998609E+03  0.00000000000E+00 0.  1.
          6    1    1    2  501    0  0.18632817998E+02 -0.92200046840E+02  0.17429481536E+03  0.26297473872E+03  0.17300000000E+03 0.  1.
         -6    1    1    2    0  503 -0.18632817998E+02  0.92200046840E+02 -0.16270196276E+02  0.19758985255E+03  0.17300000000E+03 0.  1.
</event>
<event>
 4    1  0.6031777E+000  0.1000000E+03  0.7546771E-02  0.1280296E+00
         21   -1    0    0  501  502  0.00000000000E+00  0.00000000000E+00  0.21334910061E+04  0.21334910061E+04  0.00000000000E+00 0.  1.
         21   -1    0    0  502  503 -0.00000000000E+00 -0.00000000000E+00 -0.40572790774E+02  0.40572790774E+02  0.00000000000E+00 0.  1.
          6    1    1    2  501    0  0.33897551045E+02 -0.75748430489E+02  0.18705169884E+04  0.18803323304E+04  0.17300000000E+03 0.  1.
         -6    1    1    2    0  503 -0.33897551045E+02  0.75748430489E+02  0.22240122695E+03  0.29373146654E+03  0.17300000000E+03 0.  1.
</event>
<event>
 4    1  0.6031777E+000  0.1000000E+03  0.7546771E-02  0.1280296E+00
         21   -1    0    0  501  502  0.00000000000E+00  0.00000000000E+00  0.41087411634E+03  0.41087411634E+03  0.00000000000E+00 0.  1.
         21   -1    0    0  502  503 -0.00000000000E+00 -0.00000000000E+00 -0.46423667697E+03  0.46423667697E+03  0.00000000000E+00 0.  1.
          6    1    1    2  501    0 -0.35921126661E+03  0.70476920342E+01  0.15178400623E+03  0.42667292926E+03  0.17300000000E+03 0.  1.
         -6    1    1    2    0  503  0.35921126661E+03 -0.70476920342E+01 -0.20514656685E+03  0.44843786405E+03  0.17300000000E+03 0.  1.
</event>
<event>
 4    1  0.6031777E+000  0.1000000E+03  0.7546771E-02  0.1280296E+00
         21   -1    0    0  501  502  0.00000000000E+00  0.00000000000E+00  0.12316920921E+04  0.12316920921E+04  0.00000000000E+00 0.  1.
         21   -1    0    0  502  503 -0.00000000000E+00 -0.00000000000E+00 -0.79088775544E+02  0.79088775544E+02  0.00000000000E+00 0.  1.
          6    1    1    2  501    0  0.98808604853E+02 -0.17322538181E+03  0.92587636030E+03  0.96278045673E+03  0.17300000000E+03 0.  1.
         -6    1    1    2    0  503 -0.98808604853E+02  0.17322538181E+03  0.22672695621E+03  0.34800041087E+03  0.17300000000E+03 0.  1.
</event>
<event>
 4    1  0.6031777E+000  0.1000000E+03  0.7546771E-02  0.1280296E+00
         21   -1    0    0  503  502  0.00000000000E+00  0.00000000000E+00  0.97256850726E+02  0.97256850726E+02  0.00000000000E+00 0. -1.
         21   -1    0    0  501  503 -0.00000000000E+00 -0.00000000000E+00 -0.70676998527E+03  0.70676998527E+03  0.00000000000E+00 0.  1.
          6    1    1    2  501    0 -0.85221311758E+02 -0.86086569428E+01 -0.57678018962E+03  0.60822789157E+03  0.17300000000E+03 0.  1.
         -6    1    1    2    0  502  0.85221311758E+02  0.86086569428E+01 -0.32732944922E+02  0.19579894442E+03  0.17300000000E+03 0. -1.
</event>
<event>
 4    1  0.6031777E+000  0.1000000E+03  0.7546771E-02  0.1280296E+00
         21   -1    0    0  501  502  0.00000000000E+00  0.00000000000E+00  0.37886978482E+03  0.37886978482E+03  0.00000000000E+00 0. -1.
         21   -1    0    0  502  503 -0.00000000000E+00 -0.00000000000E+00 -0.56980633260E+03  0.56980633260E+03  0.00000000000E+00 0. -1.
          6    1    1    2  501    0  0.78953374417E+02  0.37300791995E+03  0.11019719067E+03  0.43294452821E+03  0.17300000000E+03 0. -1.
         -6    1    1    2    0  503 -0.78953374417E+02 -0.37300791995E+03 -0.30113373845E+03  0.51573158921E+03  0.17300000000E+03 0. -1.
</event>
<event>
 4    1  0.6031777E+000  0.1000000E+03  0.7546771E-02  0.1280296E+00
         21   -1    0    0  501  502  0.00000000000E+00  0.00000000000E+00  0.27672364314E+03  0.27672364314E+03  0.00000000000E+00 0. -1.
         21   -1    0    0  502  503 -0.00000000000E+00 -0.00000000000E+00 -0.21228416214E+03  0.21228416214E+03  0.00000000000E+00 0.  1.
          6    1    1    2  501    0 -0.51403058475E+02 -0.78630848536E+02  0.17484940119E+03  0.26329906544E+03  0.17300000000E+03 0. -1.
         -6    1    1    2    0  503  0.51403058475E+02  0.78630848536E+02 -0.11040992019E+03  0.22570873984E+03  0.17300000000E+03 0.  1.
</event>
<event>
 4    1  0.6031777E+000  0.1000000E+03  0.7546771E-02  0.1280296E+00
         21   -1    0    0  501  502  0.00000000000E+00  0.00000000000E+00  0.15411706880E+04  0.15411706880E+04  0.00000000000E+00 0. -1.
         21   -1    0    0  502  503 -0.00000000000E+00 -0.00000000000E+00 -0.21480828636E+03  0.21480828636E+03  0.00000000000E+00 0.  1.
          6    1    1    2  501    0 -0.15695664799E+02 -0.42579302286E+02  0.14976753941E+04  0.15083169219E+04  0.17300000000E+03 0. -1.
         -6    1    1    2    0  503  0.15695664799E+02  0.42579302286E+02 -0.17131299240E+03  0.24766205249E+03  0.17300000000E+03 0.  1.
</event>
<event>
 4    1  0.6031777E+000  0.1000000E+03  0.7546771E-02  0.1280296E+00
         21   -1    0    0  501  502  0.00000000000E+00  0.00000000000E+00  0.13448870611E+03  0.13448870611E+03  0.00000000000E+00 0. -1.
         21   -1    0    0  502  503 -0.00000000000E+00 -0.00000000000E+00 -0.58260816108E+03  0.58260816108E+03  0.00000000000E+00 0.  1.
          6    1    1    2  501    0  0.16833397570E+03 -0.19972790925E+02 -0.44321996291E+02  0.24622891607E+03  0.17300000000E+03 0. -1.
         -6    1    1    2    0  503 -0.16833397570E+03  0.19972790925E+02 -0.40379745868E+03  0.47086795112E+03  0.17300000000E+03 0.  1.
</event>
<event>
 4    1  0.6031777E+000  0.1000000E+03  0.7546771E-02  0.1280296E+00
         21   -1    0    0  501  502  0.00000000000E+00  0.00000000000E+00  0.13385741044E+04  0.13385741044E+04  0.00000000000E+00 0. -1.
         21   -1    0    0  502  503 -0.00000000000E+00 -0.00000000000E+00 -0.41877616563E+02  0.41877616563E+02  0.00000000000E+00 0.  1.
          6    1    1    2  501    0  0.11052909786E+03 -0.38655854896E+02  0.97319293701E+03  0.99536146662E+03  0.17300000000E+03 0. -1.
         -6    1    1    2    0  503 -0.11052909786E+03  0.38655854896E+02  0.32350355084E+03  0.38509025435E+03  0.17300000000E+03 0.  1.
</event>
<event>
 4    1  0.6031777E+000  0.1000000E+03  0.7546771E-02  0.1280296E+00
         21   -1    0    0  501  502  0.00000000000E+00  0.00000000000E+00  0.42397420518E+02  0.42397420518E+02  0.00000000000E+00 0. -1.
         21   -1    0    0  502  503 -0.00000000000E+00 -0.00000000000E+00 -0.81231562700E+03  0.81231562700E+03  0.00000000000E+00 0.  1.
          6    1    1    2  501    0  0.19921336877E+02  0.50508969658E+02 -0.29391587553E+03  0.34534556254E+03  0.17300000000E+03 0. -1.
         -6    1    1    2    0  503 -0.19921336877E+02 -0.50508969658E+02 -0.47600233095E+03  0.50936748498E+03  0.17300000000E+03 0.  1.
</event>
<event>
 4    1  0.6031777E+000  0.1000000E+03  0.7546771E-02  0.1280296E+00
         21   -1    0    0  501  502  0.00000000000E+00  0.00000000000E+00  0.30068297350E+03  0.30068297350E+03  0.00000000000E+00 0. -1.
         21   -1    0    0  502  503 -0.00000000000E+00 -0.00000000000E+00 -0.54352926730E+03  0.54352926730E+03  0.00000000000E+00 0.  1.
          6    1    1    2  501    0  0.14308416445E+03 -0.23180016688E+03  0.13283253261E+03  0.34896687121E+03  0.17300000000E+03 0. -1.
         -6    1    1    2    0  503 -0.14308416445E+03  0.23180016688E+03 -0.37567882641E+03  0.49524536959E+03  0.17300000000E+03 0.  1.
</event>
<event>
 4    1  0.6031777E+000  0.1000000E+03  0.7546771E-02  0.1280296E+00
         21   -1    0    0  503  502  0.00000000000E+00  0.00000000000E+00  0.83515450987E+02  0.83515450987E+02  0.00000000000E+00 0. -1.
         21   -1    0    0  501  503 -0.00000000000E+00 -0.00000000000E+00 -0.65452917900E+03  0.65452917900E+03  0.00000000000E+00 0. -1.
          6    1    1    2  501    0  0.95170120764E+02  0.12505266499E+03 -0.27567805023E+03  0.36141791362E+03  0.17300000000E+03 0. -1.
         -6    1    1    2    0  502 -0.95170120764E+02 -0.12505266499E+03 -0.29533567778E+03  0.37662671636E+03  0.17300000000E+03 0. -1.
</event>
<event>
 4    1  0.6031777E+000  0.1000000E+03  0.7546771E-02  0.1280296E+00
         21   -1    0    0  503  502  0.00000000000E+00  0.00000000000E+00  0.14414546979E+03  0.14414546979E+03  0.00000000000E+00 0. -1.
         21   -1    0    0  501  503 -0.00000000000E+00 -0.00000000000E+00 -0.27689487287E+03  0.27689487287E+03  0.00000000000E+00 0.  1.
          6    1    1    2  501    0  0.42197710621E+02 -0.24629864700E+02 -0.15821915821E+03  0.23947772139E+03  0.17300000000E+03 0. -1.
         -6    1    1    2    0  502 -0.42197710621E+02  0.24629864700E+02  0.25469755133E+02  0.18156262127E+03  0.17300000000E+03 0.  1.
</event>
<event>
 4    1  0.6031777E+000  0.1000000E+03  0.7546771E-02  0.1280296E+00
         21   -1    0    0  503  502  0.00000000000E+00  0.00000000000E+00  0.74552920874E+03  0.74552920874E+03  0.00000000000E+00 0. -1.
         21   -1    0    0  501  503 -0.00000000000E+00 -0.00000000000E+00 -0.64396859817E+02  0.64396859817E+02  0.00000000000E+00 0.  1.
          6    1    1    2  501    0 -0.20689244572E+02 -0.43942600038E+02  0.10882614837E+03  0.21007410004E+03  0.17300000000E+03 0. -1.
         -6    1    1    2    0  502  0.20689244572E+02  0.43942600038E+02  0.57230620055E+03  0.59985196851E+03  0.17300000000E+03 0.  1.
</event>
<event>
 4    1  0.6031777E+000  0.1000000E+03  0.7546771E-02  0.1280296E+00
         21   -1    0    0  501  502  0.00000000000E+00  0.00000000000E+00  0.15845762413E+04  0.15845762413E+04  0.00000000000E+00 0.  1.
         21   -1    0    0  502  503 -0.00000000000E+00 -0.00000000000E+00 -0.38188472922E+03  0.38188472922E+03  0.00000000000E+00 0.  1.
          6    1    1    2  501    0 -0.69471180383E+01 -0.32686825502E+02  0.15590220648E+04  0.15689472552E+04  0.17300000000E+03 0.  1.
         -6    1    1    2    0  503  0.69471180383E+01  0.32686825502E+02 -0.35633055277E+03  0.39751371530E+03  0.17300000000E+03 0.  1.
</event>
<event>
 4    1  0.6031777E+000  0.1000000E+03  0.7546771E-02  0.1280296E+00
         21   -1    0    0  503  502  0.00000000000E+00  0.00000000000E+00  0.18927858779E+03  0.18927858779E+03  0.00000000000E+00 0. -1.
         21   -1    0    0  501  503 -0.00000000000E+00 -0.00000000000E+00 -0.35778731334E+03  0.35778731334E+03  0.00000000000E+00 0. -1.
          6    1    1    2  501    0 -0.55699421236E+01 -0.54958444377E+02 -0.28016938449E+03  0.33387922797E+03  0.17300000000E+03 0. -1.
         -6    1    1    2    0  502  0.55699421236E+01  0.54958444377E+02  0.11166065893E+03  0.21318667317E+03  0.17300000000E+03 0. -1.
</event>
<event>
 4    1  0.6031777E+000  0.1000000E+03  0.7546771E-02  0.1280296E+00
         21   -1    0    0  501  502  0.00000000000E+00  0.00000000000E+00  0.29065146839E+02  0.29065146839E+02  0.00000000000E+00 0.  1.
         21   -1    0    0  502  503 -0.00000000000E+00 -0.00000000000E+00 -0.13148840223E+04  0.13148840223E+04  0.00000000000E+00 0.  1.
          6    1    1    2  501    0  0.54849549216E+02 -0.39616346323E+02 -0.85228762139E+03  0.87229646194E+03  0.17300000000E+03 0.  1.
         -6    1    1    2    0  503 -0.54849549216E+02  0.39616346323E+02 -0.43353125404E+03  0.47165270717E+03  0.17300000000E+03 0.  1.
</event>
<event>
 4    1  0.6031777E+000  0.1000000E+03  0.7546771E-02  0.1280296E+00
         21   -1    0    0  503  502  0.00000000000E+00  0.00000000000E+00  0.42299141157E+02  0.42299141157E+02  0.00000000000E+00 0. -1.
         21   -1    0    0  501  503 -0.00000000000E+00 -0.00000000000E+00 -0.84577383515E+03  0.84577383515E+03  0.00000000000E+00 0. -1.
          6    1    1    2  501    0  0.76046272087E+02 -0.54500001828E+01 -0.41537952868E+03  0.45637910869E+03  0.17300000000E+03 0. -1.
         -6    1    1    2    0  502 -0.76046272087E+02  0.54500001828E+01 -0.38809516531E+03  0.43169386762E+03  0.17300000000E+03 0. -1.
</event>
<event>
 4    1  0.6031777E+000  0.1000000E+03  0.7546771E-02  0.1280296E+00
         21   -1    0    0  501  502  0.00000000000E+00  0.00000000000E+00  0.47461782869E+03  0.47461782869E+03  0.00000000000E+00 0.  1.
         21   -1    0    0  502  503 -0.00000000000E+00 -0.00000000000E+00 -0.10591072115E+03  0.10591072115E+03  0.00000000000E+00 0.  1.
          6    1    1    2  501    0 -0.13775219531E+03 -0.13055738163E+02  0.13965544344E+03  0.26187547135E+03  0.17300000000E+03 0.  1.
         -6    1    1    2    0  503  0.13775219531E+03  0.13055738163E+02  0.22905166409E+03  0.31865307849E+03  0.17300000000E+03 0.  1.
</event>
<event>
 4    1  0.6031777E+000  0.1000000E+03  0.7546771E-02  0.1280296E+00
         21   -1    0    0  501  502  0.00000000000E+00  0.00000000000E+00  0.33251014032E+04  0.33251014032E+04  0.00000000000E+00 0.  1.
         21   -1    0    0  502  503 -0.00000000000E+00 -0.00000000000E+00 -0.13890775947E+02  0.13890775947E+02  0.00000000000E+00 0.  1.
          6    1    1    2  501    0  0.11520524627E+03  0.52322039583E+02  0.15329284379E+04  0.15478399273E+04  0.17300000000E+03 0.  1.
         -6    1    1    2    0  503 -0.11520524627E+03 -0.52322039583E+02  0.17782821893E+04  0.17911522519E+04  0.17300000000E+03 0.  1.
</event>
<event>
 4    1  0.6031777E+000  0.1000000E+03  0.7546771E-02  0.1280296E+00
         21   -1    0    0  501  502  0.00000000000E+00  0.00000000000E+00  0.22779161289E+04  0.22779161289E+04  0.00000000000E+00 0.  1.
         21   -1    0    0  502  503 -0.00000000000E+00 -0.00000000000E+00 -0.21018286510E+02  0.21018286510E+02  0.00000000000E+00 0.  1.
          6    1    1    2  501    0  0.10853101403E+03 -0.13501352583E+02  0.15349450478E+04  0.15485304541E+04  0.17300000000E+03 0.  1.
         -6    1    1    2    0  503 -0.10853101403E+03  0.13501352583E+02  0.72195279464E+03  0.75040396136E+03  0.17300000000E+03 0.  1.
</event>
<event>
 4    1  0.6031777E+000  0.1000000E+03  0.7546771E-02  0.1280296E+00
         21   -1    0    0  503  502  0.00000000000E+00  0.00000000000E+00  0.10800408675E+04  0.10800408675E+04  0.00000000000E+00 0. -1.
         21   -1    0    0  501  503 -0.00000000000E+00 -0.00000000000E+00 -0.12301579015E+03  0.12301579015E+03  0.00000000000E+00 0. -1.
          6    1    1    2  501    0 -0.13072443871E+03 -0.26417914590E+03  0.26941856394E+03  0.43519520057E+03  0.17300000000E+03 0. -1.
         -6    1    1    2    0  502  0.13072443871E+03  0.26417914590E+03  0.68760651343E+03  0.76786145711E+03  0.17300000000E+03 0. -1.
</event>
<event>
 4    1  0.6031777E+000  0.1000000E+03  0.7546771E-02  0.1280296E+00
         21   -1    0    0  503  502  0.00000000000E+00  0.00000000000E+00  0.30993319784E+03  0.30993319784E+03  0.00000000000E+00 0. -1.
         21   -1    0    0  501  503 -0.00000000000E+00 -0.00000000000E+00 -0.23620339272E+03  0.23620339272E+03  0.00000000000E+00 0. -1.
          6    1    1    2  501    0 -0.15458636909E+03  0.96416500984E+01 -0.10330084030E+03  0.25414556957E+03  0.17300000000E+03 0. -1.
         -6    1    1    2    0  502  0.15458636909E+03 -0.96416500984E+01  0.17703064541E+03  0.29199102099E+03  0.17300000000E+03 0. -1.
</event>
<event>
 4    1  0.6031777E+000  0.1000000E+03  0.7546771E-02  0.1280296E+00
         21   -1    0    0  503  502  0.00000000000E+00  0.00000000000E+00  0.99555042176E+02  0.99555042176E+02  0.00000000000E+00 0. -1.
         21   -1    0    0  501  503 -0.00000000000E+00 -0.00000000000E+00 -0.42685088563E+03  0.42685088563E+03  0.00000000000E+00 0. -1.
          6    1    1    2  501    0 -0.96260956163E+02  0.39392139710E+02 -0.21703329331E+03  0.29639561865E+03  0.17300000000E+03 0. -1.
         -6    1    1    2    0  502  0.96260956163E+02 -0.39392139710E+02 -0.11026255015E+03  0.23001030916E+03  0.17300000000E+03 0. -1.
</event>
<event>
 4    1  0.6031777E+000  0.1000000E+03  0.7546771E-02  0.1280296E+00
         21   -1    0    0  503  502  0.00000000000E+00  0.00000000000E+00  0.82901215232E+03  0.82901215232E+03  0.00000000000E+00 0.  1.
         21   -1    0    0  501  503 -0.00000000000E+00 -0.00000000000E+00 -0.46750302316E+02  0.46750302316E+02  0.00000000000E+00 0. -1.
          6    1    1    2  501    0 -0.64484479787E+01  0.91424636210E+02  0.34514097044E+03  0.39680138113E+03  0.17300000000E+03 0. -1.
         -6    1    1    2    0  502  0.64484479787E+01 -0.91424636210E+02  0.43712087956E+03  0.47896107350E+03  0.17300000000E+03 0.  1.
</event>
<event>
 4    1  0.6031777E+000  0.1000000E+03  0.7546771E-02  0.1280296E+00
         21   -1    0    0  503  502  0.00000000000E+00  0.00000000000E+00  0.12694902617E+03  0.12694902617E+03  0.00000000000E+00 0.  1.
         21   -1    0    0  501  503 -0.00000000000E+00 -0.00000000000E+00 -0.18981779518E+04  0.18981779518E+04  0.00000000000E+00 0. -1.
          6    1    1    2  501    0 -0.59353968371E+02 -0.15350901204E+03 -0.17703120292E+04  0.17863430777E+04  0.17300000000E+03 0. -1.
         -6    1    1    2    0  502  0.59353968371E+02  0.15350901204E+03 -0.91689640935E+00  0.23878390029E+03  0.17300000000E+03 0.  1.
</event>
<event>
 4    1  0.6031777E+000  0.1000000E+03  0.7546771E-02  0.1280296E+00
         21   -1    0    0  503  502  0.00000000000E+00  0.00000000000E+00  0.62588283918E+02  0.62588283918E+02  0.00000000000E+00 0.  1.
         21   -1    0    0  501  503 -0.00000000000E+00 -0.00000000000E+00 -0.86852924265E+03  0.86852924265E+03  0.00000000000E+00 0. -1.
          6    1    1    2  501    0 -0.12331482761E+03  0.27187193703E+02 -0.58690503956E+03  0.62476572863E+03  0.17300000000E+03 0. -1.
         -6    1    1    2    0  502  0.12331482761E+03 -0.27187193703E+02 -0.21903591916E+03  0.30635179793E+03  0.17300000000E+03 0.  1.
</event>
<event>
 4    1  0.6031777E+000  0.1000000E+03  0.7546771E-02  0.1280296E+00
         21   -1    0    0  503  502  0.00000000000E+00  0.00000000000E+00  0.76287555393E+02  0.76287555393E+02  0.00000000000E+00 0.  1.
         21   -1    0    0  501  503 -0.00000000000E+00 -0.00000000000E+00 -0.60420077313E+03  0.60420077313E+03  0.00000000000E+00 0. -1.
          6    1    1    2  501    0 -0.11085856250E+03 -0.62199814610E+02 -0.26021900018E+03  0.33734458032E+03  0.17300000000E+03 0. -1.
         -6    1    1    2    0  502  0.11085856250E+03  0.62199814610E+02 -0.26769421757E+03  0.34314374821E+03  0.17300000000E+03 0.  1.
</event>
<event>
 4    1  0.6031777E+000  0.1000000E+03  0.7546771E-02  0.1280296E+00
         21   -1    0    0  503  502  0.00000000000E+00  0.00000000000E+00  0.88415939044E+02  0.88415939044E+02  0.00000000000E+00 0.  1.
         21   -1    0    0  501  503 -0.00000000000E+00 -0.00000000000E+00 -0.39370264754E+03  0.39370264754E+03  0.00000000000E+00 0. -1.
          6    1    1    2  501    0 -0.51044607569E+02  0.45091431291E+02 -0.17273440779E+03  0.25378133259E+03  0.17300000000E+03 0. -1.
         -6    1    1    2    0  502  0.51044607569E+02 -0.45091431291E+02 -0.13255230071E+03  0.22833725399E+03  0.17300000000E+03 0.  1.
</event>
<event>
 4    1  0.6031777E+000  0.1000000E+03  0.7546771E-02  0.1280296E+00
         21   -1    0    0  503  502  0.00000000000E+00  0.00000000000E+00  0.22416614248E+03  0.22416614248E+03  0.00000000000E+00 0.  1.
         21   -1    0    0  501  503 -0.00000000000E+00 -0.00000000000E+00 -0.22332730214E+03  0.22332730214E+03  0.00000000000E+00 0. -1.
          6    1    1    2  501    0 -0.11794918440E+03 -0.32897090267E+02 -0.71268858094E+02  0.22361234041E+03  0.17300000000E+03 0. -1.
         -6    1    1    2    0  502  0.11794918440E+03  0.32897090267E+02  0.72107698434E+02  0.22388110421E+03  0.17300000000E+03 0.  1.
</event>
<event>
 4    1  0.6031777E+000  0.1000000E+03  0.7546771E-02  0.1280296E+00
         21   -1    0    0  503  502  0.00000000000E+00  0.00000000000E+00  0.82272285470E+03  0.82272285470E+03  0.00000000000E+00 0.  1.
         21   -1    0    0  501  503 -0.00000000000E+00 -0.00000000000E+00 -0.15851435788E+03  0.15851435788E+03  0.00000000000E+00 0. -1.
          6    1    1    2  501    0  0.12623837969E+03 -0.10896850050E+02 -0.62652968339E+02  0.22340381440E+03  0.17300000000E+03 0. -1.
         -6    1    1    2    0  502 -0.12623837969E+03  0.10896850050E+02  0.72686146517E+03  0.75783339818E+03  0.17300000000E+03 0.  1.
</event>
<event>
 4    1  0.6031777E+000  0.1000000E+03  0.7546771E-02  0.1280296E+00
         21   -1    0    0  503  502  0.00000000000E+00  0.00000000000E+00  0.79974045841E+02  0.79974045841E+02  0.00000000000E+00 0.  1.
         21   -1    0    0  501  503 -0.00000000000E+00 -0.00000000000E+00 -0.59567919782E+03  0.59567919782E+03  0.00000000000E+00 0. -1.
          6    1    1    2  501    0  0.10712685492E+03  0.37051640961E+02 -0.36576487420E+03  0.42019272999E+03  0.17300000000E+03 0. -1.
         -6    1    1    2    0  502 -0.10712685492E+03 -0.37051640961E+02 -0.14994027778E+03  0.25546051367E+03  0.17300000000E+03 0.  1.
</event>
<event>
 4    1  0.6031777E+000  0.1000000E+03  0.7546771E-02  0.1280296E+00
         21   -1    0    0  503  502  0.00000000000E+00  0.00000000000E+00  0.86049379034E+03  0.86049379034E+03  0.00000000000E+00 0.  1.
         21   -1    0    0  501  503 -0.00000000000E+00 -0.00000000000E+00 -0.52560646889E+03  0.52560646889E+03  0.00000000000E+00 0. -1.
          6    1    1    2  501    0  0.30082262810E+03 -0.57559702769E+03  0.14336561328E+03  0.68723277783E+03  0.17300000000E+03 0. -1.
         -6    1    1    2    0  502 -0.30082262810E+03  0.57559702769E+03  0.19152170817E+03  0.69886748140E+03  0.17300000000E+03 0. -1.
</event>
<event>
 4    1  0.6031777E+000  0.1000000E+03  0.7546771E-02  0.1280296E+00
         21   -1    0    0  501  502  0.00000000000E+00  0.00000000000E+00  0.48381389678E+03  0.48381389678E+03  0.00000000000E+00 0. -1.
         21   -1    0    0  502  503 -0.00000000000E+00 -0.00000000000E+00 -0.90959892431E+03  0.90959892431E+03  0.00000000000E+00 0. -1.
          6    1    1    2  501    0  0.10235227149E+03  0.32238063822E+03  0.35824727716E+03  0.52218327718E+03  0.17300000000E+03 0. -1.
         -6    1    1    2    0  503 -0.10235227149E+03 -0.32238063822E+03 -0.78403230469E+03  0.87122954390E+03  0.17300000000E+03 0. -1.
</event>
<event>
 4    1  0.6031777E+000  0.1000000E+03  0.7546771E-02  0.1280296E+00
         21   -1    0    0  503  502  0.00000000000E+00  0.00000000000E+00  0.96165483573E+02  0.96165483573E+02  0.00000000000E+00 0. -1.
         21   -1    0    0  501  503 -0.00000000000E+00 -0.00000000000E+00 -0.97854996682E+03  0.97854996682E+03  0.00000000000E+00 0. -1.
          6    1    1    2  501    0 -0.68732839469E+02 -0.10685354676E+03 -0.82510012263E+03  0.85256149106E+03  0.17300000000E+03 0. -1.
         -6    1    1    2    0  502  0.68732839469E+02  0.10685354676E+03 -0.57284360624E+02  0.22215395934E+03  0.17300000000E+03 0. -1.
</event>
<event>
 4    1  0.6031777E+000  0.1000000E+03  0.7546771E-02  0.1280296E+00
         21   -1    0    0  503  502  0.00000000000E+00  0.00000000000E+00  0.13662968718E+03  0.13662968718E+03  0.00000000000E+00 0. -1.
         21   -1    0    0  501  503 -0.00000000000E+00 -0.00000000000E+00 -0.54571484864E+03  0.54571484864E+03  0.00000000000E+00 0. -1.
          6    1    1    2  501    0  0.18579587517E+03  0.10015441420E+03 -0.19330899469E+03  0.33443741020E+03  0.17300000000E+03 0. -1.
         -6    1    1    2    0  502 -0.18579587517E+03 -0.10015441420E+03 -0.21577616676E+03  0.34790712562E+03  0.17300000000E+03 0. -1.
</event>
<event>
 4    1  0.6031777E+000  0.1000000E+03  0.7546771E-02  0.1280296E+00
         21   -1    0    0  503  502  0.00000000000E+00  0.00000000000E+00  0.33420703403E+02  0.33420703403E+02  0.00000000000E+00 0. -1.
         21   -1    0    0  501  503 -0.00000000000E+00 -0.00000000000E+00 -0.19211538523E+04  0.19211538523E+04  0.00000000000E+00 0. -1.
          6    1    1    2  501    0  0.15802358325E+03 -0.51904936831E+02 -0.12574775036E+04  0.12801735223E+04  0.17300000000E+03 0. -1.
         -6    1    1    2    0  502 -0.15802358325E+03  0.51904936831E+02 -0.63025564536E+03  0.67440103339E+03  0.17300000000E+03 0. -1.
</event>
<event>
 4    1  0.6031777E+000  0.1000000E+03  0.7546771E-02  0.1280296E+00
         21   -1    0    0  503  502  0.00000000000E+00  0.00000000000E+00  0.25216889418E+03  0.25216889418E+03  0.00000000000E+00 0. -1.
         21   -1    0    0  501  503 -0.00000000000E+00 -0.00000000000E+00 -0.36498155733E+03  0.36498155733E+03  0.00000000000E+00 0. -1.
          6    1    1    2  501    0  0.43272170812E+02 -0.22635208052E+03 -0.15290184899E+03  0.32621422493E+03  0.17300000000E+03 0. -1.
         -6    1    1    2    0  502 -0.43272170812E+02  0.22635208052E+03  0.40089185840E+02  0.29093622659E+03  0.17300000000E+03 0. -1.
</event>
<event>
 4    1  0.6031777E+000  0.1000000E+03  0.7546771E-02  0.1280296E+00
         21   -1    0    0  501  502  0.00000000000E+00  0.00000000000E+00  0.19693459144E+03  0.19693459144E+03  0.00000000000E+00 0.  1.
         21   -1    0    0  502  503 -0.00000000000E+00 -0.00000000000E+00 -0.30625441461E+03  0.30625441461E+03  0.00000000000E+00 0.  1.
          6    1    1    2  501    0  0.28863797796E+02 -0.73427643059E+02  0.10457291499E+03  0.21700053488E+03  0.17300000000E+03 0.  1.
         -6    1    1    2    0  503 -0.28863797796E+02  0.73427643059E+02 -0.21389273817E+03  0.28618847117E+03  0.17300000000E+03 0.  1.
</event>
<event>
 4    1  0.6031777E+000  0.1000000E+03  0.7546771E-02  0.1280296E+00
         21   -1    0    0  501  502  0.00000000000E+00  0.00000000000E+00  0.12795548063E+04  0.12795548063E+04  0.00000000000E+00 0.  1.
         21   -1    0    0  502  503 -0.00000000000E+00 -0.00000000000E+00 -0.79913947320E+02  0.79913947320E+02  0.00000000000E+00 0.  1.
          6    1    1    2  501    0  0.26219216536E+03  0.24100243958E+02  0.71624348804E+03  0.78246999144E+03  0.17300000000E+03 0.  1.
         -6    1    1    2    0  503 -0.26219216536E+03 -0.24100243958E+02  0.48339737097E+03  0.57699876222E+03  0.17300000000E+03 0.  1.
</event>
<event>
 4    1  0.6031777E+000  0.1000000E+03  0.7546771E-02  0.1280296E+00
         21   -1    0    0  503  502  0.00000000000E+00  0.00000000000E+00  0.35803725126E+03  0.35803725126E+03  0.00000000000E+00 0. -1.
         21   -1    0    0  501  503 -0.00000000000E+00 -0.00000000000E+00 -0.99175784502E+02  0.99175784502E+02  0.00000000000E+00 0. -1.
          6    1    1    2  501    0 -0.19253785138E+02  0.33929135210E+02  0.52151412701E+02  0.18485308844E+03  0.17300000000E+03 0. -1.
         -6    1    1    2    0  502  0.19253785138E+02 -0.33929135210E+02  0.20671005406E+03  0.27235994732E+03  0.17300000000E+03 0. -1.
</event>
<event>
 4    1  0.6031777E+000  0.1000000E+03  0.7546771E-02  0.1280296E+00
         21   -1    0    0  503  502  0.00000000000E+00  0.00000000000E+00  0.14416593293E+04  0.14416593293E+04  0.00000000000E+00 0.  1.
         21   -1    0    0  501  503 -0.00000000000E+00 -0.00000000000E+00 -0.23383098692E+02  0.23383098692E+02  0.00000000000E+00 0.  1.
          6    1    1    2  501    0 -0.12652925322E+02  0.37377559086E+02  0.52097566314E+03  0.55036516971E+03  0.17300000000E+03 0.  1.
         -6    1    1    2    0  502  0.12652925322E+02 -0.37377559086E+02  0.89730056743E+03  0.91467725824E+03  0.17300000000E+03 0.  1.
</event>
<event>
 4    1  0.6031777E+000  0.1000000E+03  0.7546771E-02  0.1280296E+00
         21   -1    0    0  503  502  0.00000000000E+00  0.00000000000E+00  0.10852595520E+03  0.10852595520E+03  0.00000000000E+00 0.  1.
         21   -1    0    0  501  503 -0.00000000000E+00 -0.00000000000E+00 -0.41271474058E+03  0.41271474058E+03  0.00000000000E+00 0.  1.
          6    1    1    2  501    0  0.22373700172E+02  0.64969163393E+02 -0.27609642173E+03  0.33298619903E+03  0.17300000000E+03 0.  1.
         -6    1    1    2    0  502 -0.22373700172E+02 -0.64969163393E+02 -0.28092363650E+02  0.18825449675E+03  0.17300000000E+03 0.  1.
</event>
<event>
 4    1  0.6031777E+000  0.1000000E+03  0.7546771E-02  0.1280296E+00
         21   -1    0    0  503  502  0.00000000000E+00  0.00000000000E+00  0.64159702444E+03  0.64159702444E+03  0.00000000000E+00 0.  1.
         21   -1    0    0  501  503 -0.00000000000E+00 -0.00000000000E+00 -0.55480445735E+02  0.55480445735E+02  0.00000000000E+00 0.  1.
          6    1    1    2  501    0  0.62361801533E+02  0.32224429690E+02  0.24281569411E+03  0.30629376335E+03  0.17300000000E+03 0.  1.
         -6    1    1    2    0  502 -0.62361801533E+02 -0.32224429690E+02  0.34330088460E+03  0.39078370683E+03  0.17300000000E+03 0.  1.
</event>
<event>
 4    1  0.6031777E+000  0.1000000E+03  0.7546771E-02  0.1280296E+00
         21   -1    0    0  503  502  0.00000000000E+00  0.00000000000E+00  0.85276781780E+02  0.85276781780E+02  0.00000000000E+00 0.  1.
         21   -1    0    0  501  503 -0.00000000000E+00 -0.00000000000E+00 -0.46956753635E+03  0.46956753635E+03  0.00000000000E+00 0.  1.
          6    1    1    2  501    0  0.11199700355E+02 -0.91972307371E+02 -0.24637092385E+03  0.31497931794E+03  0.17300000000E+03 0.  1.
         -6    1    1    2    0  502 -0.11199700355E+02  0.91972307371E+02 -0.13791983072E+03  0.23986500019E+03  0.17300000000E+03 0.  1.
</event>
<event>
 4    1  0.6031777E+000  0.1000000E+03  0.7546771E-02  0.1280296E+00
         21   -1    0    0  503  502  0.00000000000E+00  0.00000000000E+00  0.27809163018E+03  0.27809163018E+03  0.00000000000E+00 0.  1.
         21   -1    0    0  501  503 -0.00000000000E+00 -0.00000000000E+00 -0.23848370553E+03  0.23848370553E+03  0.00000000000E+00 0.  1.
          6    1    1    2  501    0  0.10153383650E+03 -0.11835193734E+03 -0.90406877367E+02  0.24983735610E+03  0.17300000000E+03 0.  1.
         -6    1    1    2    0  502 -0.10153383650E+03  0.11835193734E+03  0.13001480201E+03  0.26673797961E+03  0.17300000000E+03 0.  1.
</event>
<event>
 4    1  0.6031777E+000  0.1000000E+03  0.7546771E-02  0.1280296E+00
         21   -1    0    0  503  502  0.00000000000E+00  0.00000000000E+00  0.60144070589E+03  0.60144070589E+03  0.00000000000E+00 0.  1.
         21   -1    0    0  501  503 -0.00000000000E+00 -0.00000000000E+00 -0.57566294251E+02  0.57566294251E+02  0.00000000000E+00 0.  1.
          6    1    1    2  501    0 -0.20522147983E+02 -0.38067024017E+02  0.17784146166E+03  0.25184686292E+03  0.17300000000E+03 0.  1.
         -6    1    1    2    0  502  0.20522147983E+02  0.38067024017E+02  0.36603294998E+03  0.40716013722E+03  0.17300000000E+03 0.  1.
</event>
<event>
 4    1  0.6031777E+000  0.1000000E+03  0.7546771E-02  0.1280296E+00
         21   -1    0    0  503  502  0.00000000000E+00  0.00000000000E+00  0.32709627026E+03  0.32709627026E+03  0.00000000000E+00 0. -1.
         21   -1    0    0  501  503 -0.00000000000E+00 -0.00000000000E+00 -0.57864560565E+03  0.57864560565E+03  0.00000000000E+00 0. -1.
          6    1    1    2  501    0  0.70019638484E+02 -0.51436074941E+01 -0.53482290405E+03  0.56647484072E+03  0.17300000000E+03 0. -1.
         -6    1    1    2    0  502 -0.70019638484E+02  0.51436074941E+01  0.28327356866E+03  0.33926703520E+03  0.17300000000E+03 0. -1.
</event>
<event>
 4    1  0.6031777E+000  0.1000000E+03  0.7546771E-02  0.1280296E+00
         21   -1    0    0  503  502  0.00000000000E+00  0.00000000000E+00  0.96800401890E+02  0.96800401890E+02  0.00000000000E+00 0. -1.
         21   -1    0    0  501  503 -0.00000000000E+00 -0.00000000000E+00 -0.39144717751E+03  0.39144717751E+03  0.00000000000E+00 0. -1.
          6    1    1    2  501    0 -0.15322506981E+02 -0.85355691044E+02 -0.17371546097E+03  0.26005083079E+03  0.17300000000E+03 0. -1.
         -6    1    1    2    0  502  0.15322506981E+02  0.85355691044E+02 -0.12093131465E+03  0.22819674861E+03  0.17300000000E+03 0. -1.
</event>
<event>
 4    1  0.6031777E+000  0.1000000E+03  0.7546771E-02  0.1280296E+00
         21   -1    0    0  501  502  0.00000000000E+00  0.00000000000E+00  0.70218490794E+02  0.70218490794E+02  0.00000000000E+00 0.  1.
         21   -1    0    0  502  503 -0.00000000000E+00 -0.00000000000E+00 -0.13279494146E+04  0.13279494146E+04  0.00000000000E+00 0.  1.
          6    1    1    2  501    0  0.70620433125E+02  0.23575059442E+03 -0.50876677703E+03  0.59104840898E+03  0.17300000000E+03 0.  1.
         -6    1    1    2    0  503 -0.70620433125E+02 -0.23575059442E+03 -0.74896414678E+03  0.80711949642E+03  0.17300000000E+03 0.  1.
</event>
<event>
 4    1  0.6031777E+000  0.1000000E+03  0.7546771E-02  0.1280296E+00
         21   -1    0    0  501  502  0.00000000000E+00  0.00000000000E+00  0.11744656978E+03  0.11744656978E+03  0.00000000000E+00 0. -1.
         21   -1    0    0  502  503 -0.00000000000E+00 -0.00000000000E+00 -0.41290224246E+03  0.41290224246E+03  0.00000000000E+00 0. -1.
          6    1    1    2  501    0  0.49897775161E+02 -0.35419569224E+02 -0.11322229510E+01  0.18350644615E+03  0.17300000000E+03 0. -1.
         -6    1    1    2    0  503 -0.49897775161E+02  0.35419569224E+02 -0.29432344973E+03  0.34684236608E+03  0.17300000000E+03 0. -1.
</event>
<event>
 4    1  0.6031777E+000  0.1000000E+03  0.7546771E-02  0.1280296E+00
         21   -1    0    0  501  502  0.00000000000E+00  0.00000000000E+00  0.14251674371E+03  0.14251674371E+03  0.00000000000E+00 0. -1.
         21   -1    0    0  502  503 -0.00000000000E+00 -0.00000000000E+00 -0.23474698029E+03  0.23474698029E+03  0.00000000000E+00 0. -1.
          6    1    1    2  501    0  0.48132547308E+02  0.10927310082E+02 -0.80166957011E+02  0.19695656682E+03  0.17300000000E+03 0. -1.
         -6    1    1    2    0  503 -0.48132547308E+02 -0.10927310082E+02 -0.12063279575E+02  0.18030715718E+03  0.17300000000E+03 0. -1.
</event>
<event>
 4    1  0.6031777E+000  0.1000000E+03  0.7546771E-02  0.1280296E+00
         21   -1    0    0  501  502  0.00000000000E+00  0.00000000000E+00  0.65737231352E+03  0.65737231352E+03  0.00000000000E+00 0. -1.
         21   -1    0    0  502  503 -0.00000000000E+00 -0.00000000000E+00 -0.26208035034E+03  0.26208035034E+03  0.00000000000E+00 0. -1.
          6    1    1    2  501    0 -0.18531411314E+03 -0.20236975104E+02  0.56096797062E+03  0.61592606679E+03  0.17300000000E+03 0. -1.
         -6    1    1    2    0  503  0.18531411314E+03  0.20236975104E+02 -0.16567600744E+03  0.30352659707E+03  0.17300000000E+03 0. -1.
</event>
<event>
 4    1  0.6031777E+000  0.1000000E+03  0.7546771E-02  0.1280296E+00
         21   -1    0    0  503  502  0.00000000000E+00  0.00000000000E+00  0.90074977558E+02  0.90074977558E+02  0.00000000000E+00 0. -1.
         21   -1    0    0  501  503 -0.00000000000E+00 -0.00000000000E+00 -0.56404448794E+03  0.56404448794E+03  0.00000000000E+00 0.  1.
          6    1    1    2  501    0 -0.53096675742E+02 -0.57710496589E+02 -0.41307421695E+03  0.45465268843E+03  0.17300000000E+03 0. -1.
         -6    1    1    2    0  502  0.53096675742E+02  0.57710496589E+02 -0.60895293436E+02  0.19946677707E+03  0.17300000000E+03 0.  1.
</event>
<event>
 4    1  0.6031777E+000  0.1000000E+03  0.7546771E-02  0.1280296E+00
         21   -1    0    0  503  502  0.00000000000E+00  0.00000000000E+00  0.32666213148E+03  0.32666213148E+03  0.00000000000E+00 0. -1.
         21   -1    0    0  501  503 -0.00000000000E+00 -0.00000000000E+00 -0.15842684620E+03  0.15842684620E+03  0.00000000000E+00 0.  1.
          6    1    1    2  501    0 -0.11853520704E+03  0.86671668470E+02  0.10132495402E+03  0.24851221244E+03  0.17300000000E+03 0. -1.
         -6    1    1    2    0  502  0.11853520704E+03 -0.86671668470E+02  0.66910331270E+02  0.23657676525E+03  0.17300000000E+03 0.  1.
</event>
<event>
 4    1  0.6031777E+000  0.1000000E+03  0.7546771E-02  0.1280296E+00
         21   -1    0    0  503  502  0.00000000000E+00  0.00000000000E+00  0.28288599965E+03  0.28288599965E+03  0.00000000000E+00 0.  1.
         21   -1    0    0  501  503 -0.00000000000E+00 -0.00000000000E+00 -0.18466243976E+03  0.18466243976E+03  0.00000000000E+00 0. -1.
          6    1    1    2  501    0 -0.12532040334E+02  0.14834041930E+03  0.61533399824E+02  0.23638377975E+03  0.17300000000E+03 0. -1.
         -6    1    1    2    0  502  0.12532040334E+02 -0.14834041930E+03  0.36690160064E+02  0.23116465967E+03  0.17300000000E+03 0.  1.
</event>
<event>
 4    1  0.6031777E+000  0.1000000E+03  0.7546771E-02  0.1280296E+00
         21   -1    0    0  503  502  0.00000000000E+00  0.00000000000E+00  0.11369223971E+03  0.11369223971E+03  0.00000000000E+00 0.  1.
         21   -1    0    0  501  503 -0.00000000000E+00 -0.00000000000E+00 -0.20431586066E+04  0.20431586066E+04  0.00000000000E+00 0. -1.
          6    1    1    2  501    0 -0.12139976081E+02  0.52363138898E+02 -0.19640788331E+04  0.19724157625E+04  0.17300000000E+03 0. -1.
         -6    1    1    2    0  502  0.12139976081E+02 -0.52363138898E+02  0.34612466229E+02  0.18443508385E+03  0.17300000000E+03 0.  1.
</event>
<event>
 4    1  0.6031777E+000  0.1000000E+03  0.7546771E-02  0.1280296E+00
         21   -1    0    0  501  502  0.00000000000E+00  0.00000000000E+00  0.61032354645E+02  0.61032354645E+02  0.00000000000E+00 0.  1.
         21   -1    0    0  502  503 -0.00000000000E+00 -0.00000000000E+00 -0.12457485551E+04  0.12457485551E+04  0.00000000000E+00 0. -1.
          6    1    1    2  501    0  0.28094099283E+02 -0.13179598819E+03 -0.19625320578E+03  0.29428520468E+03  0.17300000000E+03 0.  1.
         -6    1    1    2    0  503 -0.28094099283E+02  0.13179598819E+03 -0.98846299471E+03  0.10124957051E+04  0.17300000000E+03 0. -1.
</event>
<event>
 4    1  0.6031777E+000  0.1000000E+03  0.7546771E-02  0.1280296E+00
         21   -1    0    0  501  502  0.00000000000E+00  0.00000000000E+00  0.53042965589E+03  0.53042965589E+03  0.00000000000E+00 0.  1.
         21   -1    0    0  502  503 -0.00000000000E+00 -0.00000000000E+00 -0.11215439753E+03  0.11215439753E+03  0.00000000000E+00 0. -1.
          6    1    1    2  501    0 -0.11656295008E+03  0.60837581260E+02  0.35506986751E+03  0.41628324905E+03  0.17300000000E+03 0.  1.
         -6    1    1    2    0  503  0.11656295008E+03 -0.60837581260E+02  0.63205390860E+02  0.22630080437E+03  0.17300000000E+03 0. -1.
</event>
<event>
 4    1  0.6031777E+000  0.1000000E+03  0.7546771E-02  0.1280296E+00
         21   -1    0    0  501  502  0.00000000000E+00  0.00000000000E+00  0.76104149336E+03  0.76104149336E+03  0.00000000000E+00 0.  1.
         21   -1    0    0  502  503 -0.00000000000E+00 -0.00000000000E+00 -0.50806421234E+02  0.50806421234E+02  0.00000000000E+00 0.  1.
          6    1    1    2  501    0 -0.75590820496E+02  0.53941061126E+02  0.37707967499E+03  0.42513726197E+03  0.17300000000E+03 0.  1.
         -6    1    1    2    0  503  0.75590820496E+02 -0.53941061126E+02  0.33315539714E+03  0.38671065263E+03  0.17300000000E+03 0.  1.
</event>
<event>
 4    1  0.6031777E+000  0.1000000E+03  0.7546771E-02  0.1280296E+00
         21   -1    0    0  503  502  0.00000000000E+00  0.00000000000E+00  0.29203063404E+03  0.29203063404E+03  0.00000000000E+00 0. -1.
         21   -1    0    0  501  503 -0.00000000000E+00 -0.00000000000E+00 -0.14958515558E+03  0.14958515558E+03  0.00000000000E+00 0. -1.
          6    1    1    2  501    0 -0.19255265104E+01 -0.91769409484E+02 -0.59002254050E+01  0.19593147993E+03  0.17300000000E+03 0. -1.
         -6    1    1    2    0  502  0.19255265104E+01  0.91769409484E+02  0.14834570387E+03  0.24568430968E+03  0.17300000000E+03 0. -1.
</event>
<event>
 4    1  0.6031777E+000  0.1000000E+03  0.7546771E-02  0.1280296E+00
         21   -1    0    0  503  502  0.00000000000E+00  0.00000000000E+00  0.62812458757E+03  0.62812458757E+03  0.00000000000E+00 0.  1.
         21   -1    0    0  501  503 -0.00000000000E+00 -0.00000000000E+00 -0.14410196181E+03  0.14410196181E+03  0.00000000000E+00 0.  1.
          6    1    1    2  501    0 -0.40219980528E+02 -0.83946965864E+02 -0.50420931706E+02  0.20282014265E+03  0.17300000000E+03 0.  1.
         -6    1    1    2    0  502  0.40219980528E+02  0.83946965864E+02  0.53444355746E+03  0.56940640673E+03  0.17300000000E+03 0.  1.
</event>
<event>
 4    1  0.6031777E+000  0.1000000E+03  0.7546771E-02  0.1280296E+00
         21   -1    0    0  501  502  0.00000000000E+00  0.00000000000E+00  0.89658561585E+03  0.89658561585E+03  0.00000000000E+00 0. -1.
         21   -1    0    0  502  503 -0.00000000000E+00 -0.00000000000E+00 -0.93804165633E+02  0.93804165633E+02  0.00000000000E+00 0.  1.
          6    1    1    2  501    0  0.13072820047E+03 -0.17616396657E+03  0.53421509522E+03  0.60285850203E+03  0.17300000000E+03 0. -1.
         -6    1    1    2    0  503 -0.13072820047E+03  0.17616396657E+03  0.26856635500E+03  0.38753127945E+03  0.17300000000E+03 0.  1.
</event>
<event>
 4    1  0.6031777E+000  0.1000000E+03  0.7546771E-02  0.1280296E+00
         21   -1    0    0  501  502  0.00000000000E+00  0.00000000000E+00  0.26241952666E+03  0.26241952666E+03  0.00000000000E+00 0. -1.
         21   -1    0    0  502  503 -0.00000000000E+00 -0.00000000000E+00 -0.15148361239E+03  0.15148361239E+03  0.00000000000E+00 0.  1.
          6    1    1    2  501    0 -0.70628317002E+02  0.65145844970E+02  0.80699934125E+02  0.21371434123E+03  0.17300000000E+03 0. -1.
         -6    1    1    2    0  503  0.70628317002E+02 -0.65145844970E+02  0.30235980144E+02  0.20018879783E+03  0.17300000000E+03 0.  1.
</event>
<event>
 4    1  0.6031777E+000  0.1000000E+03  0.7546771E-02  0.1280296E+00
         21   -1    0    0  501  502  0.00000000000E+00  0.00000000000E+00  0.37483630779E+03  0.37483630779E+03  0.00000000000E+00 0. -1.
         21   -1    0    0  502  503 -0.00000000000E+00 -0.00000000000E+00 -0.23777409751E+03  0.23777409751E+03  0.00000000000E+00 0.  1.
          6    1    1    2  501    0  0.63986671950E+02 -0.22403922811E+03  0.14042130359E+03  0.32238953522E+03  0.17300000000E+03 0.  1.
         -6    1    1    2    0  503 -0.63986671950E+02  0.22403922811E+03 -0.33590933034E+01  0.29022087008E+03  0.17300000000E+03 0.  1.
</event>
<event>
 4    1  0.6031777E+000  0.1000000E+03  0.7546771E-02  0.1280296E+00
         21   -1    0    0  501  502  0.00000000000E+00  0.00000000000E+00  0.78145292374E+02  0.78145292374E+02  0.00000000000E+00 0. -1.
         21   -1    0    0  502  503 -0.00000000000E+00 -0.00000000000E+00 -0.10288480935E+04  0.10288480935E+04  0.00000000000E+00 0.  1.
          6    1    1    2  501    0  0.14518743599E+03  0.12193396649E+03 -0.24010585256E+03  0.35146422888E+03  0.17300000000E+03 0.  1.
         -6    1    1    2    0  503 -0.14518743599E+03 -0.12193396649E+03 -0.71059694860E+03  0.75552915702E+03  0.17300000000E+03 0.  1.
</event>
<event>
 4    1  0.6031777E+000  0.1000000E+03  0.7546771E-02  0.1280296E+00
         21   -1    0    0  503  502  0.00000000000E+00  0.00000000000E+00  0.86075111463E+03  0.86075111463E+03  0.00000000000E+00 0. -1.
         21   -1    0    0  501  503 -0.00000000000E+00 -0.00000000000E+00 -0.11740336310E+03  0.11740336310E+03  0.00000000000E+00 0. -1.
          6    1    1    2  501    0  0.12105270938E+03 -0.21507495306E+03  0.21617784429E+03  0.37090814799E+03  0.17300000000E+03 0. -1.
         -6    1    1    2    0  502 -0.12105270938E+03  0.21507495306E+03  0.52716990724E+03  0.60724632974E+03  0.17300000000E+03 0. -1.
</event>
<event>
 4    1  0.6031777E+000  0.1000000E+03  0.7546771E-02  0.1280296E+00
         21   -1    0    0  503  502  0.00000000000E+00  0.00000000000E+00  0.14177375580E+03  0.14177375580E+03  0.00000000000E+00 0. -1.
         21   -1    0    0  501  503 -0.00000000000E+00 -0.00000000000E+00 -0.41933074442E+03  0.41933074442E+03  0.00000000000E+00 0. -1.
          6    1    1    2  501    0 -0.10202508239E+03  0.45469632775E+02 -0.28899909073E+03  0.35486064784E+03  0.17300000000E+03 0. -1.
         -6    1    1    2    0  502  0.10202508239E+03 -0.45469632775E+02  0.11442102114E+02  0.20624385237E+03  0.17300000000E+03 0. -1.
</event>
<event>
 4    1  0.6031777E+000  0.1000000E+03  0.7546771E-02  0.1280296E+00
         21   -1    0    0  501  502  0.00000000000E+00  0.00000000000E+00  0.97605818133E+02  0.97605818133E+02  0.00000000000E+00 0. -1.
         21   -1    0    0  502  503 -0.00000000000E+00 -0.00000000000E+00 -0.37617968108E+03  0.37617968108E+03  0.00000000000E+00 0.  1.
          6    1    1    2  501    0  0.12391915735E+02  0.64980741697E+02 -0.78567299306E+02  0.20119114515E+03  0.17300000000E+03 0.  1.
         -6    1    1    2    0  503 -0.12391915735E+02 -0.64980741697E+02 -0.20000656364E+03  0.27259435406E+03  0.17300000000E+03 0. -1.
</event>
<event>
 4    1  0.6031777E+000  0.1000000E+03  0.7546771E-02  0.1280296E+00
         21   -1    0    0  501  502  0.00000000000E+00  0.00000000000E+00  0.12378081722E+04  0.12378081722E+04  0.00000000000E+00 0. -1.
         21   -1    0    0  502  503 -0.00000000000E+00 -0.00000000000E+00 -0.34236202909E+02  0.34236202909E+02  0.00000000000E+00 0.  1.
          6    1    1    2  501    0  0.53617107949E+02 -0.85751451229E+02  0.74738292574E+03  0.77378184480E+03  0.17300000000E+03 0.  1.
         -6    1    1    2    0  503 -0.53617107949E+02  0.85751451229E+02  0.45618904353E+03  0.49826253029E+03  0.17300000000E+03 0. -1.
</event>
<event>
 4    1  0.6031777E+000  0.1000000E+03  0.7546771E-02  0.1280296E+00
         21   -1    0    0  501  502  0.00000000000E+00  0.00000000000E+00  0.23585552437E+03  0.23585552437E+03  0.00000000000E+00 0. -1.
         21   -1    0    0  502  503 -0.00000000000E+00 -0.00000000000E+00 -0.24323766406E+03  0.24323766406E+03  0.00000000000E+00 0.  1.
          6    1    1    2  501    0 -0.95987325408E+02 -0.11464136060E+03  0.67617736706E+02  0.23844782766E+03  0.17300000000E+03 0.  1.
         -6    1    1    2    0  503  0.95987325408E+02  0.11464136060E+03 -0.74999876394E+02  0.24064536077E+03  0.17300000000E+03 0.  1.
</event>
<event>
 4    1  0.6031777E+000  0.1000000E+03  0.7546771E-02  0.1280296E+00
         21   -1    0    0  501  502  0.00000000000E+00  0.00000000000E+00  0.59112804265E+03  0.59112804265E+03  0.00000000000E+00 0. -1.
         21   -1    0    0  502  503 -0.00000000000E+00 -0.00000000000E+00 -0.10540133044E+03  0.10540133044E+03  0.00000000000E+00 0.  1.
          6    1    1    2  501    0 -0.63447681202E+02  0.13551752316E+03  0.38228911601E+03  0.44549363133E+03  0.17300000000E+03 0.  1.
         -6    1    1    2    0  503  0.63447681202E+02 -0.13551752316E+03  0.10343759620E+03  0.25103574176E+03  0.17300000000E+03 0.  1.
</event>
<event>
 4    1  0.6031777E+000  0.1000000E+03  0.7546771E-02  0.1280296E+00
         21   -1    0    0  503  502  0.00000000000E+00  0.00000000000E+00  0.72054082079E+02  0.72054082079E+02  0.00000000000E+00 0.  1.
         21   -1    0    0  501  503 -0.00000000000E+00 -0.00000000000E+00 -0.57468148139E+03  0.57468148139E+03  0.00000000000E+00 0.  1.
          6    1    1    2  501    0 -0.85060790013E+02  0.91568719578E+01 -0.35380770038E+03  0.40302366575E+03  0.17300000000E+03 0.  1.
         -6    1    1    2    0  502  0.85060790013E+02 -0.91568719578E+01 -0.14881969893E+03  0.24371189772E+03  0.17300000000E+03 0.  1.
</event>
<event>
 4    1  0.6031777E+000  0.1000000E+03  0.7546771E-02  0.1280296E+00
         21   -1    0    0  503  502  0.00000000000E+00  0.00000000000E+00  0.53118892283E+02  0.53118892283E+02  0.00000000000E+00 0.  1.
         21   -1    0    0  501  503 -0.00000000000E+00 -0.00000000000E+00 -0.24626916326E+04  0.24626916326E+04  0.00000000000E+00 0.  1.
          6    1    1    2  501    0 -0.29284252350E+03  0.42801116847E+02 -0.16058449940E+04  0.16420279607E+04  0.17300000000E+03 0.  1.
         -6    1    1    2    0  502  0.29284252350E+03 -0.42801116847E+02 -0.80372774640E+03  0.87378256420E+03  0.17300000000E+03 0.  1.
</event>
<event>
 4    1  0.6031777E+000  0.1000000E+03  0.7546771E-02  0.1280296E+00
         21   -1    0    0  503  502  0.00000000000E+00  0.00000000000E+00  0.47255475842E+02  0.47255475842E+02  0.00000000000E+00 0.  1.
         21   -1    0    0  501  503 -0.00000000000E+00 -0.00000000000E+00 -0.78321106566E+03  0.78321106566E+03  0.00000000000E+00 0.  1.
          6    1    1    2  501    0  0.25286635969E+02 -0.34437196371E+02 -0.52446625555E+03  0.55391261735E+03  0.17300000000E+03 0.  1.
         -6    1    1    2    0  502 -0.25286635969E+02  0.34437196371E+02 -0.21148933427E+03  0.27655392415E+03  0.17300000000E+03 0.  1.
</event>
<event>
 4    1  0.6031777E+000  0.1000000E+03  0.7546771E-02  0.1280296E+00
         21   -1    0    0  503  502  0.00000000000E+00  0.00000000000E+00  0.30667474648E+03  0.30667474648E+03  0.00000000000E+00 0.  1.
         21   -1    0    0  501  503 -0.00000000000E+00 -0.00000000000E+00 -0.29248027307E+03  0.29248027307E+03  0.00000000000E+00 0.  1.
          6    1    1    2  501    0  0.17069640337E+02 -0.12205243228E+03 -0.20409977811E+03  0.29457407943E+03  0.17300000000E+03 0.  1.
         -6    1    1    2    0  502 -0.17069640337E+02  0.12205243228E+03  0.21829425151E+03  0.30458094013E+03  0.17300000000E+03 0.  1.
</event>
<event>
 4    1  0.6031777E+000  0.1000000E+03  0.7546771E-02  0.1280296E+00
         21   -1    0    0  501  502  0.00000000000E+00  0.00000000000E+00  0.42323816440E+03  0.42323816440E+03  0.00000000000E+00 0. -1.
         21   -1    0    0  502  503 -0.00000000000E+00 -0.00000000000E+00 -0.82118372920E+02  0.82118372920E+02  0.00000000000E+00 0. -1.
          6    1    1    2  501    0 -0.30043420062E+02 -0.14004942983E+02  0.25331342085E+03  0.30853757421E+03  0.17300000000E+03 0. -1.
         -6    1    1    2    0  503  0.30043420062E+02  0.14004942983E+02  0.87806370632E+02  0.19681896311E+03  0.17300000000E+03 0. -1.
</event>
<event>
 4    1  0.6031777E+000  0.1000000E+03  0.7546771E-02  0.1280296E+00
         21   -1    0    0  501  502  0.00000000000E+00  0.00000000000E+00  0.11951086782E+03  0.11951086782E+03  0.00000000000E+00 0.  1.
         21   -1    0    0  502  503 -0.00000000000E+00 -0.00000000000E+00 -0.30703368848E+03  0.30703368848E+03  0.00000000000E+00 0.  1.
          6    1    1    2  501    0 -0.76058307417E+02  0.36316123670E+01 -0.59142948155E+02  0.19805287943E+03  0.17300000000E+03 0.  1.
         -6    1    1    2    0  503  0.76058307417E+02 -0.36316123670E+01 -0.12837987250E+03  0.22849167687E+03  0.17300000000E+03 0.  1.
</event>
<event>
 4    1  0.6031777E+000  0.1000000E+03  0.7546771E-02  0.1280296E+00
         21   -1    0    0  501  502  0.00000000000E+00  0.00000000000E+00  0.19284789699E+03  0.19284789699E+03  0.00000000000E+00 0.  1.
         21   -1    0    0  502  503 -0.00000000000E+00 -0.00000000000E+00 -0.21246477204E+03  0.21246477204E+03  0.00000000000E+00 0.  1.
          6    1    1    2  501    0  0.80138768286E+02 -0.55060269901E+02  0.30119792202E+02  0.20072383363E+03  0.17300000000E+03 0.  1.
         -6    1    1    2    0  503 -0.80138768286E+02  0.55060269901E+02 -0.49736667253E+02  0.20458883541E+03  0.17300000000E+03 0.  1.
</event>
<event>
 4    1  0.6031777E+000  0.1000000E+03  0.7546771E-02  0.1280296E+00
         21   -1    0    0  501  502  0.00000000000E+00  0.00000000000E+00  0.95576241507E+02  0.95576241507E+02  0.00000000000E+00 0.  1.
         21   -1    0    0  502  503 -0.00000000000E+00 -0.00000000000E+00 -0.35698440268E+03  0.35698440268E+03  0.00000000000E+00 0.  1.
          6    1    1    2  501    0  0.36494080022E+02  0.11675921884E+02 -0.66789810757E+02  0.18936214999E+03  0.17300000000E+03 0.  1.
         -6    1    1    2    0  503 -0.36494080022E+02 -0.11675921884E+02 -0.19461835042E+03  0.26319849420E+03  0.17300000000E+03 0.  1.
</event>
<event>
 4    1  0.6031777E+000  0.1000000E+03  0.7546771E-02  0.1280296E+00
         21   -1    0    0  503  502  0.00000000000E+00  0.00000000000E+00  0.28875184823E+03  0.28875184823E+03  0.00000000000E+00 0.  1.
         21   -1    0    0  501  503 -0.00000000000E+00 -0.00000000000E+00 -0.74930970591E+03  0.74930970591E+03  0.00000000000E+00 0. -1.
          6    1    1    2  501    0  0.63668788576E+02 -0.49105705544E+02 -0.70364887351E+03  0.72905131654E+03  0.17300000000E+03 0. -1.
         -6    1    1    2    0  502 -0.63668788576E+02  0.49105705544E+02  0.24309101584E+03  0.30901023760E+03  0.17300000000E+03 0. -1.
</event>
<event>
 4    1  0.6031777E+000  0.1000000E+03  0.7546771E-02  0.1280296E+00
         21   -1    0    0  501  502  0.00000000000E+00  0.00000000000E+00  0.13205422610E+04  0.13205422610E+04  0.00000000000E+00 0. -1.
         21   -1    0    0  502  503 -0.00000000000E+00 -0.00000000000E+00 -0.86639688661E+03  0.86639688661E+03  0.00000000000E+00 0.  1.
          6    1    1    2  501    0  0.14850164298E+03 -0.78244712289E+02  0.12924144878E+04  0.13147011757E+04  0.17300000000E+03 0.  1.
         -6    1    1    2    0  503 -0.14850164298E+03  0.78244712289E+02 -0.83826911349E+03  0.87223797188E+03  0.17300000000E+03 0.  1.
</event>
<event>
 4    1  0.6031777E+000  0.1000000E+03  0.7546771E-02  0.1280296E+00
         21   -1    0    0  501  502  0.00000000000E+00  0.00000000000E+00  0.79813137342E+03  0.79813137342E+03  0.00000000000E+00 0. -1.
         21   -1    0    0  502  503 -0.00000000000E+00 -0.00000000000E+00 -0.11607503801E+03  0.11607503801E+03  0.00000000000E+00 0. -1.
          6    1    1    2  501    0 -0.22773409600E+03  0.91031320330E+02  0.41708150957E+03  0.51384385312E+03  0.17300000000E+03 0. -1.
         -6    1    1    2    0  503  0.22773409600E+03 -0.91031320330E+02  0.26497482584E+03  0.40036255831E+03  0.17300000000E+03 0. -1.
</event>
<event>
 4    1  0.6031777E+000  0.1000000E+03  0.7546771E-02  0.1280296E+00
         21   -1    0    0  501  502  0.00000000000E+00  0.00000000000E+00  0.11282101374E+03  0.11282101374E+03  0.00000000000E+00 0. -1.
         21   -1    0    0  502  503 -0.00000000000E+00 -0.00000000000E+00 -0.33183796459E+03  0.33183796459E+03  0.00000000000E+00 0. -1.
          6    1    1    2  501    0  0.11826786133E+02 -0.27095075731E+02 -0.15910027178E+02  0.17622753747E+03  0.17300000000E+03 0. -1.
         -6    1    1    2    0  503 -0.11826786133E+02  0.27095075731E+02 -0.20310692367E+03  0.26843144086E+03  0.17300000000E+03 0. -1.
</event>
<event>
 4    1  0.6031777E+000  0.1000000E+03  0.7546771E-02  0.1280296E+00
         21   -1    0    0  503  502  0.00000000000E+00  0.00000000000E+00  0.72931050638E+02  0.72931050638E+02  0.00000000000E+00 0.  1.
         21   -1    0    0  501  503 -0.00000000000E+00 -0.00000000000E+00 -0.41886626801E+03  0.41886626801E+03  0.00000000000E+00 0.  1.
          6    1    1    2  501    0 -0.95956371886E+01 -0.14994238657E+02 -0.14849999695E+03  0.22868789329E+03  0.17300000000E+03 0.  1.
         -6    1    1    2    0  502  0.95956371886E+01  0.14994238657E+02 -0.19743522042E+03  0.26310942535E+03  0.17300000000E+03 0.  1.
</event>
<event>
 4    1  0.6031777E+000  0.1000000E+03  0.7546771E-02  0.1280296E+00
         21   -1    0    0  501  502  0.00000000000E+00  0.00000000000E+00  0.30217991585E+03  0.30217991585E+03  0.00000000000E+00 0.  1.
         21   -1    0    0  502  503 -0.00000000000E+00 -0.00000000000E+00 -0.16424885158E+03  0.16424885158E+03  0.00000000000E+00 0. -1.
          6    1    1    2  501    0  0.40550697643E+02 -0.13155668288E+03  0.97675551382E+02  0.24170443361E+03  0.17300000000E+03 0.  1.
         -6    1    1    2    0  503 -0.40550697643E+02  0.13155668288E+03  0.40255512890E+02  0.22472433381E+03  0.17300000000E+03 0. -1.
</event>
<event>
 4    1  0.6031777E+000  0.1000000E+03  0.7546771E-02  0.1280296E+00
         21   -1    0    0  501  502  0.00000000000E+00  0.00000000000E+00  0.14039445427E+03  0.14039445427E+03  0.00000000000E+00 0.  1.
         21   -1    0    0  502  503 -0.00000000000E+00 -0.00000000000E+00 -0.38859551651E+03  0.38859551651E+03  0.00000000000E+00 0. -1.
          6    1    1    2  501    0  0.13182707538E+03 -0.74540303476E+02 -0.17069396554E+03  0.28635653392E+03  0.17300000000E+03 0.  1.
         -6    1    1    2    0  503 -0.13182707538E+03  0.74540303476E+02 -0.77507096699E+02  0.24263343686E+03  0.17300000000E+03 0. -1.
</event>
<event>
 4    1  0.6031777E+000  0.1000000E+03  0.7546771E-02  0.1280296E+00
         21   -1    0    0  501  502  0.00000000000E+00  0.00000000000E+00  0.14367189136E+04  0.14367189136E+04  0.00000000000E+00 0.  1.
         21   -1    0    0  502  503 -0.00000000000E+00 -0.00000000000E+00 -0.21728538931E+02  0.21728538931E+02  0.00000000000E+00 0.  1.
          6    1    1    2  501    0 -0.55271425879E+01 -0.34663575269E+01  0.56179500257E+03  0.58786494185E+03  0.17300000000E+03 0.  1.
         -6    1    1    2    0  503  0.55271425879E+01  0.34663575269E+01  0.85319537213E+03  0.87058251071E+03  0.17300000000E+03 0.  1.
</event>
<event>
 4    1  0.6031777E+000  0.1000000E+03  0.7546771E-02  0.1280296E+00
         21   -1    0    0  501  502  0.00000000000E+00  0.00000000000E+00  0.14512483256E+03  0.14512483256E+03  0.00000000000E+00 0.  1.
         21   -1    0    0  502  503 -0.00000000000E+00 -0.00000000000E+00 -0.36849294662E+03  0.36849294662E+03  0.00000000000E+00 0.  1.
          6    1    1    2  501    0  0.14438735326E+03 -0.24515374024E+02 -0.60796684214E+02  0.23467839303E+03  0.17300000000E+03 0.  1.
         -6    1    1    2    0  503 -0.14438735326E+03  0.24515374024E+02 -0.16257142984E+03  0.27893938615E+03  0.17300000000E+03 0.  1.
</event>
<event>
 4    1  0.6031777E+000  0.1000000E+03  0.7546771E-02  0.1280296E+00
         21   -1    0    0  501  502  0.00000000000E+00  0.00000000000E+00  0.44288211192E+03  0.44288211192E+03  0.00000000000E+00 0.  1.
         21   -1    0    0  502  503 -0.00000000000E+00 -0.00000000000E+00 -0.45973558837E+03  0.45973558837E+03  0.00000000000E+00 0.  1.
          6    1    1    2  501    0 -0.20604137119E+03  0.22635961075E+03 -0.29129745891E+03  0.45659054917E+03  0.17300000000E+03 0.  1.
         -6    1    1    2    0  503  0.20604137119E+03 -0.22635961075E+03  0.27444398247E+03  0.44602715112E+03  0.17300000000E+03 0.  1.
</event>
<event>
 4    1  0.6031777E+000  0.1000000E+03  0.7546771E-02  0.1280296E+00
         21   -1    0    0  503  502  0.00000000000E+00  0.00000000000E+00  0.88427676732E+02  0.88427676732E+02  0.00000000000E+00 0.  1.
         21   -1    0    0  501  503 -0.00000000000E+00 -0.00000000000E+00 -0.60246416808E+03  0.60246416808E+03  0.00000000000E+00 0.  1.
          6    1    1    2  501    0 -0.66774372349E+02 -0.60788801024E+02 -0.44148555669E+03  0.48269306179E+03  0.17300000000E+03 0.  1.
         -6    1    1    2    0  502  0.66774372349E+02  0.60788801024E+02 -0.72550934655E+02  0.20819878302E+03  0.17300000000E+03 0.  1.
</event>
<event>
 4    1  0.6031777E+000  0.1000000E+03  0.7546771E-02  0.1280296E+00
         21   -1    0    0  503  502  0.00000000000E+00  0.00000000000E+00  0.19432786001E+04  0.19432786001E+04  0.00000000000E+00 0. -1.
         21   -1    0    0  501  503 -0.00000000000E+00 -0.00000000000E+00 -0.33045973096E+02  0.33045973096E+02  0.00000000000E+00 0. -1.
          6    1    1    2  501    0  0.45066645539E+02  0.98312025623E+02  0.36900317704E+03  0.42164985662E+03  0.17300000000E+03 0.  1.
         -6    1    1    2    0  502 -0.45066645539E+02 -0.98312025623E+02  0.15412294499E+04  0.15546747166E+04  0.17300000000E+03 0.  1.
</event>
<event>
 4    1  0.6031777E+000  0.1000000E+03  0.7546771E-02  0.1280296E+00
         21   -1    0    0  501  502  0.00000000000E+00  0.00000000000E+00  0.95032533665E+03  0.95032533665E+03  0.00000000000E+00 0.  1.
         21   -1    0    0  502  503 -0.00000000000E+00 -0.00000000000E+00 -0.47926090700E+02  0.47926090700E+02  0.00000000000E+00 0. -1.
          6    1    1    2  501    0  0.46820613469E+02  0.10846719488E+03  0.54646189531E+03  0.58524089505E+03  0.17300000000E+03 0. -1.
         -6    1    1    2    0  503 -0.46820613469E+02 -0.10846719488E+03  0.35593735065E+03  0.41301053231E+03  0.17300000000E+03 0.  1.
</event>
<event>
 4    1  0.6031777E+000  0.1000000E+03  0.7546771E-02  0.1280296E+00
         21   -1    0    0  501  502  0.00000000000E+00  0.00000000000E+00  0.15497709702E+04  0.15497709702E+04  0.00000000000E+00 0.  1.
         21   -1    0    0  502  503 -0.00000000000E+00 -0.00000000000E+00 -0.25038599101E+02  0.25038599101E+02  0.00000000000E+00 0. -1.
          6    1    1    2  501    0  0.21767932492E+02 -0.91637927697E+02  0.77009785110E+03  0.79489059181E+03  0.17300000000E+03 0. -1.
         -6    1    1    2    0  503 -0.21767932492E+02  0.91637927697E+02  0.75463451995E+03  0.77991897745E+03  0.17300000000E+03 0.  1.
</event>
<event>
 4    1  0.6031777E+000  0.1000000E+03  0.7546771E-02  0.1280296E+00
         21   -1    0    0  501  502  0.00000000000E+00  0.00000000000E+00  0.28498371002E+03  0.28498371002E+03  0.00000000000E+00 0.  1.
         21   -1    0    0  502  503 -0.00000000000E+00 -0.00000000000E+00 -0.24591463781E+04  0.24591463781E+04  0.00000000000E+00 0. -1.
          6    1    1    2  501    0 -0.12537794195E+03 -0.31159457756E+03  0.13730788048E+03  0.40198664547E+03  0.17300000000E+03 0. -1.
         -6    1    1    2    0  503  0.12537794195E+03  0.31159457756E+03 -0.23114705486E+04  0.23421434427E+04  0.17300000000E+03 0.  1.
</event>
<event>
 4    1  0.6031777E+000  0.1000000E+03  0.7546771E-02  0.1280296E+00
         21   -1    0    0  501  502  0.00000000000E+00  0.00000000000E+00  0.11925313781E+04  0.11925313781E+04  0.00000000000E+00 0.  1.
         21   -1    0    0  502  503 -0.00000000000E+00 -0.00000000000E+00 -0.60383631943E+02  0.60383631943E+02  0.00000000000E+00 0. -1.
          6    1    1    2  501    0 -0.96161308342E+02  0.15671274962E+03  0.35371628609E+03  0.43456886009E+03  0.17300000000E+03 0. -1.
         -6    1    1    2    0  503  0.96161308342E+02 -0.15671274962E+03  0.77843146004E+03  0.81834614992E+03  0.17300000000E+03 0.  1.
</event>
<event>
 4    1  0.6031777E+000  0.1000000E+03  0.7546771E-02  0.1280296E+00
         21   -1    0    0  501  502  0.00000000000E+00  0.00000000000E+00  0.11866732588E+03  0.11866732588E+03  0.00000000000E+00 0. -1.
         21   -1    0    0  502  503 -0.00000000000E+00 -0.00000000000E+00 -0.88622282768E+03  0.88622282768E+03  0.00000000000E+00 0.  1.
          6    1    1    2  501    0  0.21171529178E+03  0.17398962133E+03 -0.40217143283E+03  0.51649454449E+03  0.17300000000E+03 0. -1.
         -6    1    1    2    0  503 -0.21171529178E+03 -0.17398962133E+03 -0.36538406897E+03  0.48839560907E+03  0.17300000000E+03 0.  1.
</event>
<event>
 4    1  0.6031777E+000  0.1000000E+03  0.7546771E-02  0.1280296E+00
         21   -1    0    0  501  502  0.00000000000E+00  0.00000000000E+00  0.34171707421E+04  0.34171707421E+04  0.00000000000E+00 0. -1.
         21   -1    0    0  502  503 -0.00000000000E+00 -0.00000000000E+00 -0.13177431873E+02  0.13177431873E+02  0.00000000000E+00 0.  1.
          6    1    1    2  501    0  0.26818248077E+02 -0.28237937786E+02  0.26440430157E+04  0.26499828431E+04  0.17300000000E+03 0. -1.
         -6    1    1    2    0  503 -0.26818248077E+02  0.28237937786E+02  0.75995029449E+03  0.78036533089E+03  0.17300000000E+03 0.  1.
</event>
