<event>
 4    1  0.6132688E+000  0.1000000E+03  0.7546771E-02  0.1280296E+00
         21   -1    0    0  503  502  0.00000000000E+00  0.00000000000E+00  0.74574627304E+02  0.74574627304E+02  0.00000000000E+00 0. -1.
         21   -1    0    0  501  503 -0.00000000000E+00 -0.00000000000E+00 -0.87676308227E+03  0.87676308227E+03  0.00000000000E+00 0.  1.
          6    1    1    2  501    0  0.48737355521E+02  0.97214669331E+02 -0.68704619444E+03  0.71678971467E+03  0.17300000000E+03 0.  1.
         -6    1    1    2    0  502 -0.48737355521E+02 -0.97214669331E+02 -0.11514226052E+03  0.23454799491E+03  0.17300000000E+03 0. -1.
</event>
<event>
 4    1  0.6132688E+000  0.1000000E+03  0.7546771E-02  0.1280296E+00
         21   -1    0    0  501  502  0.00000000000E+00  0.00000000000E+00  0.60456998668E+02  0.60456998668E+02  0.00000000000E+00 0. -1.
         21   -1    0    0  502  503 -0.00000000000E+00 -0.00000000000E+00 -0.50064156271E+03  0.50064156271E+03  0.00000000000E+00 0. -1.
          6    1    1    2  501    0 -0.44394236106E+01  0.16580025755E+01 -0.24875044227E+03  0.30303174748E+03  0.17300000000E+03 0. -1.
         -6    1    1    2    0  503  0.44394236106E+01 -0.16580025755E+01 -0.19143412178E+03  0.25806681390E+03  0.17300000000E+03 0. -1.
</event>
<event>
 4    1  0.6132688E+000  0.1000000E+03  0.7546771E-02  0.1280296E+00
         21   -1    0    0  501  502  0.00000000000E+00  0.00000000000E+00  0.93666031867E+03  0.93666031867E+03  0.00000000000E+00 0. -1.
         21   -1    0    0  502  503 -0.00000000000E+00 -0.00000000000E+00 -0.50833089061E+02  0.50833089061E+02  0.00000000000E+00 0. -1.
          6    1    1    2  501    0 -0.53918921340E+02  0.10177109474E+03  0.59334478902E+03  0.62869042021E+03  0.17300000000E+03 0. -1.
         -6    1    1    2    0  503  0.53918921340E+02 -0.10177109474E+03  0.29248244060E+03  0.35880298753E+03  0.17300000000E+03 0. -1.
</event>
<event>
 4    1  0.6132688E+000  0.1000000E+03  0.7546771E-02  0.1280296E+00
         21   -1    0    0  501  502  0.00000000000E+00  0.00000000000E+00  0.42188598200E+03  0.42188598200E+03  0.00000000000E+00 0.  1.
         21   -1    0    0  502  503 -0.00000000000E+00 -0.00000000000E+00 -0.22711739690E+03  0.22711739690E+03  0.00000000000E+00 0. -1.
          6    1    1    2  501    0  0.36132371651E+02 -0.10188128124E+03  0.34145018193E+03  0.39774686735E+03  0.17300000000E+03 0.  1.
         -6    1    1    2    0  503 -0.36132371651E+02  0.10188128124E+03 -0.14668159683E+03  0.25125651155E+03  0.17300000000E+03 0. -1.
</event>
<event>
 4    1  0.6132688E+000  0.1000000E+03  0.7546771E-02  0.1280296E+00
         21   -1    0    0  501  502  0.00000000000E+00  0.00000000000E+00  0.12101176849E+04  0.12101176849E+04  0.00000000000E+00 0.  1.
         21   -1    0    0  502  503 -0.00000000000E+00 -0.00000000000E+00 -0.56145433524E+02  0.56145433524E+02  0.00000000000E+00 0. -1.
          6    1    1    2  501    0  0.16501760360E+03 -0.83662725853E+02  0.72638919667E+03  0.76928572471E+03  0.17300000000E+03 0.  1.
         -6    1    1    2    0  503 -0.16501760360E+03  0.83662725853E+02  0.42758305468E+03  0.49697739369E+03  0.17300000000E+03 0. -1.
</event>
<event>
 4    1  0.6132688E+000  0.1000000E+03  0.7546771E-02  0.1280296E+00
         21   -1    0    0  501  502  0.00000000000E+00  0.00000000000E+00  0.28537365292E+03  0.28537365292E+03  0.00000000000E+00 0.  1.
         21   -1    0    0  502  503 -0.00000000000E+00 -0.00000000000E+00 -0.47233785352E+03  0.47233785352E+03  0.00000000000E+00 0. -1.
          6    1    1    2  501    0  0.39823212603E+02 -0.39805594686E+02  0.23558689731E+03  0.29765846169E+03  0.17300000000E+03 0.  1.
         -6    1    1    2    0  503 -0.39823212603E+02  0.39805594686E+02 -0.42255109792E+03  0.46005304475E+03  0.17300000000E+03 0. -1.
</event>
<event>
 4    1  0.6132688E+000  0.1000000E+03  0.7546771E-02  0.1280296E+00
         21   -1    0    0  501  502  0.00000000000E+00  0.00000000000E+00  0.22541332489E+02  0.22541332489E+02  0.00000000000E+00 0. -1.
         21   -1    0    0  502  503 -0.00000000000E+00 -0.00000000000E+00 -0.14519334841E+04  0.14519334841E+04  0.00000000000E+00 0. -1.
          6    1    1    2  501    0 -0.25379391418E+02 -0.23503452566E+02 -0.55153762742E+03  0.57906759558E+03  0.17300000000E+03 0. -1.
         -6    1    1    2    0  503  0.25379391418E+02  0.23503452566E+02 -0.87785452418E+03  0.89540722099E+03  0.17300000000E+03 0. -1.
</event>
<event>
 4    1  0.6132688E+000  0.1000000E+03  0.7546771E-02  0.1280296E+00
         21   -1    0    0  501  502  0.00000000000E+00  0.00000000000E+00  0.14271495237E+03  0.14271495237E+03  0.00000000000E+00 0. -1.
         21   -1    0    0  502  503 -0.00000000000E+00 -0.00000000000E+00 -0.51395639797E+03  0.51395639797E+03  0.00000000000E+00 0. -1.
          6    1    1    2  501    0  0.19233882361E+03 -0.63314453314E+02 -0.12601509724E+03  0.29463833389E+03  0.17300000000E+03 0. -1.
         -6    1    1    2    0  503 -0.19233882361E+03  0.63314453314E+02 -0.24522634836E+03  0.36203301645E+03  0.17300000000E+03 0. -1.
</event>
<event>
 4    1  0.6132688E+000  0.1000000E+03  0.7546771E-02  0.1280296E+00
         21   -1    0    0  503  502  0.00000000000E+00  0.00000000000E+00  0.18807864997E+03  0.18807864997E+03  0.00000000000E+00 0. -1.
         21   -1    0    0  501  503 -0.00000000000E+00 -0.00000000000E+00 -0.41300142812E+03  0.41300142812E+03  0.00000000000E+00 0.  1.
          6    1    1    2  501    0  0.84501242992E+02 -0.14076137207E+03  0.43035209625E+02  0.24235357064E+03  0.17300000000E+03 0.  1.
         -6    1    1    2    0  502 -0.84501242992E+02  0.14076137207E+03 -0.26795798777E+03  0.35872650745E+03  0.17300000000E+03 0. -1.
</event>
<event>
 4    1  0.6132688E+000  0.1000000E+03  0.7546771E-02  0.1280296E+00
         21   -1    0    0  503  502  0.00000000000E+00  0.00000000000E+00  0.66982489183E+03  0.66982489183E+03  0.00000000000E+00 0. -1.
         21   -1    0    0  501  503 -0.00000000000E+00 -0.00000000000E+00 -0.59803439836E+02  0.59803439836E+02  0.00000000000E+00 0.  1.
          6    1    1    2  501    0 -0.24097012580E+02 -0.94428186479E+02  0.25920611331E+03  0.32651823471E+03  0.17300000000E+03 0.  1.
         -6    1    1    2    0  502  0.24097012580E+02  0.94428186479E+02  0.35081533868E+03  0.40311009696E+03  0.17300000000E+03 0. -1.
</event>
<event>
 4    1  0.6132688E+000  0.1000000E+03  0.7546771E-02  0.1280296E+00
         21   -1    0    0  501  502  0.00000000000E+00  0.00000000000E+00  0.90467134310E+03  0.90467134310E+03  0.00000000000E+00 0.  1.
         21   -1    0    0  502  503 -0.00000000000E+00 -0.00000000000E+00 -0.45514348596E+02  0.45514348596E+02  0.00000000000E+00 0.  1.
          6    1    1    2  501    0  0.73419649362E+02 -0.38049163000E+02  0.27412639304E+03  0.33453320176E+03  0.17300000000E+03 0.  1.
         -6    1    1    2    0  503 -0.73419649362E+02  0.38049163000E+02  0.58503060146E+03  0.61565248994E+03  0.17300000000E+03 0.  1.
</event>
<event>
 4    1  0.6132688E+000  0.1000000E+03  0.7546771E-02  0.1280296E+00
         21   -1    0    0  501  502  0.00000000000E+00  0.00000000000E+00  0.37715411637E+03  0.37715411637E+03  0.00000000000E+00 0.  1.
         21   -1    0    0  502  503 -0.00000000000E+00 -0.00000000000E+00 -0.10591213528E+03  0.10591213528E+03  0.00000000000E+00 0.  1.
          6    1    1    2  501    0  0.82167537050E+02  0.57120225852E+02  0.13731867555E+03  0.24248637694E+03  0.17300000000E+03 0.  1.
         -6    1    1    2    0  503 -0.82167537050E+02 -0.57120225852E+02  0.13392330554E+03  0.24057987471E+03  0.17300000000E+03 0.  1.
</event>
<event>
 4    1  0.6132688E+000  0.1000000E+03  0.7546771E-02  0.1280296E+00
         21   -1    0    0  503  502  0.00000000000E+00  0.00000000000E+00  0.98528453527E+03  0.98528453527E+03  0.00000000000E+00 0.  1.
         21   -1    0    0  501  503 -0.00000000000E+00 -0.00000000000E+00 -0.12259976947E+03  0.12259976947E+03  0.00000000000E+00 0. -1.
          6    1    1    2  501    0 -0.25795868423E+02 -0.47162479730E+02 -0.41398494728E+02  0.18582938865E+03  0.17300000000E+03 0.  1.
         -6    1    1    2    0  502  0.25795868423E+02  0.47162479730E+02  0.90408326053E+03  0.92205491609E+03  0.17300000000E+03 0. -1.
</event>
<event>
 4    1  0.6132688E+000  0.1000000E+03  0.7546771E-02  0.1280296E+00
         21   -1    0    0  503  502  0.00000000000E+00  0.00000000000E+00  0.65404854640E+03  0.65404854640E+03  0.00000000000E+00 0.  1.
         21   -1    0    0  501  503 -0.00000000000E+00 -0.00000000000E+00 -0.86710557565E+02  0.86710557565E+02  0.00000000000E+00 0. -1.
          6    1    1    2  501    0 -0.10076739791E+03 -0.31434776462E+02  0.89156276211E+02  0.22140473175E+03  0.17300000000E+03 0.  1.
         -6    1    1    2    0  502  0.10076739791E+03  0.31434776462E+02  0.47818171262E+03  0.51935437222E+03  0.17300000000E+03 0. -1.
</event>
<event>
 4    1  0.6132688E+000  0.1000000E+03  0.7546771E-02  0.1280296E+00
         21   -1    0    0  503  502  0.00000000000E+00  0.00000000000E+00  0.55454800733E+02  0.55454800733E+02  0.00000000000E+00 0.  1.
         21   -1    0    0  501  503 -0.00000000000E+00 -0.00000000000E+00 -0.12924614727E+04  0.12924614727E+04  0.00000000000E+00 0. -1.
          6    1    1    2  501    0  0.14064197393E+03  0.47516572429E+02 -0.97189477947E+03  0.99827173247E+03  0.17300000000E+03 0.  1.
         -6    1    1    2    0  502 -0.14064197393E+03 -0.47516572429E+02 -0.26511189251E+03  0.34964454098E+03  0.17300000000E+03 0. -1.
</event>
<event>
 4    1  0.6132688E+000  0.1000000E+03  0.7546771E-02  0.1280296E+00
         21   -1    0    0  501  502  0.00000000000E+00  0.00000000000E+00  0.26280967347E+03  0.26280967347E+03  0.00000000000E+00 0.  1.
         21   -1    0    0  502  503 -0.00000000000E+00 -0.00000000000E+00 -0.30551720776E+03  0.30551720776E+03  0.00000000000E+00 0.  1.
          6    1    1    2  501    0  0.90742677436E+01  0.13009568684E+03  0.16180212272E+03  0.27039999442E+03  0.17300000000E+03 0.  1.
         -6    1    1    2    0  503 -0.90742677436E+01 -0.13009568684E+03 -0.20450965701E+03  0.29792688680E+03  0.17300000000E+03 0.  1.
</event>
<event>
 4    1  0.6132688E+000  0.1000000E+03  0.7546771E-02  0.1280296E+00
         21   -1    0    0  501  502  0.00000000000E+00  0.00000000000E+00  0.81358600457E+03  0.81358600457E+03  0.00000000000E+00 0.  1.
         21   -1    0    0  502  503 -0.00000000000E+00 -0.00000000000E+00 -0.10364968899E+03  0.10364968899E+03  0.00000000000E+00 0.  1.
          6    1    1    2  501    0 -0.95106186537E+02 -0.18341540199E+03  0.18404899488E+03  0.32632718079E+03  0.17300000000E+03 0.  1.
         -6    1    1    2    0  503  0.95106186537E+02  0.18341540199E+03  0.52588732069E+03  0.59090851278E+03  0.17300000000E+03 0.  1.
</event>
<event>
 4    1  0.6132688E+000  0.1000000E+03  0.7546771E-02  0.1280296E+00
         21   -1    0    0  501  502  0.00000000000E+00  0.00000000000E+00  0.21063218154E+02  0.21063218154E+02  0.00000000000E+00 0. -1.
         21   -1    0    0  502  503 -0.00000000000E+00 -0.00000000000E+00 -0.19100798186E+04  0.19100798186E+04  0.00000000000E+00 0.  1.
          6    1    1    2  501    0  0.10115138944E+03  0.22599655289E+01 -0.90518823794E+03  0.92710919375E+03  0.17300000000E+03 0.  1.
         -6    1    1    2    0  503 -0.10115138944E+03 -0.22599655289E+01 -0.98382836254E+03  0.10040338430E+04  0.17300000000E+03 0. -1.
</event>
<event>
 4    1  0.6132688E+000  0.1000000E+03  0.7546771E-02  0.1280296E+00
         21   -1    0    0  503  502  0.00000000000E+00  0.00000000000E+00  0.29661242868E+03  0.29661242868E+03  0.00000000000E+00 0.  1.
         21   -1    0    0  501  503 -0.00000000000E+00 -0.00000000000E+00 -0.23546960201E+03  0.23546960201E+03  0.00000000000E+00 0.  1.
          6    1    1    2  501    0 -0.28792828342E+02  0.50994326790E+02 -0.16171219320E+03  0.24394524336E+03  0.17300000000E+03 0.  1.
         -6    1    1    2    0  502  0.28792828342E+02 -0.50994326790E+02  0.22285501987E+03  0.28813678732E+03  0.17300000000E+03 0.  1.
</event>
<event>
 4    1  0.6132688E+000  0.1000000E+03  0.7546771E-02  0.1280296E+00
         21   -1    0    0  503  502  0.00000000000E+00  0.00000000000E+00  0.23166329887E+03  0.23166329887E+03  0.00000000000E+00 0.  1.
         21   -1    0    0  501  503 -0.00000000000E+00 -0.00000000000E+00 -0.36099946516E+03  0.36099946516E+03  0.00000000000E+00 0.  1.
          6    1    1    2  501    0 -0.16210967796E+03 -0.78730739496E+02 -0.21394810623E+03  0.32890860309E+03  0.17300000000E+03 0.  1.
         -6    1    1    2    0  502  0.16210967796E+03  0.78730739496E+02  0.84611939943E+02  0.26375416093E+03  0.17300000000E+03 0.  1.
</event>
<event>
 4    1  0.6132688E+000  0.1000000E+03  0.7546771E-02  0.1280296E+00
         21   -1    0    0  503  502  0.00000000000E+00  0.00000000000E+00  0.32324382585E+03  0.32324382585E+03  0.00000000000E+00 0.  1.
         21   -1    0    0  501  503 -0.00000000000E+00 -0.00000000000E+00 -0.13965713201E+03  0.13965713201E+03  0.00000000000E+00 0.  1.
          6    1    1    2  501    0  0.61880217705E+02 -0.10103007569E+03  0.54404109510E+02  0.21662189333E+03  0.17300000000E+03 0.  1.
         -6    1    1    2    0  502 -0.61880217705E+02  0.10103007569E+03  0.12918258433E+03  0.24627906454E+03  0.17300000000E+03 0.  1.
</event>
<event>
 4    1  0.6132688E+000  0.1000000E+03  0.7546771E-02  0.1280296E+00
         21   -1    0    0  503  502  0.00000000000E+00  0.00000000000E+00  0.78794026695E+03  0.78794026695E+03  0.00000000000E+00 0.  1.
         21   -1    0    0  501  503 -0.00000000000E+00 -0.00000000000E+00 -0.50066788004E+02  0.50066788004E+02  0.00000000000E+00 0.  1.
          6    1    1    2  501    0 -0.88749683238E+02  0.22239911717E+02  0.44046112278E+03  0.48198145258E+03  0.17300000000E+03 0.  1.
         -6    1    1    2    0  502  0.88749683238E+02 -0.22239911717E+02  0.29741235617E+03  0.35602560238E+03  0.17300000000E+03 0.  1.
</event>
<event>
 4    1  0.6132688E+000  0.1000000E+03  0.7546771E-02  0.1280296E+00
         21   -1    0    0  501  502  0.00000000000E+00  0.00000000000E+00  0.15393020478E+03  0.15393020478E+03  0.00000000000E+00 0. -1.
         21   -1    0    0  502  503 -0.00000000000E+00 -0.00000000000E+00 -0.40052381080E+03  0.40052381080E+03  0.00000000000E+00 0. -1.
          6    1    1    2  501    0  0.22050769966E+02 -0.14220247830E+03 -0.24048126923E+03  0.32934483773E+03  0.17300000000E+03 0.  1.
         -6    1    1    2    0  503 -0.22050769966E+02  0.14220247830E+03 -0.61123367913E+01  0.22510917785E+03  0.17300000000E+03 0.  1.
</event>
<event>
 4    1  0.6132688E+000  0.1000000E+03  0.7546771E-02  0.1280296E+00
         21   -1    0    0  501  502  0.00000000000E+00  0.00000000000E+00  0.79458227424E+03  0.79458227424E+03  0.00000000000E+00 0. -1.
         21   -1    0    0  502  503 -0.00000000000E+00 -0.00000000000E+00 -0.49661825978E+02  0.49661825978E+02  0.00000000000E+00 0. -1.
          6    1    1    2  501    0  0.58339475123E+02  0.43166805170E+02  0.51122949811E+03  0.54456539292E+03  0.17300000000E+03 0.  1.
         -6    1    1    2    0  503 -0.58339475123E+02 -0.43166805170E+02  0.23369095016E+03  0.29967870730E+03  0.17300000000E+03 0.  1.
</event>
<event>
 4    1  0.6132688E+000  0.1000000E+03  0.7546771E-02  0.1280296E+00
         21   -1    0    0  501  502  0.00000000000E+00  0.00000000000E+00  0.41437791725E+03  0.41437791725E+03  0.00000000000E+00 0. -1.
         21   -1    0    0  502  503 -0.00000000000E+00 -0.00000000000E+00 -0.21316768847E+03  0.21316768847E+03  0.00000000000E+00 0.  1.
          6    1    1    2  501    0  0.78354360089E+02 -0.35552812287E+02  0.33902341290E+03  0.39021696875E+03  0.17300000000E+03 0. -1.
         -6    1    1    2    0  503 -0.78354360089E+02  0.35552812287E+02 -0.13781318412E+03  0.23732863697E+03  0.17300000000E+03 0.  1.
</event>
<event>
 4    1  0.6132688E+000  0.1000000E+03  0.7546771E-02  0.1280296E+00
         21   -1    0    0  501  502  0.00000000000E+00  0.00000000000E+00  0.40162739113E+03  0.40162739113E+03  0.00000000000E+00 0. -1.
         21   -1    0    0  502  503 -0.00000000000E+00 -0.00000000000E+00 -0.22194031805E+03  0.22194031805E+03  0.00000000000E+00 0.  1.
          6    1    1    2  501    0  0.19843480221E+03  0.10682898142E+02  0.23648380983E+03  0.35403966918E+03  0.17300000000E+03 0. -1.
         -6    1    1    2    0  503 -0.19843480221E+03 -0.10682898142E+02 -0.56796736747E+02  0.26952804000E+03  0.17300000000E+03 0.  1.
</event>
<event>
 4    1  0.6132688E+000  0.1000000E+03  0.7546771E-02  0.1280296E+00
         21   -1    0    0  501  502  0.00000000000E+00  0.00000000000E+00  0.26184825592E+03  0.26184825592E+03  0.00000000000E+00 0. -1.
         21   -1    0    0  502  503 -0.00000000000E+00 -0.00000000000E+00 -0.13216522509E+03  0.13216522509E+03  0.00000000000E+00 0.  1.
          6    1    1    2  501    0 -0.25779140674E+02 -0.24292708533E+02  0.12680487537E+03  0.21740095722E+03  0.17300000000E+03 0. -1.
         -6    1    1    2    0  503  0.25779140674E+02  0.24292708533E+02  0.28781554620E+01  0.17661252379E+03  0.17300000000E+03 0.  1.
</event>
<event>
 4    1  0.6132688E+000  0.1000000E+03  0.7546771E-02  0.1280296E+00
         21   -1    0    0  503  502  0.00000000000E+00  0.00000000000E+00  0.56122581147E+03  0.56122581147E+03  0.00000000000E+00 0. -1.
         21   -1    0    0  501  503 -0.00000000000E+00 -0.00000000000E+00 -0.29383754392E+03  0.29383754392E+03  0.00000000000E+00 0.  1.
          6    1    1    2  501    0  0.31087786840E+02 -0.88281820702E+02 -0.24033899488E+03  0.31056716314E+03  0.17300000000E+03 0.  1.
         -6    1    1    2    0  502 -0.31087786840E+02  0.88281820702E+02  0.50772726244E+03  0.54449619225E+03  0.17300000000E+03 0.  1.
</event>
<event>
 4    1  0.6132688E+000  0.1000000E+03  0.7546771E-02  0.1280296E+00
         21   -1    0    0  503  502  0.00000000000E+00  0.00000000000E+00  0.14872151034E+03  0.14872151034E+03  0.00000000000E+00 0. -1.
         21   -1    0    0  501  503 -0.00000000000E+00 -0.00000000000E+00 -0.31162737015E+03  0.31162737015E+03  0.00000000000E+00 0. -1.
          6    1    1    2  501    0 -0.10163604881E+03 -0.69186691742E+02 -0.12000302801E+03  0.24381634782E+03  0.17300000000E+03 0. -1.
         -6    1    1    2    0  502  0.10163604881E+03  0.69186691742E+02 -0.42902831799E+02  0.21653253268E+03  0.17300000000E+03 0. -1.
</event>
<event>
 4    1  0.6132688E+000  0.1000000E+03  0.7546771E-02  0.1280296E+00
         21   -1    0    0  503  502  0.00000000000E+00  0.00000000000E+00  0.24793094556E+03  0.24793094556E+03  0.00000000000E+00 0. -1.
         21   -1    0    0  501  503 -0.00000000000E+00 -0.00000000000E+00 -0.32091413129E+03  0.32091413129E+03  0.00000000000E+00 0. -1.
          6    1    1    2  501    0 -0.17493195194E+02 -0.26256460988E+02 -0.25887459266E+03  0.31295441896E+03  0.17300000000E+03 0. -1.
         -6    1    1    2    0  502  0.17493195194E+02  0.26256460988E+02  0.18589140693E+03  0.25589065789E+03  0.17300000000E+03 0. -1.
</event>
<event>
 4    1  0.6132688E+000  0.1000000E+03  0.7546771E-02  0.1280296E+00
         21   -1    0    0  503  502  0.00000000000E+00  0.00000000000E+00  0.99174585812E+02  0.99174585812E+02  0.00000000000E+00 0.  1.
         21   -1    0    0  501  503 -0.00000000000E+00 -0.00000000000E+00 -0.74447739192E+03  0.74447739192E+03  0.00000000000E+00 0.  1.
          6    1    1    2  501    0 -0.13640695753E+03  0.95712843599E+02 -0.51985331197E+03  0.57266418821E+03  0.17300000000E+03 0.  1.
         -6    1    1    2    0  502  0.13640695753E+03 -0.95712843599E+02 -0.12544949414E+03  0.27098778953E+03  0.17300000000E+03 0.  1.
</event>
<event>
 4    1  0.6132688E+000  0.1000000E+03  0.7546771E-02  0.1280296E+00
         21   -1    0    0  503  502  0.00000000000E+00  0.00000000000E+00  0.46017111370E+03  0.46017111370E+03  0.00000000000E+00 0.  1.
         21   -1    0    0  501  503 -0.00000000000E+00 -0.00000000000E+00 -0.12670494772E+03  0.12670494772E+03  0.00000000000E+00 0.  1.
          6    1    1    2  501    0  0.64981120647E+02  0.15619870304E+02 -0.21178535713E+02  0.18666562823E+03  0.17300000000E+03 0.  1.
         -6    1    1    2    0  502 -0.64981120647E+02 -0.15619870304E+02  0.35464470170E+03  0.40021043319E+03  0.17300000000E+03 0.  1.
</event>
<event>
 4    1  0.6132688E+000  0.1000000E+03  0.7546771E-02  0.1280296E+00
         21   -1    0    0  501  502  0.00000000000E+00  0.00000000000E+00  0.30408157963E+03  0.30408157963E+03  0.00000000000E+00 0.  1.
         21   -1    0    0  502  503 -0.00000000000E+00 -0.00000000000E+00 -0.14643479968E+03  0.14643479968E+03  0.00000000000E+00 0.  1.
          6    1    1    2  501    0  0.43875927810E+02 -0.11013387838E+03  0.53912740314E+02  0.21654133965E+03  0.17300000000E+03 0.  1.
         -6    1    1    2    0  503 -0.43875927810E+02  0.11013387838E+03  0.10373403963E+03  0.23397503966E+03  0.17300000000E+03 0.  1.
</event>
<event>
 4    1  0.6132688E+000  0.1000000E+03  0.7546771E-02  0.1280296E+00
         21   -1    0    0  501  502  0.00000000000E+00  0.00000000000E+00  0.14629962890E+03  0.14629962890E+03  0.00000000000E+00 0.  1.
         21   -1    0    0  502  503 -0.00000000000E+00 -0.00000000000E+00 -0.32281595319E+03  0.32281595319E+03  0.00000000000E+00 0.  1.
          6    1    1    2  501    0  0.64509930433E+02  0.75901815645E+02  0.44393758245E+01  0.19967805288E+03  0.17300000000E+03 0.  1.
         -6    1    1    2    0  503 -0.64509930433E+02 -0.75901815645E+02 -0.18095570012E+03  0.26943752921E+03  0.17300000000E+03 0.  1.
</event>
<event>
 4    1  0.6132688E+000  0.1000000E+03  0.7546771E-02  0.1280296E+00
         21   -1    0    0  501  502  0.00000000000E+00  0.00000000000E+00  0.59977031358E+02  0.59977031358E+02  0.00000000000E+00 0.  1.
         21   -1    0    0  502  503 -0.00000000000E+00 -0.00000000000E+00 -0.70694920826E+03  0.70694920826E+03  0.00000000000E+00 0.  1.
          6    1    1    2  501    0  0.57998443797E+02 -0.72418644789E+02 -0.20773533401E+03  0.28581680950E+03  0.17300000000E+03 0.  1.
         -6    1    1    2    0  503 -0.57998443797E+02  0.72418644789E+02 -0.43923684289E+03  0.48110943012E+03  0.17300000000E+03 0.  1.
</event>
<event>
 4    1  0.6132688E+000  0.1000000E+03  0.7546771E-02  0.1280296E+00
         21   -1    0    0  501  502  0.00000000000E+00  0.00000000000E+00  0.83919069111E+03  0.83919069111E+03  0.00000000000E+00 0. -1.
         21   -1    0    0  502  503 -0.00000000000E+00 -0.00000000000E+00 -0.99900643016E+02  0.99900643016E+02  0.00000000000E+00 0. -1.
          6    1    1    2  501    0  0.43935034833E+02  0.54581487237E+02  0.72860768821E+03  0.75213535308E+03  0.17300000000E+03 0. -1.
         -6    1    1    2    0  503 -0.43935034833E+02 -0.54581487237E+02  0.10682359882E+02  0.18695598104E+03  0.17300000000E+03 0. -1.
</event>
<event>
 4    1  0.6132688E+000  0.1000000E+03  0.7546771E-02  0.1280296E+00
         21   -1    0    0  503  502  0.00000000000E+00  0.00000000000E+00  0.44179197800E+03  0.44179197800E+03  0.00000000000E+00 0. -1.
         21   -1    0    0  501  503 -0.00000000000E+00 -0.00000000000E+00 -0.12090581098E+03  0.12090581098E+03  0.00000000000E+00 0. -1.
          6    1    1    2  501    0  0.83705558016E+01 -0.38837030794E+02 -0.19739353142E+02  0.17859737744E+03  0.17300000000E+03 0. -1.
         -6    1    1    2    0  502 -0.83705558016E+01  0.38837030794E+02  0.34062552016E+03  0.38410041154E+03  0.17300000000E+03 0. -1.
</event>
<event>
 4    1  0.6132688E+000  0.1000000E+03  0.7546771E-02  0.1280296E+00
         21   -1    0    0  503  502  0.00000000000E+00  0.00000000000E+00  0.48940632415E+02  0.48940632415E+02  0.00000000000E+00 0. -1.
         21   -1    0    0  501  503 -0.00000000000E+00 -0.00000000000E+00 -0.68141386032E+03  0.68141386032E+03  0.00000000000E+00 0. -1.
          6    1    1    2  501    0 -0.36372219940E+02 -0.28395297861E+01 -0.40762991382E+03  0.44432212183E+03  0.17300000000E+03 0. -1.
         -6    1    1    2    0  502  0.36372219940E+02  0.28395297861E+01 -0.22484331408E+03  0.28603237090E+03  0.17300000000E+03 0. -1.
</event>
<event>
 4    1  0.6132688E+000  0.1000000E+03  0.7546771E-02  0.1280296E+00
         21   -1    0    0  501  502  0.00000000000E+00  0.00000000000E+00  0.17247623865E+03  0.17247623865E+03  0.00000000000E+00 0.  1.
         21   -1    0    0  502  503 -0.00000000000E+00 -0.00000000000E+00 -0.69275186027E+03  0.69275186027E+03  0.00000000000E+00 0.  1.
          6    1    1    2  501    0 -0.13225993644E+03 -0.26487642414E+03 -0.20555509187E+03  0.39979257953E+03  0.17300000000E+03 0.  1.
         -6    1    1    2    0  503  0.13225993644E+03  0.26487642414E+03 -0.31472052976E+03  0.46543551938E+03  0.17300000000E+03 0.  1.
</event>
<event>
 4    1  0.6132688E+000  0.1000000E+03  0.7546771E-02  0.1280296E+00
         21   -1    0    0  501  502  0.00000000000E+00  0.00000000000E+00  0.18819867156E+03  0.18819867156E+03  0.00000000000E+00 0.  1.
         21   -1    0    0  502  503 -0.00000000000E+00 -0.00000000000E+00 -0.60385635640E+03  0.60385635640E+03  0.00000000000E+00 0. -1.
          6    1    1    2  501    0 -0.80211325719E+02 -0.92296062486E+00  0.11874947416E+03  0.22464448857E+03  0.17300000000E+03 0.  1.
         -6    1    1    2    0  503  0.80211325719E+02  0.92296062486E+00 -0.53440715900E+03  0.56741053940E+03  0.17300000000E+03 0. -1.
</event>
<event>
 4    1  0.6132688E+000  0.1000000E+03  0.7546771E-02  0.1280296E+00
         21   -1    0    0  501  502  0.00000000000E+00  0.00000000000E+00  0.11892636004E+03  0.11892636004E+03  0.00000000000E+00 0.  1.
         21   -1    0    0  502  503 -0.00000000000E+00 -0.00000000000E+00 -0.25609444857E+03  0.25609444857E+03  0.00000000000E+00 0. -1.
          6    1    1    2  501    0 -0.13686517715E+02  0.18418670377E+02 -0.67615602582E+02  0.18715618584E+03  0.17300000000E+03 0.  1.
         -6    1    1    2    0  503  0.13686517715E+02 -0.18418670377E+02 -0.69552485956E+02  0.18786462277E+03  0.17300000000E+03 0. -1.
</event>
<event>
 4    1  0.6132688E+000  0.1000000E+03  0.7546771E-02  0.1280296E+00
         21   -1    0    0  501  502  0.00000000000E+00  0.00000000000E+00  0.11004954008E+04  0.11004954008E+04  0.00000000000E+00 0.  1.
         21   -1    0    0  502  503 -0.00000000000E+00 -0.00000000000E+00 -0.21080286475E+03  0.21080286475E+03  0.00000000000E+00 0. -1.
          6    1    1    2  501    0  0.17111230562E+03  0.26135958649E+02  0.10095551285E+04  0.10387940445E+04  0.17300000000E+03 0.  1.
         -6    1    1    2    0  503 -0.17111230562E+03 -0.26135958649E+02 -0.11986259236E+03  0.27250422110E+03  0.17300000000E+03 0. -1.
</event>
<event>
 4    1  0.6132688E+000  0.1000000E+03  0.7546771E-02  0.1280296E+00
         21   -1    0    0  501  502  0.00000000000E+00  0.00000000000E+00  0.13621446675E+03  0.13621446675E+03  0.00000000000E+00 0. -1.
         21   -1    0    0  502  503 -0.00000000000E+00 -0.00000000000E+00 -0.73652729006E+03  0.73652729006E+03  0.00000000000E+00 0. -1.
          6    1    1    2  501    0  0.98161861623E+01 -0.14696207603E+03  0.38797089848E+01  0.22724053653E+03  0.17300000000E+03 0. -1.
         -6    1    1    2    0  503 -0.98161861623E+01  0.14696207603E+03 -0.60419253230E+03  0.64550122028E+03  0.17300000000E+03 0. -1.
</event>
<event>
 4    1  0.6132688E+000  0.1000000E+03  0.7546771E-02  0.1280296E+00
         21   -1    0    0  501  502  0.00000000000E+00  0.00000000000E+00  0.57609550058E+03  0.57609550058E+03  0.00000000000E+00 0. -1.
         21   -1    0    0  502  503 -0.00000000000E+00 -0.00000000000E+00 -0.11303275111E+03  0.11303275111E+03  0.00000000000E+00 0. -1.
          6    1    1    2  501    0 -0.49361670433E+02 -0.28366819796E+02  0.47287647423E+03  0.50673702337E+03  0.17300000000E+03 0. -1.
         -6    1    1    2    0  503  0.49361670433E+02  0.28366819796E+02 -0.98137247540E+01  0.18239122832E+03  0.17300000000E+03 0. -1.
</event>
<event>
 4    1  0.6132688E+000  0.1000000E+03  0.7546771E-02  0.1280296E+00
         21   -1    0    0  501  502  0.00000000000E+00  0.00000000000E+00  0.15943589807E+04  0.15943589807E+04  0.00000000000E+00 0. -1.
         21   -1    0    0  502  503 -0.00000000000E+00 -0.00000000000E+00 -0.90714803998E+02  0.90714803998E+02  0.00000000000E+00 0. -1.
          6    1    1    2  501    0 -0.18448793067E+03 -0.24882030142E+03  0.10552269529E+04  0.11132745668E+04  0.17300000000E+03 0. -1.
         -6    1    1    2    0  503  0.18448793067E+03  0.24882030142E+03  0.44841722371E+03  0.57179921780E+03  0.17300000000E+03 0. -1.
</event>
<event>
 4    1  0.6132688E+000  0.1000000E+03  0.7546771E-02  0.1280296E+00
         21   -1    0    0  503  502  0.00000000000E+00  0.00000000000E+00  0.21117177643E+03  0.21117177643E+03  0.00000000000E+00 0. -1.
         21   -1    0    0  501  503 -0.00000000000E+00 -0.00000000000E+00 -0.33667569879E+03  0.33667569879E+03  0.00000000000E+00 0. -1.
          6    1    1    2  501    0 -0.67085272151E+02 -0.17173049869E+03 -0.14977518822E+03  0.29385949861E+03  0.17300000000E+03 0. -1.
         -6    1    1    2    0  502  0.67085272151E+02  0.17173049869E+03  0.24271265857E+02  0.25398797662E+03  0.17300000000E+03 0. -1.
</event>
<event>
 4    1  0.6132688E+000  0.1000000E+03  0.7546771E-02  0.1280296E+00
         21   -1    0    0  501  502  0.00000000000E+00  0.00000000000E+00  0.13852845097E+04  0.13852845097E+04  0.00000000000E+00 0.  1.
         21   -1    0    0  502  503 -0.00000000000E+00 -0.00000000000E+00 -0.58921610375E+02  0.58921610375E+02  0.00000000000E+00 0. -1.
          6    1    1    2  501    0 -0.37290808759E+02  0.17688140477E+03  0.10117260450E+04  0.10422073814E+04  0.17300000000E+03 0.  1.
         -6    1    1    2    0  503  0.37290808759E+02 -0.17688140477E+03  0.31463685431E+03  0.40199873863E+03  0.17300000000E+03 0. -1.
</event>
<event>
 4    1  0.6132688E+000  0.1000000E+03  0.7546771E-02  0.1280296E+00
         21   -1    0    0  503  502  0.00000000000E+00  0.00000000000E+00  0.12682608534E+03  0.12682608534E+03  0.00000000000E+00 0. -1.
         21   -1    0    0  501  503 -0.00000000000E+00 -0.00000000000E+00 -0.89573819789E+03  0.89573819789E+03  0.00000000000E+00 0. -1.
          6    1    1    2  501    0 -0.32376396378E+02  0.20031272673E+03 -0.69718138352E+03  0.74643439166E+03  0.17300000000E+03 0. -1.
         -6    1    1    2    0  502  0.32376396378E+02 -0.20031272673E+03 -0.71730729026E+02  0.27612989157E+03  0.17300000000E+03 0. -1.
</event>
<event>
 4    1  0.6132688E+000  0.1000000E+03  0.7546771E-02  0.1280296E+00
         21   -1    0    0  501  502  0.00000000000E+00  0.00000000000E+00  0.11608813701E+03  0.11608813701E+03  0.00000000000E+00 0.  1.
         21   -1    0    0  502  503 -0.00000000000E+00 -0.00000000000E+00 -0.28139931661E+03  0.28139931661E+03  0.00000000000E+00 0. -1.
          6    1    1    2  501    0 -0.48103159731E+02  0.15847427111E+02 -0.97121499409E+02  0.20475995841E+03  0.17300000000E+03 0.  1.
         -6    1    1    2    0  503  0.48103159731E+02 -0.15847427111E+02 -0.68189680195E+02  0.19272749520E+03  0.17300000000E+03 0. -1.
</event>
<event>
 4    1  0.6132688E+000  0.1000000E+03  0.7546771E-02  0.1280296E+00
         21   -1    0    0  501  502  0.00000000000E+00  0.00000000000E+00  0.34615100376E+03  0.34615100376E+03  0.00000000000E+00 0.  1.
         21   -1    0    0  502  503 -0.00000000000E+00 -0.00000000000E+00 -0.12807775991E+03  0.12807775991E+03  0.00000000000E+00 0. -1.
          6    1    1    2  501    0 -0.90656381777E+02  0.40836940672E+02  0.18473906270E+03  0.27192601304E+03  0.17300000000E+03 0.  1.
         -6    1    1    2    0  503  0.90656381777E+02 -0.40836940672E+02  0.33334181151E+02  0.20230275063E+03  0.17300000000E+03 0. -1.
</event>
<event>
 4    1  0.6132688E+000  0.1000000E+03  0.7546771E-02  0.1280296E+00
         21   -1    0    0  503  502  0.00000000000E+00  0.00000000000E+00  0.15264721041E+03  0.15264721041E+03  0.00000000000E+00 0.  1.
         21   -1    0    0  501  503 -0.00000000000E+00 -0.00000000000E+00 -0.22617356122E+03  0.22617356122E+03  0.00000000000E+00 0. -1.
          6    1    1    2  501    0  0.57920345786E+02 -0.10784756734E+02 -0.25767232759E+01  0.18277504462E+03  0.17300000000E+03 0. -1.
         -6    1    1    2    0  502 -0.57920345786E+02  0.10784756734E+02 -0.70949627535E+02  0.19604572702E+03  0.17300000000E+03 0.  1.
</event>
<event>
 4    1  0.6132688E+000  0.1000000E+03  0.7546771E-02  0.1280296E+00
         21   -1    0    0  503  502  0.00000000000E+00  0.00000000000E+00  0.12277654214E+04  0.12277654214E+04  0.00000000000E+00 0.  1.
         21   -1    0    0  501  503 -0.00000000000E+00 -0.00000000000E+00 -0.36225653147E+02  0.36225653147E+02  0.00000000000E+00 0. -1.
          6    1    1    2  501    0  0.93411548449E+02  0.96351761275E-01  0.36711539251E+03  0.41644740135E+03  0.17300000000E+03 0. -1.
         -6    1    1    2    0  502 -0.93411548449E+02 -0.96351761275E-01  0.82442437571E+03  0.84754367318E+03  0.17300000000E+03 0.  1.
</event>
<event>
 4    1  0.6132688E+000  0.1000000E+03  0.7546771E-02  0.1280296E+00
         21   -1    0    0  503  502  0.00000000000E+00  0.00000000000E+00  0.17167294605E+04  0.17167294605E+04  0.00000000000E+00 0.  1.
         21   -1    0    0  501  503 -0.00000000000E+00 -0.00000000000E+00 -0.65976145501E+02  0.65976145501E+02  0.00000000000E+00 0.  1.
          6    1    1    2  501    0  0.16916504038E+03 -0.21436375944E+03  0.57740897754E+03  0.66173919303E+03  0.17300000000E+03 0.  1.
         -6    1    1    2    0  502 -0.16916504038E+03  0.21436375944E+03  0.10733443374E+04  0.11209664129E+04  0.17300000000E+03 0.  1.
</event>
<event>
 4    1  0.6132688E+000  0.1000000E+03  0.7546771E-02  0.1280296E+00
         21   -1    0    0  501  502  0.00000000000E+00  0.00000000000E+00  0.36955988076E+03  0.36955988076E+03  0.00000000000E+00 0.  1.
         21   -1    0    0  502  503 -0.00000000000E+00 -0.00000000000E+00 -0.22870016838E+03  0.22870016838E+03  0.00000000000E+00 0. -1.
          6    1    1    2  501    0  0.89042428481E+02  0.21074952034E+03  0.21672498035E+02  0.28765015481E+03  0.17300000000E+03 0.  1.
         -6    1    1    2    0  503 -0.89042428481E+02 -0.21074952034E+03  0.11918721434E+03  0.31060989433E+03  0.17300000000E+03 0. -1.
</event>
<event>
 4    1  0.6132688E+000  0.1000000E+03  0.7546771E-02  0.1280296E+00
         21   -1    0    0  501  502  0.00000000000E+00  0.00000000000E+00  0.29118365467E+03  0.29118365467E+03  0.00000000000E+00 0.  1.
         21   -1    0    0  502  503 -0.00000000000E+00 -0.00000000000E+00 -0.21516767725E+03  0.21516767725E+03  0.00000000000E+00 0. -1.
          6    1    1    2  501    0 -0.12627344687E+02 -0.14229645267E+03 -0.74244252581E+02  0.23632380184E+03  0.17300000000E+03 0.  1.
         -6    1    1    2    0  503  0.12627344687E+02  0.14229645267E+03  0.15026023000E+03  0.27002753007E+03  0.17300000000E+03 0. -1.
</event>
<event>
 4    1  0.6132688E+000  0.1000000E+03  0.7546771E-02  0.1280296E+00
         21   -1    0    0  501  502  0.00000000000E+00  0.00000000000E+00  0.21591766748E+03  0.21591766748E+03  0.00000000000E+00 0.  1.
         21   -1    0    0  502  503 -0.00000000000E+00 -0.00000000000E+00 -0.67181931514E+03  0.67181931514E+03  0.00000000000E+00 0. -1.
          6    1    1    2  501    0  0.87303395548E+00 -0.82085890870E+01  0.16736768044E+03  0.24085074960E+03  0.17300000000E+03 0.  1.
         -6    1    1    2    0  503 -0.87303395548E+00  0.82085890870E+01 -0.62326932810E+03  0.64688623302E+03  0.17300000000E+03 0. -1.
</event>
<event>
 4    1  0.6132688E+000  0.1000000E+03  0.7546771E-02  0.1280296E+00
         21   -1    0    0  501  502  0.00000000000E+00  0.00000000000E+00  0.15584825585E+03  0.15584825585E+03  0.00000000000E+00 0. -1.
         21   -1    0    0  502  503 -0.00000000000E+00 -0.00000000000E+00 -0.48087793583E+03  0.48087793583E+03  0.00000000000E+00 0. -1.
          6    1    1    2  501    0  0.38601670226E+01 -0.96491648546E+02  0.57182216811E+02  0.20621431824E+03  0.17300000000E+03 0. -1.
         -6    1    1    2    0  503 -0.38601670226E+01  0.96491648546E+02 -0.38221189679E+03  0.43051187345E+03  0.17300000000E+03 0. -1.
</event>
<event>
 4    1  0.6132688E+000  0.1000000E+03  0.7546771E-02  0.1280296E+00
         21   -1    0    0  501  502  0.00000000000E+00  0.00000000000E+00  0.42245847105E+03  0.42245847105E+03  0.00000000000E+00 0. -1.
         21   -1    0    0  502  503 -0.00000000000E+00 -0.00000000000E+00 -0.77950440043E+02  0.77950440043E+02  0.00000000000E+00 0. -1.
          6    1    1    2  501    0 -0.12197533046E+02 -0.50363313343E+02  0.19678618030E+03  0.26709369873E+03  0.17300000000E+03 0. -1.
         -6    1    1    2    0  503  0.12197533046E+02  0.50363313343E+02  0.14772185070E+03  0.23331521236E+03  0.17300000000E+03 0. -1.
</event>
<event>
 4    1  0.6132688E+000  0.1000000E+03  0.7546771E-02  0.1280296E+00
         21   -1    0    0  503  502  0.00000000000E+00  0.00000000000E+00  0.21810643734E+03  0.21810643734E+03  0.00000000000E+00 0. -1.
         21   -1    0    0  501  503 -0.00000000000E+00 -0.00000000000E+00 -0.20193981629E+03  0.20193981629E+03  0.00000000000E+00 0.  1.
          6    1    1    2  501    0  0.28948870881E+00 -0.11241188222E+03 -0.30401137114E+02  0.20854194831E+03  0.17300000000E+03 0.  1.
         -6    1    1    2    0  502 -0.28948870881E+00  0.11241188222E+03  0.46567758168E+02  0.21150430532E+03  0.17300000000E+03 0. -1.
</event>
<event>
 4    1  0.6132688E+000  0.1000000E+03  0.7546771E-02  0.1280296E+00
         21   -1    0    0  503  502  0.00000000000E+00  0.00000000000E+00  0.64202626634E+02  0.64202626634E+02  0.00000000000E+00 0. -1.
         21   -1    0    0  501  503 -0.00000000000E+00 -0.00000000000E+00 -0.67410544603E+03  0.67410544603E+03  0.00000000000E+00 0.  1.
          6    1    1    2  501    0 -0.51819632264E+02  0.72655202188E+02 -0.43518171948E+03  0.47673491760E+03  0.17300000000E+03 0.  1.
         -6    1    1    2    0  502  0.51819632264E+02 -0.72655202188E+02 -0.17472109992E+03  0.26157315506E+03  0.17300000000E+03 0. -1.
</event>
<event>
 4    1  0.6132688E+000  0.1000000E+03  0.7546771E-02  0.1280296E+00
         21   -1    0    0  501  502  0.00000000000E+00  0.00000000000E+00  0.18461042865E+03  0.18461042865E+03  0.00000000000E+00 0.  1.
         21   -1    0    0  502  503 -0.00000000000E+00 -0.00000000000E+00 -0.20479924412E+03  0.20479924412E+03  0.00000000000E+00 0.  1.
          6    1    1    2  501    0  0.22983282470E+02  0.24251651197E+02  0.72251986473E+02  0.19043561486E+03  0.17300000000E+03 0.  1.
         -6    1    1    2    0  503 -0.22983282470E+02 -0.24251651197E+02 -0.92440801941E+02  0.19897405791E+03  0.17300000000E+03 0.  1.
</event>
<event>
 4    1  0.6132688E+000  0.1000000E+03  0.7546771E-02  0.1280296E+00
         21   -1    0    0  501  502  0.00000000000E+00  0.00000000000E+00  0.27403324383E+03  0.27403324383E+03  0.00000000000E+00 0. -1.
         21   -1    0    0  502  503 -0.00000000000E+00 -0.00000000000E+00 -0.98379232896E+03  0.98379232896E+03  0.00000000000E+00 0.  1.
          6    1    1    2  501    0  0.15983154727E+02  0.28504074049E+03  0.12682883588E+03  0.35709695964E+03  0.17300000000E+03 0. -1.
         -6    1    1    2    0  503 -0.15983154727E+02 -0.28504074049E+03 -0.83658792101E+03  0.90072861316E+03  0.17300000000E+03 0.  1.
</event>
<event>
 4    1  0.6132688E+000  0.1000000E+03  0.7546771E-02  0.1280296E+00
         21   -1    0    0  503  502  0.00000000000E+00  0.00000000000E+00  0.20901657093E+03  0.20901657093E+03  0.00000000000E+00 0.  1.
         21   -1    0    0  501  503 -0.00000000000E+00 -0.00000000000E+00 -0.67555259290E+03  0.67555259290E+03  0.00000000000E+00 0.  1.
          6    1    1    2  501    0 -0.12471762965E+03 -0.14579127164E+03 -0.55445092006E+03  0.61168162044E+03  0.17300000000E+03 0.  1.
         -6    1    1    2    0  502  0.12471762965E+03  0.14579127164E+03  0.87914898093E+02  0.27288754339E+03  0.17300000000E+03 0.  1.
</event>
<event>
 4    1  0.6132688E+000  0.1000000E+03  0.7546771E-02  0.1280296E+00
         21   -1    0    0  503  502  0.00000000000E+00  0.00000000000E+00  0.11445416216E+03  0.11445416216E+03  0.00000000000E+00 0. -1.
         21   -1    0    0  501  503 -0.00000000000E+00 -0.00000000000E+00 -0.44860593773E+03  0.44860593773E+03  0.00000000000E+00 0. -1.
          6    1    1    2  501    0 -0.31099673010E+01  0.14848360754E+02 -0.34791716492E+03  0.38885151325E+03  0.17300000000E+03 0. -1.
         -6    1    1    2    0  502  0.31099673010E+01 -0.14848360754E+02  0.13765389352E+02  0.17420858664E+03  0.17300000000E+03 0. -1.
</event>
<event>
 4    1  0.6132688E+000  0.1000000E+03  0.7546771E-02  0.1280296E+00
         21   -1    0    0  503  502  0.00000000000E+00  0.00000000000E+00  0.89407597411E+03  0.89407597411E+03  0.00000000000E+00 0. -1.
         21   -1    0    0  501  503 -0.00000000000E+00 -0.00000000000E+00 -0.39658061044E+02  0.39658061044E+02  0.00000000000E+00 0. -1.
          6    1    1    2  501    0 -0.17684775348E+02 -0.50144456786E+02  0.29835115610E+03  0.34895505466E+03  0.17300000000E+03 0. -1.
         -6    1    1    2    0  502  0.17684775348E+02  0.50144456786E+02  0.55606675697E+03  0.58477898050E+03  0.17300000000E+03 0. -1.
</event>
<event>
 4    1  0.6132688E+000  0.1000000E+03  0.7546771E-02  0.1280296E+00
         21   -1    0    0  503  502  0.00000000000E+00  0.00000000000E+00  0.67804761679E+02  0.67804761679E+02  0.00000000000E+00 0. -1.
         21   -1    0    0  501  503 -0.00000000000E+00 -0.00000000000E+00 -0.57198007227E+03  0.57198007227E+03  0.00000000000E+00 0. -1.
          6    1    1    2  501    0 -0.79040456123E+02  0.20497636448E+02 -0.32804167434E+03  0.37974713548E+03  0.17300000000E+03 0. -1.
         -6    1    1    2    0  502  0.79040456123E+02 -0.20497636448E+02 -0.17613363625E+03  0.26003769846E+03  0.17300000000E+03 0. -1.
</event>
<event>
 4    1  0.6132688E+000  0.1000000E+03  0.7546771E-02  0.1280296E+00
         21   -1    0    0  503  502  0.00000000000E+00  0.00000000000E+00  0.23255202547E+03  0.23255202547E+03  0.00000000000E+00 0.  1.
         21   -1    0    0  501  503 -0.00000000000E+00 -0.00000000000E+00 -0.16868661593E+03  0.16868661593E+03  0.00000000000E+00 0.  1.
          6    1    1    2  501    0 -0.42217065451E+02  0.78677632255E+02 -0.49652175755E+01  0.19474625495E+03  0.17300000000E+03 0.  1.
         -6    1    1    2    0  502  0.42217065451E+02 -0.78677632255E+02  0.68830627108E+02  0.20649238645E+03  0.17300000000E+03 0.  1.
</event>
<event>
 4    1  0.6132688E+000  0.1000000E+03  0.7546771E-02  0.1280296E+00
         21   -1    0    0  501  502  0.00000000000E+00  0.00000000000E+00  0.11799236601E+03  0.11799236601E+03  0.00000000000E+00 0.  1.
         21   -1    0    0  502  503 -0.00000000000E+00 -0.00000000000E+00 -0.34791952948E+03  0.34791952948E+03  0.00000000000E+00 0. -1.
          6    1    1    2  501    0 -0.40743311464E+02 -0.39303260874E+02 -0.21727344794E+03  0.28344578834E+03  0.17300000000E+03 0.  1.
         -6    1    1    2    0  503  0.40743311464E+02  0.39303260874E+02 -0.12653715520E+02  0.18246610716E+03  0.17300000000E+03 0. -1.
</event>
<event>
 4    1  0.6132688E+000  0.1000000E+03  0.7546771E-02  0.1280296E+00
         21   -1    0    0  501  502  0.00000000000E+00  0.00000000000E+00  0.71669679481E+03  0.71669679481E+03  0.00000000000E+00 0.  1.
         21   -1    0    0  502  503 -0.00000000000E+00 -0.00000000000E+00 -0.31443473514E+03  0.31443473514E+03  0.00000000000E+00 0. -1.
          6    1    1    2  501    0 -0.28475566372E+03  0.27189609351E+03  0.41945768182E+03  0.60073872900E+03  0.17300000000E+03 0.  1.
         -6    1    1    2    0  503  0.28475566372E+03 -0.27189609351E+03 -0.17195622153E+02  0.43039280095E+03  0.17300000000E+03 0. -1.
</event>
<event>
 4    1  0.6132688E+000  0.1000000E+03  0.7546771E-02  0.1280296E+00
         21   -1    0    0  503  502  0.00000000000E+00  0.00000000000E+00  0.55674185364E+03  0.55674185364E+03  0.00000000000E+00 0.  1.
         21   -1    0    0  501  503 -0.00000000000E+00 -0.00000000000E+00 -0.14514584395E+03  0.14514584395E+03  0.00000000000E+00 0.  1.
          6    1    1    2  501    0 -0.15987383525E+03 -0.68719848756E+01  0.95361377209E+01  0.23585335549E+03  0.17300000000E+03 0.  1.
         -6    1    1    2    0  502  0.15987383525E+03  0.68719848756E+01  0.40205987197E+03  0.46603434211E+03  0.17300000000E+03 0.  1.
</event>
<event>
 4    1  0.6132688E+000  0.1000000E+03  0.7546771E-02  0.1280296E+00
         21   -1    0    0  503  502  0.00000000000E+00  0.00000000000E+00  0.10108256969E+03  0.10108256969E+03  0.00000000000E+00 0.  1.
         21   -1    0    0  501  503 -0.00000000000E+00 -0.00000000000E+00 -0.79424234974E+03  0.79424234974E+03  0.00000000000E+00 0.  1.
          6    1    1    2  501    0  0.11718068579E+03 -0.81734426897E+02 -0.61997159170E+03  0.65932207924E+03  0.17300000000E+03 0.  1.
         -6    1    1    2    0  502 -0.11718068579E+03  0.81734426897E+02 -0.73188188348E+02  0.23600284019E+03  0.17300000000E+03 0.  1.
</event>
<event>
 4    1  0.6132688E+000  0.1000000E+03  0.7546771E-02  0.1280296E+00
         21   -1    0    0  503  502  0.00000000000E+00  0.00000000000E+00  0.42027037175E+03  0.42027037175E+03  0.00000000000E+00 0.  1.
         21   -1    0    0  501  503 -0.00000000000E+00 -0.00000000000E+00 -0.91669790260E+02  0.91669790260E+02  0.00000000000E+00 0.  1.
          6    1    1    2  501    0 -0.21482396575E+02  0.46702354583E+02  0.63668751800E+02  0.19137741048E+03  0.17300000000E+03 0.  1.
         -6    1    1    2    0  502  0.21482396575E+02 -0.46702354583E+02  0.26493182969E+03  0.32056275153E+03  0.17300000000E+03 0.  1.
</event>
<event>
 4    1  0.6132688E+000  0.1000000E+03  0.7546771E-02  0.1280296E+00
         21   -1    0    0  503  502  0.00000000000E+00  0.00000000000E+00  0.77258318045E+02  0.77258318045E+02  0.00000000000E+00 0.  1.
         21   -1    0    0  501  503 -0.00000000000E+00 -0.00000000000E+00 -0.11352285481E+04  0.11352285481E+04  0.00000000000E+00 0.  1.
          6    1    1    2  501    0  0.68368630196E+02  0.22867963146E+03 -0.58718116120E+03  0.65702310424E+03  0.17300000000E+03 0.  1.
         -6    1    1    2    0  502 -0.68368630196E+02 -0.22867963146E+03 -0.47078906887E+03  0.55546376192E+03  0.17300000000E+03 0.  1.
</event>
<event>
 4    1  0.6132688E+000  0.1000000E+03  0.7546771E-02  0.1280296E+00
         21   -1    0    0  503  502  0.00000000000E+00  0.00000000000E+00  0.26437756867E+03  0.26437756867E+03  0.00000000000E+00 0. -1.
         21   -1    0    0  501  503 -0.00000000000E+00 -0.00000000000E+00 -0.42769823815E+03  0.42769823815E+03  0.00000000000E+00 0. -1.
          6    1    1    2  501    0 -0.93678051335E+02 -0.25749944335E+03 -0.17406597951E+03  0.36784440440E+03  0.17300000000E+03 0. -1.
         -6    1    1    2    0  502  0.93678051335E+02  0.25749944335E+03  0.10745310023E+02  0.32423140242E+03  0.17300000000E+03 0. -1.
</event>
<event>
 4    1  0.6132688E+000  0.1000000E+03  0.7546771E-02  0.1280296E+00
         21   -1    0    0  503  502  0.00000000000E+00  0.00000000000E+00  0.13597085221E+03  0.13597085221E+03  0.00000000000E+00 0. -1.
         21   -1    0    0  501  503 -0.00000000000E+00 -0.00000000000E+00 -0.32179394166E+03  0.32179394166E+03  0.00000000000E+00 0.  1.
          6    1    1    2  501    0  0.10309227472E+03  0.35098342865E+02 -0.14142448431E+03  0.24857553287E+03  0.17300000000E+03 0.  1.
         -6    1    1    2    0  502 -0.10309227472E+03 -0.35098342865E+02 -0.44398605135E+02  0.20918926100E+03  0.17300000000E+03 0. -1.
</event>
<event>
 4    1  0.6132688E+000  0.1000000E+03  0.7546771E-02  0.1280296E+00
         21   -1    0    0  501  502  0.00000000000E+00  0.00000000000E+00  0.76761525770E+02  0.76761525770E+02  0.00000000000E+00 0. -1.
         21   -1    0    0  502  503 -0.00000000000E+00 -0.00000000000E+00 -0.67232502104E+03  0.67232502104E+03  0.00000000000E+00 0. -1.
          6    1    1    2  501    0 -0.14637366609E+03 -0.11813046623E+02 -0.31545406343E+03  0.38859370083E+03  0.17300000000E+03 0. -1.
         -6    1    1    2    0  503  0.14637366609E+03  0.11813046623E+02 -0.28010943185E+03  0.36049284598E+03  0.17300000000E+03 0. -1.
</event>
<event>
 4    1  0.6132688E+000  0.1000000E+03  0.7546771E-02  0.1280296E+00
         21   -1    0    0  501  502  0.00000000000E+00  0.00000000000E+00  0.15316891119E+03  0.15316891119E+03  0.00000000000E+00 0. -1.
         21   -1    0    0  502  503 -0.00000000000E+00 -0.00000000000E+00 -0.44935843035E+03  0.44935843035E+03  0.00000000000E+00 0. -1.
          6    1    1    2  501    0 -0.75248518597E+02  0.83649127624E+02  0.37917046333E+02  0.20982425624E+03  0.17300000000E+03 0. -1.
         -6    1    1    2    0  503  0.75248518597E+02 -0.83649127624E+02 -0.33410656550E+03  0.39270308531E+03  0.17300000000E+03 0. -1.
</event>
<event>
 4    1  0.6132688E+000  0.1000000E+03  0.7546771E-02  0.1280296E+00
         21   -1    0    0  501  502  0.00000000000E+00  0.00000000000E+00  0.40389293715E+02  0.40389293715E+02  0.00000000000E+00 0.  1.
         21   -1    0    0  502  503 -0.00000000000E+00 -0.00000000000E+00 -0.95665062446E+03  0.95665062446E+03  0.00000000000E+00 0.  1.
          6    1    1    2  501    0 -0.39430893783E+02  0.79966433787E+02 -0.52804793084E+03  0.56277263897E+03  0.17300000000E+03 0.  1.
         -6    1    1    2    0  503  0.39430893783E+02 -0.79966433787E+02 -0.38821339991E+03  0.43426727921E+03  0.17300000000E+03 0.  1.
</event>
<event>
 4    1  0.6132688E+000  0.1000000E+03  0.7546771E-02  0.1280296E+00
         21   -1    0    0  501  502  0.00000000000E+00  0.00000000000E+00  0.49904480238E+02  0.49904480238E+02  0.00000000000E+00 0.  1.
         21   -1    0    0  502  503 -0.00000000000E+00 -0.00000000000E+00 -0.20691932016E+04  0.20691932016E+04  0.00000000000E+00 0.  1.
          6    1    1    2  501    0  0.12639042464E+03  0.15104373271E+03 -0.39681628406E+03  0.47558481045E+03  0.17300000000E+03 0.  1.
         -6    1    1    2    0  503 -0.12639042464E+03 -0.15104373271E+03 -0.16224724373E+04  0.16435128714E+04  0.17300000000E+03 0.  1.
</event>
<event>
 4    1  0.6132688E+000  0.1000000E+03  0.7546771E-02  0.1280296E+00
         21   -1    0    0  501  502  0.00000000000E+00  0.00000000000E+00  0.15671672360E+02  0.15671672360E+02  0.00000000000E+00 0.  1.
         21   -1    0    0  502  503 -0.00000000000E+00 -0.00000000000E+00 -0.22878089485E+04  0.22878089485E+04  0.00000000000E+00 0.  1.
          6    1    1    2  501    0  0.32491310898E+02 -0.65659929928E+02 -0.12797358423E+04  0.12934526423E+04  0.17300000000E+03 0.  1.
         -6    1    1    2    0  503 -0.32491310898E+02  0.65659929928E+02 -0.99240143380E+03  0.10100279786E+04  0.17300000000E+03 0.  1.
</event>
<event>
 4    1  0.6132688E+000  0.1000000E+03  0.7546771E-02  0.1280296E+00
         21   -1    0    0  501  502  0.00000000000E+00  0.00000000000E+00  0.34077010800E+03  0.34077010800E+03  0.00000000000E+00 0.  1.
         21   -1    0    0  502  503 -0.00000000000E+00 -0.00000000000E+00 -0.28345181347E+03  0.28345181347E+03  0.00000000000E+00 0.  1.
          6    1    1    2  501    0 -0.17147485414E+03 -0.90340517075E+02  0.19996383900E+03  0.32784077162E+03  0.17300000000E+03 0.  1.
         -6    1    1    2    0  503  0.17147485414E+03  0.90340517075E+02 -0.14264554447E+03  0.29638114985E+03  0.17300000000E+03 0.  1.
</event>
<event>
 4    1  0.6132688E+000  0.1000000E+03  0.7546771E-02  0.1280296E+00
         21   -1    0    0  501  502  0.00000000000E+00  0.00000000000E+00  0.13126829709E+03  0.13126829709E+03  0.00000000000E+00 0. -1.
         21   -1    0    0  502  503 -0.00000000000E+00 -0.00000000000E+00 -0.76197293641E+03  0.76197293641E+03  0.00000000000E+00 0. -1.
          6    1    1    2  501    0  0.41742442669E+02  0.10620693861E+03  0.22011791848E+02  0.20841272588E+03  0.17300000000E+03 0. -1.
         -6    1    1    2    0  503 -0.41742442669E+02 -0.10620693861E+03 -0.65271643116E+03  0.68482850761E+03  0.17300000000E+03 0. -1.
</event>
<event>
 4    1  0.6132688E+000  0.1000000E+03  0.7546771E-02  0.1280296E+00
         21   -1    0    0  501  502  0.00000000000E+00  0.00000000000E+00  0.14407063332E+03  0.14407063332E+03  0.00000000000E+00 0. -1.
         21   -1    0    0  502  503 -0.00000000000E+00 -0.00000000000E+00 -0.35403153416E+03  0.35403153416E+03  0.00000000000E+00 0. -1.
          6    1    1    2  501    0 -0.13785010503E+02 -0.99845347692E+02  0.10242737120E+02  0.20048200327E+03  0.17300000000E+03 0. -1.
         -6    1    1    2    0  503  0.13785010503E+02  0.99845347692E+02 -0.22020363796E+03  0.29762016421E+03  0.17300000000E+03 0. -1.
</event>
<event>
 4    1  0.6132688E+000  0.1000000E+03  0.7546771E-02  0.1280296E+00
         21   -1    0    0  501  502  0.00000000000E+00  0.00000000000E+00  0.62938219223E+03  0.62938219223E+03  0.00000000000E+00 0.  1.
         21   -1    0    0  502  503 -0.00000000000E+00 -0.00000000000E+00 -0.64459951226E+02  0.64459951226E+02  0.00000000000E+00 0. -1.
          6    1    1    2  501    0 -0.79966442485E+02 -0.37024344318E+01  0.39451641004E+03  0.43815583727E+03  0.17300000000E+03 0.  1.
         -6    1    1    2    0  503  0.79966442485E+02  0.37024344318E+01  0.17040583097E+03  0.25568630619E+03  0.17300000000E+03 0. -1.
</event>
<event>
 4    1  0.6132688E+000  0.1000000E+03  0.7546771E-02  0.1280296E+00
         21   -1    0    0  501  502  0.00000000000E+00  0.00000000000E+00  0.14625418995E+04  0.14625418995E+04  0.00000000000E+00 0.  1.
         21   -1    0    0  502  503 -0.00000000000E+00 -0.00000000000E+00 -0.91474803218E+02  0.91474803218E+02  0.00000000000E+00 0. -1.
          6    1    1    2  501    0 -0.30609949185E+03  0.10066189425E+03  0.67449184637E+03  0.76726655517E+03  0.17300000000E+03 0.  1.
         -6    1    1    2    0  503  0.30609949185E+03 -0.10066189425E+03  0.69657524988E+03  0.78675014751E+03  0.17300000000E+03 0. -1.
</event>
<event>
 4    1  0.6132688E+000  0.1000000E+03  0.7546771E-02  0.1280296E+00
         21   -1    0    0  501  502  0.00000000000E+00  0.00000000000E+00  0.24172183316E+03  0.24172183316E+03  0.00000000000E+00 0.  1.
         21   -1    0    0  502  503 -0.00000000000E+00 -0.00000000000E+00 -0.38833334762E+03  0.38833334762E+03  0.00000000000E+00 0. -1.
          6    1    1    2  501    0 -0.15918820078E+03 -0.85547142500E+01  0.12851364433E+03  0.26806496075E+03  0.17300000000E+03 0.  1.
         -6    1    1    2    0  503  0.15918820078E+03  0.85547142500E+01 -0.27512515879E+03  0.36199022004E+03  0.17300000000E+03 0. -1.
</event>
<event>
 4    1  0.6132688E+000  0.1000000E+03  0.7546771E-02  0.1280296E+00
         21   -1    0    0  501  502  0.00000000000E+00  0.00000000000E+00  0.15323687142E+02  0.15323687142E+02  0.00000000000E+00 0.  1.
         21   -1    0    0  502  503 -0.00000000000E+00 -0.00000000000E+00 -0.27419266380E+04  0.27419266380E+04  0.00000000000E+00 0. -1.
          6    1    1    2  501    0 -0.95778927319E+02 -0.53497699043E+02 -0.14117167267E+04  0.14265022689E+04  0.17300000000E+03 0.  1.
         -6    1    1    2    0  503  0.95778927319E+02  0.53497699043E+02 -0.13148862242E+04  0.13307480563E+04  0.17300000000E+03 0. -1.
</event>
<event>
 4    1  0.6132688E+000  0.1000000E+03  0.7546771E-02  0.1280296E+00
         21   -1    0    0  503  502  0.00000000000E+00  0.00000000000E+00  0.46337665362E+03  0.46337665362E+03  0.00000000000E+00 0. -1.
         21   -1    0    0  501  503 -0.00000000000E+00 -0.00000000000E+00 -0.31418397816E+03  0.31418397816E+03  0.00000000000E+00 0.  1.
          6    1    1    2  501    0  0.17844245499E+03  0.18047995155E+03 -0.15605573183E+03  0.34452447531E+03  0.17300000000E+03 0.  1.
         -6    1    1    2    0  502 -0.17844245499E+03 -0.18047995155E+03  0.30524840729E+03  0.43303615647E+03  0.17300000000E+03 0. -1.
</event>
<event>
 4    1  0.6132688E+000  0.1000000E+03  0.7546771E-02  0.1280296E+00
         21   -1    0    0  503  502  0.00000000000E+00  0.00000000000E+00  0.45849093601E+03  0.45849093601E+03  0.00000000000E+00 0. -1.
         21   -1    0    0  501  503 -0.00000000000E+00 -0.00000000000E+00 -0.74942969645E+03  0.74942969645E+03  0.00000000000E+00 0.  1.
          6    1    1    2  501    0  0.16539622218E+03  0.36796794626E+02 -0.69548557719E+03  0.73643676068E+03  0.17300000000E+03 0.  1.
         -6    1    1    2    0  502 -0.16539622218E+03 -0.36796794626E+02  0.40454681674E+03  0.47148387177E+03  0.17300000000E+03 0. -1.
</event>
<event>
 4    1  0.6132688E+000  0.1000000E+03  0.7546771E-02  0.1280296E+00
         21   -1    0    0  503  502  0.00000000000E+00  0.00000000000E+00  0.44373838833E+03  0.44373838833E+03  0.00000000000E+00 0. -1.
         21   -1    0    0  501  503 -0.00000000000E+00 -0.00000000000E+00 -0.71740777668E+02  0.71740777668E+02  0.00000000000E+00 0.  1.
          6    1    1    2  501    0 -0.30873903685E+02  0.24484634307E+02  0.21311809404E+03  0.27731032662E+03  0.17300000000E+03 0.  1.
         -6    1    1    2    0  502  0.30873903685E+02 -0.24484634307E+02  0.15887951663E+03  0.23816883937E+03  0.17300000000E+03 0. -1.
</event>
<event>
 4    1  0.6132688E+000  0.1000000E+03  0.7546771E-02  0.1280296E+00
         21   -1    0    0  503  502  0.00000000000E+00  0.00000000000E+00  0.32825247761E+03  0.32825247761E+03  0.00000000000E+00 0. -1.
         21   -1    0    0  501  503 -0.00000000000E+00 -0.00000000000E+00 -0.50787241291E+03  0.50787241291E+03  0.00000000000E+00 0.  1.
          6    1    1    2  501    0  0.67542352538E+01 -0.16688014091E+03 -0.42767823876E+03  0.49064475645E+03  0.17300000000E+03 0.  1.
         -6    1    1    2    0  502 -0.67542352538E+01  0.16688014091E+03  0.24805830345E+03  0.34548013407E+03  0.17300000000E+03 0. -1.
</event>
<event>
 4    1  0.6132688E+000  0.1000000E+03  0.7546771E-02  0.1280296E+00
         21   -1    0    0  501  502  0.00000000000E+00  0.00000000000E+00  0.15765261063E+04  0.15765261063E+04  0.00000000000E+00 0. -1.
         21   -1    0    0  502  503 -0.00000000000E+00 -0.00000000000E+00 -0.22276531056E+02  0.22276531056E+02  0.00000000000E+00 0.  1.
          6    1    1    2  501    0  0.17484373019E+02 -0.68846983920E+02  0.72577270479E+03  0.74948023957E+03  0.17300000000E+03 0. -1.
         -6    1    1    2    0  503 -0.17484373019E+02  0.68846983920E+02  0.82847687042E+03  0.84932239775E+03  0.17300000000E+03 0.  1.
</event>
<event>
 4    1  0.6132688E+000  0.1000000E+03  0.7546771E-02  0.1280296E+00
         21   -1    0    0  503  502  0.00000000000E+00  0.00000000000E+00  0.28926229636E+03  0.28926229636E+03  0.00000000000E+00 0.  1.
         21   -1    0    0  501  503 -0.00000000000E+00 -0.00000000000E+00 -0.29851385149E+03  0.29851385149E+03  0.00000000000E+00 0.  1.
          6    1    1    2  501    0 -0.57260328730E+02  0.15264482102E+03 -0.17739154458E+03  0.29660739492E+03  0.17300000000E+03 0.  1.
         -6    1    1    2    0  502  0.57260328730E+02 -0.15264482102E+03  0.16813998946E+03  0.29116875293E+03  0.17300000000E+03 0.  1.
</event>
<event>
 4    1  0.6132688E+000  0.1000000E+03  0.7546771E-02  0.1280296E+00
         21   -1    0    0  503  502  0.00000000000E+00  0.00000000000E+00  0.38462096019E+03  0.38462096019E+03  0.00000000000E+00 0.  1.
         21   -1    0    0  501  503 -0.00000000000E+00 -0.00000000000E+00 -0.10193100059E+03  0.10193100059E+03  0.00000000000E+00 0.  1.
          6    1    1    2  501    0  0.49551725794E+02 -0.70941254274E+02  0.89395077412E+02  0.21309273792E+03  0.17300000000E+03 0.  1.
         -6    1    1    2    0  502 -0.49551725794E+02  0.70941254274E+02  0.19329488219E+03  0.27345922286E+03  0.17300000000E+03 0.  1.
</event>
<event>
 4    1  0.6132688E+000  0.1000000E+03  0.7546771E-02  0.1280296E+00
         21   -1    0    0  503  502  0.00000000000E+00  0.00000000000E+00  0.51272301898E+03  0.51272301898E+03  0.00000000000E+00 0. -1.
         21   -1    0    0  501  503 -0.00000000000E+00 -0.00000000000E+00 -0.14718000817E+03  0.14718000817E+03  0.00000000000E+00 0. -1.
          6    1    1    2  501    0 -0.11817399491E+02 -0.12493646361E+03 -0.24520094099E+02  0.21512555842E+03  0.17300000000E+03 0. -1.
         -6    1    1    2    0  502  0.11817399491E+02  0.12493646361E+03  0.39006310491E+03  0.44477746872E+03  0.17300000000E+03 0. -1.
</event>
<event>
 4    1  0.6132688E+000  0.1000000E+03  0.7546771E-02  0.1280296E+00
         21   -1    0    0  503  502  0.00000000000E+00  0.00000000000E+00  0.11724882675E+03  0.11724882675E+03  0.00000000000E+00 0. -1.
         21   -1    0    0  501  503 -0.00000000000E+00 -0.00000000000E+00 -0.28333689603E+03  0.28333689603E+03  0.00000000000E+00 0. -1.
          6    1    1    2  501    0 -0.55050486579E+02 -0.10254354783E+02 -0.96778606942E+02  0.20598739434E+03  0.17300000000E+03 0. -1.
         -6    1    1    2    0  502  0.55050486579E+02  0.10254354783E+02 -0.69309462331E+02  0.19459832844E+03  0.17300000000E+03 0. -1.
</event>
<event>
 4    1  0.6132688E+000  0.1000000E+03  0.7546771E-02  0.1280296E+00
         21   -1    0    0  503  502  0.00000000000E+00  0.00000000000E+00  0.32276445336E+03  0.32276445336E+03  0.00000000000E+00 0. -1.
         21   -1    0    0  501  503 -0.00000000000E+00 -0.00000000000E+00 -0.18736143583E+03  0.18736143583E+03  0.00000000000E+00 0. -1.
          6    1    1    2  501    0 -0.15857994984E+01 -0.14588316129E+03 -0.32108615854E+02  0.22857028398E+03  0.17300000000E+03 0. -1.
         -6    1    1    2    0  502  0.15857994984E+01  0.14588316129E+03  0.16751163339E+03  0.28155560521E+03  0.17300000000E+03 0. -1.
</event>
<event>
 4    1  0.6132688E+000  0.1000000E+03  0.7546771E-02  0.1280296E+00
         21   -1    0    0  501  502  0.00000000000E+00  0.00000000000E+00  0.20883013098E+04  0.20883013098E+04  0.00000000000E+00 0. -1.
         21   -1    0    0  502  503 -0.00000000000E+00 -0.00000000000E+00 -0.18418683208E+02  0.18418683208E+02  0.00000000000E+00 0. -1.
          6    1    1    2  501    0  0.48326746586E+02 -0.18152997031E+02  0.62344976330E+03  0.64906364333E+03  0.17300000000E+03 0. -1.
         -6    1    1    2    0  503 -0.48326746586E+02  0.18152997031E+02  0.14464328633E+04  0.14576563497E+04  0.17300000000E+03 0. -1.
</event>
<event>
 4    1  0.6132688E+000  0.1000000E+03  0.7546771E-02  0.1280296E+00
         21   -1    0    0  501  502  0.00000000000E+00  0.00000000000E+00  0.19475594795E+03  0.19475594795E+03  0.00000000000E+00 0. -1.
         21   -1    0    0  502  503 -0.00000000000E+00 -0.00000000000E+00 -0.33240942249E+03  0.33240942249E+03  0.00000000000E+00 0.  1.
          6    1    1    2  501    0  0.77710362016E+02 -0.31515680941E+02  0.10382939349E+03  0.21849869899E+03  0.17300000000E+03 0. -1.
         -6    1    1    2    0  503 -0.77710362016E+02  0.31515680941E+02 -0.24148286803E+03  0.30866667144E+03  0.17300000000E+03 0.  1.
</event>
<event>
 4    1  0.6132688E+000  0.1000000E+03  0.7546771E-02  0.1280296E+00
         21   -1    0    0  503  502  0.00000000000E+00  0.00000000000E+00  0.49331372548E+02  0.49331372548E+02  0.00000000000E+00 0. -1.
         21   -1    0    0  501  503 -0.00000000000E+00 -0.00000000000E+00 -0.14082309706E+04  0.14082309706E+04  0.00000000000E+00 0.  1.
          6    1    1    2  501    0 -0.12622037160E+03  0.13523915490E+03 -0.47777834403E+03  0.54076090581E+03  0.17300000000E+03 0.  1.
         -6    1    1    2    0  502  0.12622037160E+03 -0.13523915490E+03 -0.88112125407E+03  0.91680143738E+03  0.17300000000E+03 0. -1.
</event>
<event>
 4    1  0.6132688E+000  0.1000000E+03  0.7546771E-02  0.1280296E+00
         21   -1    0    0  503  502  0.00000000000E+00  0.00000000000E+00  0.13742939976E+04  0.13742939976E+04  0.00000000000E+00 0. -1.
         21   -1    0    0  501  503 -0.00000000000E+00 -0.00000000000E+00 -0.95671105503E+02  0.95671105503E+02  0.00000000000E+00 0.  1.
          6    1    1    2  501    0 -0.14358964219E+02 -0.86120172924E+02  0.18091799077E+02  0.19462573630E+03  0.17300000000E+03 0.  1.
         -6    1    1    2    0  502  0.14358964219E+02  0.86120172924E+02  0.12605310930E+04  0.12753393668E+04  0.17300000000E+03 0. -1.
</event>
<event>
 4    1  0.6132688E+000  0.1000000E+03  0.7546771E-02  0.1280296E+00
         21   -1    0    0  503  502  0.00000000000E+00  0.00000000000E+00  0.59469241704E+02  0.59469241704E+02  0.00000000000E+00 0. -1.
         21   -1    0    0  501  503 -0.00000000000E+00 -0.00000000000E+00 -0.84765312905E+03  0.84765312905E+03  0.00000000000E+00 0.  1.
          6    1    1    2  501    0  0.25319455861E+02 -0.36596917362E+02 -0.66885924454E+03  0.69230202818E+03  0.17300000000E+03 0.  1.
         -6    1    1    2    0  502 -0.25319455861E+02  0.36596917362E+02 -0.11932464280E+03  0.21482034258E+03  0.17300000000E+03 0. -1.
</event>
<event>
 4    1  0.6132688E+000  0.1000000E+03  0.7546771E-02  0.1280296E+00
         21   -1    0    0  501  502  0.00000000000E+00  0.00000000000E+00  0.24686691839E+03  0.24686691839E+03  0.00000000000E+00 0. -1.
         21   -1    0    0  502  503 -0.00000000000E+00 -0.00000000000E+00 -0.38877393711E+03  0.38877393711E+03  0.00000000000E+00 0. -1.
          6    1    1    2  501    0 -0.73006240539E+01 -0.22006413627E+03  0.65010711109E+02  0.28746637324E+03  0.17300000000E+03 0. -1.
         -6    1    1    2    0  503  0.73006240539E+01  0.22006413627E+03 -0.20691772983E+03  0.34817448227E+03  0.17300000000E+03 0. -1.
</event>
<event>
 4    1  0.6132688E+000  0.1000000E+03  0.7546771E-02  0.1280296E+00
         21   -1    0    0  501  502  0.00000000000E+00  0.00000000000E+00  0.51748641376E+02  0.51748641376E+02  0.00000000000E+00 0. -1.
         21   -1    0    0  502  503 -0.00000000000E+00 -0.00000000000E+00 -0.10030058318E+04  0.10030058318E+04  0.00000000000E+00 0. -1.
          6    1    1    2  501    0  0.39323118712E+02 -0.14026130499E+03 -0.53926122492E+03  0.58476594467E+03  0.17300000000E+03 0. -1.
         -6    1    1    2    0  503 -0.39323118712E+02  0.14026130499E+03 -0.41199596555E+03  0.46998852855E+03  0.17300000000E+03 0. -1.
</event>
<event>
 4    1  0.6132688E+000  0.1000000E+03  0.7546771E-02  0.1280296E+00
         21   -1    0    0  501  502  0.00000000000E+00  0.00000000000E+00  0.78880617701E+03  0.78880617701E+03  0.00000000000E+00 0. -1.
         21   -1    0    0  502  503 -0.00000000000E+00 -0.00000000000E+00 -0.10412380871E+03  0.10412380871E+03  0.00000000000E+00 0. -1.
          6    1    1    2  501    0 -0.20175846258E+03 -0.25218814948E+02  0.50470262215E+03  0.57096077156E+03  0.17300000000E+03 0. -1.
         -6    1    1    2    0  503  0.20175846258E+03  0.25218814948E+02  0.17997974615E+03  0.32196921417E+03  0.17300000000E+03 0. -1.
</event>
<event>
 4    1  0.6132688E+000  0.1000000E+03  0.7546771E-02  0.1280296E+00
         21   -1    0    0  501  502  0.00000000000E+00  0.00000000000E+00  0.33634232728E+03  0.33634232728E+03  0.00000000000E+00 0. -1.
         21   -1    0    0  502  503 -0.00000000000E+00 -0.00000000000E+00 -0.51158973571E+03  0.51158973571E+03  0.00000000000E+00 0. -1.
          6    1    1    2  501    0 -0.19363880649E+03 -0.25890293058E+03  0.11059820345E+03  0.38299827342E+03  0.17300000000E+03 0. -1.
         -6    1    1    2    0  503  0.19363880649E+03  0.25890293058E+03 -0.28584561188E+03  0.46493378956E+03  0.17300000000E+03 0. -1.
</event>
<event>
 4    1  0.6132688E+000  0.1000000E+03  0.7546771E-02  0.1280296E+00
         21   -1    0    0  501  502  0.00000000000E+00  0.00000000000E+00  0.14577200836E+03  0.14577200836E+03  0.00000000000E+00 0.  1.
         21   -1    0    0  502  503 -0.00000000000E+00 -0.00000000000E+00 -0.62819956885E+03  0.62819956885E+03  0.00000000000E+00 0. -1.
          6    1    1    2  501    0  0.49384937831E+02  0.16899116349E+03 -0.17336308160E+02  0.24743975631E+03  0.17300000000E+03 0.  1.
         -6    1    1    2    0  503 -0.49384937831E+02 -0.16899116349E+03 -0.46509125233E+03  0.52653182090E+03  0.17300000000E+03 0. -1.
</event>
<event>
 4    1  0.6132688E+000  0.1000000E+03  0.7546771E-02  0.1280296E+00
         21   -1    0    0  503  502  0.00000000000E+00  0.00000000000E+00  0.10539054144E+04  0.10539054144E+04  0.00000000000E+00 0.  1.
         21   -1    0    0  501  503 -0.00000000000E+00 -0.00000000000E+00 -0.79635134678E+02  0.79635134678E+02  0.00000000000E+00 0.  1.
          6    1    1    2  501    0 -0.53334030058E+02 -0.10569849419E+03  0.95945557347E+02  0.23054552785E+03  0.17300000000E+03 0.  1.
         -6    1    1    2    0  502  0.53334030058E+02  0.10569849419E+03  0.87832472237E+03  0.90299502123E+03  0.17300000000E+03 0.  1.
</event>
<event>
 4    1  0.6132688E+000  0.1000000E+03  0.7546771E-02  0.1280296E+00
         21   -1    0    0  503  502  0.00000000000E+00  0.00000000000E+00  0.65126032888E+02  0.65126032888E+02  0.00000000000E+00 0. -1.
         21   -1    0    0  501  503 -0.00000000000E+00 -0.00000000000E+00 -0.87093294328E+03  0.87093294328E+03  0.00000000000E+00 0. -1.
          6    1    1    2  501    0 -0.47468348236E+02  0.81833602307E+02 -0.66539681045E+03  0.69399704460E+03  0.17300000000E+03 0.  1.
         -6    1    1    2    0  502  0.47468348236E+02 -0.81833602307E+02 -0.14041009994E+03  0.24206193157E+03  0.17300000000E+03 0.  1.
</event>
<event>
 4    1  0.6132688E+000  0.1000000E+03  0.7546771E-02  0.1280296E+00
         21   -1    0    0  503  502  0.00000000000E+00  0.00000000000E+00  0.50508188821E+03  0.50508188821E+03  0.00000000000E+00 0. -1.
         21   -1    0    0  501  503 -0.00000000000E+00 -0.00000000000E+00 -0.75261827732E+02  0.75261827732E+02  0.00000000000E+00 0. -1.
          6    1    1    2  501    0  0.35606572283E+02  0.48280378033E+02  0.11523290575E+03  0.21634797309E+03  0.17300000000E+03 0.  1.
         -6    1    1    2    0  502 -0.35606572283E+02 -0.48280378033E+02  0.31458715473E+03  0.36399574285E+03  0.17300000000E+03 0.  1.
</event>
<event>
 4    1  0.6132688E+000  0.1000000E+03  0.7546771E-02  0.1280296E+00
         21   -1    0    0  503  502  0.00000000000E+00  0.00000000000E+00  0.41451799140E+02  0.41451799140E+02  0.00000000000E+00 0. -1.
         21   -1    0    0  501  503 -0.00000000000E+00 -0.00000000000E+00 -0.14136446849E+04  0.14136446849E+04  0.00000000000E+00 0. -1.
          6    1    1    2  501    0 -0.12853420802E+03  0.44031013296E+02 -0.98977831171E+03  0.10139279457E+04  0.17300000000E+03 0.  1.
         -6    1    1    2    0  502  0.12853420802E+03 -0.44031013296E+02 -0.38241457404E+03  0.44116853832E+03  0.17300000000E+03 0.  1.
</event>
<event>
 4    1  0.6132688E+000  0.1000000E+03  0.7546771E-02  0.1280296E+00
         21   -1    0    0  503  502  0.00000000000E+00  0.00000000000E+00  0.74261422616E+02  0.74261422616E+02  0.00000000000E+00 0.  1.
         21   -1    0    0  501  503 -0.00000000000E+00 -0.00000000000E+00 -0.58682781071E+03  0.58682781071E+03  0.00000000000E+00 0.  1.
          6    1    1    2  501    0  0.81922704980E+02  0.33857887795E+02 -0.37678864999E+03  0.42397685422E+03  0.17300000000E+03 0.  1.
         -6    1    1    2    0  502 -0.81922704980E+02 -0.33857887795E+02 -0.13577773810E+03  0.23711237910E+03  0.17300000000E+03 0.  1.
</event>
<event>
 4    1  0.6132688E+000  0.1000000E+03  0.7546771E-02  0.1280296E+00
         21   -1    0    0  503  502  0.00000000000E+00  0.00000000000E+00  0.45948736641E+02  0.45948736641E+02  0.00000000000E+00 0.  1.
         21   -1    0    0  501  503 -0.00000000000E+00 -0.00000000000E+00 -0.77629839490E+03  0.77629839490E+03  0.00000000000E+00 0.  1.
          6    1    1    2  501    0 -0.69751000031E+01 -0.44423225549E+02 -0.23242746924E+03  0.29321255676E+03  0.17300000000E+03 0.  1.
         -6    1    1    2    0  502  0.69751000031E+01  0.44423225549E+02 -0.49792218902E+03  0.52903457477E+03  0.17300000000E+03 0.  1.
</event>
<event>
 4    1  0.6132688E+000  0.1000000E+03  0.7546771E-02  0.1280296E+00
         21   -1    0    0  503  502  0.00000000000E+00  0.00000000000E+00  0.99855898626E+02  0.99855898626E+02  0.00000000000E+00 0.  1.
         21   -1    0    0  501  503 -0.00000000000E+00 -0.00000000000E+00 -0.46133473439E+03  0.46133473439E+03  0.00000000000E+00 0. -1.
          6    1    1    2  501    0 -0.11974260469E+03  0.43201818349E+01 -0.23591186001E+03  0.31613345448E+03  0.17300000000E+03 0.  1.
         -6    1    1    2    0  502  0.11974260469E+03 -0.43201818349E+01 -0.12556697575E+03  0.24505717853E+03  0.17300000000E+03 0. -1.
</event>
<event>
 4    1  0.6132688E+000  0.1000000E+03  0.7546771E-02  0.1280296E+00
         21   -1    0    0  503  502  0.00000000000E+00  0.00000000000E+00  0.53595343406E+02  0.53595343406E+02  0.00000000000E+00 0.  1.
         21   -1    0    0  501  503 -0.00000000000E+00 -0.00000000000E+00 -0.11371519392E+04  0.11371519392E+04  0.00000000000E+00 0. -1.
          6    1    1    2  501    0  0.24618585330E+02  0.75576682287E+02 -0.92079446356E+03  0.94027089382E+03  0.17300000000E+03 0.  1.
         -6    1    1    2    0  502 -0.24618585330E+02 -0.75576682287E+02 -0.16276213224E+03  0.25047638879E+03  0.17300000000E+03 0. -1.
</event>
<event>
 4    1  0.6132688E+000  0.1000000E+03  0.7546771E-02  0.1280296E+00
         21   -1    0    0  503  502  0.00000000000E+00  0.00000000000E+00  0.30327805033E+02  0.30327805033E+02  0.00000000000E+00 0.  1.
         21   -1    0    0  501  503 -0.00000000000E+00 -0.00000000000E+00 -0.16628456803E+04  0.16628456803E+04  0.00000000000E+00 0.  1.
          6    1    1    2  501    0 -0.15350840565E+02 -0.28110512054E+02 -0.13423616481E+04  0.13538425475E+04  0.17300000000E+03 0.  1.
         -6    1    1    2    0  502  0.15350840565E+02  0.28110512054E+02 -0.29015622719E+03  0.33933093783E+03  0.17300000000E+03 0.  1.
</event>
<event>
 4    1  0.6132688E+000  0.1000000E+03  0.7546771E-02  0.1280296E+00
         21   -1    0    0  503  502  0.00000000000E+00  0.00000000000E+00  0.30475232914E+03  0.30475232914E+03  0.00000000000E+00 0.  1.
         21   -1    0    0  501  503 -0.00000000000E+00 -0.00000000000E+00 -0.63328308968E+03  0.63328308968E+03  0.00000000000E+00 0.  1.
          6    1    1    2  501    0 -0.74753822869E+01 -0.52251156885E+02 -0.59168620311E+03  0.61871449610E+03  0.17300000000E+03 0.  1.
         -6    1    1    2    0  502  0.74753822869E+01  0.52251156885E+02  0.26315544257E+03  0.31932092272E+03  0.17300000000E+03 0.  1.
</event>
<event>
 4    1  0.6132688E+000  0.1000000E+03  0.7546771E-02  0.1280296E+00
         21   -1    0    0  503  502  0.00000000000E+00  0.00000000000E+00  0.91374000911E+02  0.91374000911E+02  0.00000000000E+00 0.  1.
         21   -1    0    0  501  503 -0.00000000000E+00 -0.00000000000E+00 -0.49498508773E+03  0.49498508773E+03  0.00000000000E+00 0.  1.
          6    1    1    2  501    0 -0.20143603224E+02 -0.11066958979E+02 -0.36935343297E+03  0.40850850759E+03  0.17300000000E+03 0.  1.
         -6    1    1    2    0  502  0.20143603224E+02  0.11066958979E+02 -0.34257653854E+02  0.17785058105E+03  0.17300000000E+03 0.  1.
</event>
<event>
 4    1  0.6132688E+000  0.1000000E+03  0.7546771E-02  0.1280296E+00
         21   -1    0    0  501  502  0.00000000000E+00  0.00000000000E+00  0.37221797943E+03  0.37221797943E+03  0.00000000000E+00 0.  1.
         21   -1    0    0  502  503 -0.00000000000E+00 -0.00000000000E+00 -0.55363645914E+03  0.55363645914E+03  0.00000000000E+00 0. -1.
          6    1    1    2  501    0  0.12492286536E+03  0.33457494616E+02  0.31645738856E+03  0.38314410475E+03  0.17300000000E+03 0.  1.
         -6    1    1    2    0  503 -0.12492286536E+03 -0.33457494616E+02 -0.49787586827E+03  0.54271033382E+03  0.17300000000E+03 0. -1.
</event>
<event>
 4    1  0.6132688E+000  0.1000000E+03  0.7546771E-02  0.1280296E+00
         21   -1    0    0  501  502  0.00000000000E+00  0.00000000000E+00  0.15409410946E+03  0.15409410946E+03  0.00000000000E+00 0.  1.
         21   -1    0    0  502  503 -0.00000000000E+00 -0.00000000000E+00 -0.29083990698E+03  0.29083990698E+03  0.00000000000E+00 0. -1.
          6    1    1    2  501    0 -0.98412186987E+02 -0.61018749670E+02 -0.27952676801E+02  0.21004427747E+03  0.17300000000E+03 0.  1.
         -6    1    1    2    0  503  0.98412186987E+02  0.61018749670E+02 -0.10879312072E+03  0.23488973897E+03  0.17300000000E+03 0. -1.
</event>
<event>
 4    1  0.6132688E+000  0.1000000E+03  0.7546771E-02  0.1280296E+00
         21   -1    0    0  501  502  0.00000000000E+00  0.00000000000E+00  0.70391080228E+02  0.70391080228E+02  0.00000000000E+00 0.  1.
         21   -1    0    0  502  503 -0.00000000000E+00 -0.00000000000E+00 -0.75281338987E+03  0.75281338987E+03  0.00000000000E+00 0. -1.
          6    1    1    2  501    0 -0.10874165918E+03 -0.45532279374E+02 -0.17004120771E+03  0.26970530070E+03  0.17300000000E+03 0.  1.
         -6    1    1    2    0  503  0.10874165918E+03  0.45532279374E+02 -0.51238110193E+03  0.55349916940E+03  0.17300000000E+03 0. -1.
</event>
<event>
 4    1  0.6132688E+000  0.1000000E+03  0.7546771E-02  0.1280296E+00
         21   -1    0    0  501  502  0.00000000000E+00  0.00000000000E+00  0.22823300276E+03  0.22823300276E+03  0.00000000000E+00 0.  1.
         21   -1    0    0  502  503 -0.00000000000E+00 -0.00000000000E+00 -0.41861483398E+03  0.41861483398E+03  0.00000000000E+00 0. -1.
          6    1    1    2  501    0  0.13801774757E+03 -0.84028835571E+02  0.11277421194E+03  0.26221511537E+03  0.17300000000E+03 0.  1.
         -6    1    1    2    0  503 -0.13801774757E+03  0.84028835571E+02 -0.30315604315E+03  0.38463272137E+03  0.17300000000E+03 0. -1.
</event>
<event>
 4    1  0.6132688E+000  0.1000000E+03  0.7546771E-02  0.1280296E+00
         21   -1    0    0  501  502  0.00000000000E+00  0.00000000000E+00  0.13212623329E+03  0.13212623329E+03  0.00000000000E+00 0.  1.
         21   -1    0    0  502  503 -0.00000000000E+00 -0.00000000000E+00 -0.39962754873E+03  0.39962754873E+03  0.00000000000E+00 0. -1.
          6    1    1    2  501    0 -0.12491652152E+03  0.54775174154E+02 -0.58161119654E+02  0.22785120779E+03  0.17300000000E+03 0.  1.
         -6    1    1    2    0  503  0.12491652152E+03 -0.54775174154E+02 -0.20934019579E+03  0.30390257423E+03  0.17300000000E+03 0. -1.
</event>
<event>
 4    1  0.6132688E+000  0.1000000E+03  0.7546771E-02  0.1280296E+00
         21   -1    0    0  503  502  0.00000000000E+00  0.00000000000E+00  0.11668698357E+03  0.11668698357E+03  0.00000000000E+00 0. -1.
         21   -1    0    0  501  503 -0.00000000000E+00 -0.00000000000E+00 -0.12629638965E+04  0.12629638965E+04  0.00000000000E+00 0. -1.
          6    1    1    2  501    0 -0.56029077060E+02  0.10771577644E+03 -0.11490009775E+04  0.11682783026E+04  0.17300000000E+03 0. -1.
         -6    1    1    2    0  502  0.56029077060E+02 -0.10771577644E+03  0.27240646209E+01  0.21137257745E+03  0.17300000000E+03 0. -1.
</event>
<event>
 4    1  0.6132688E+000  0.1000000E+03  0.7546771E-02  0.1280296E+00
         21   -1    0    0  501  502  0.00000000000E+00  0.00000000000E+00  0.18157800726E+03  0.18157800726E+03  0.00000000000E+00 0. -1.
         21   -1    0    0  502  503 -0.00000000000E+00 -0.00000000000E+00 -0.42801373161E+03  0.42801373161E+03  0.00000000000E+00 0. -1.
          6    1    1    2  501    0  0.84102189294E+02 -0.10090173648E+01  0.97391601088E+02  0.21561150322E+03  0.17300000000E+03 0. -1.
         -6    1    1    2    0  503 -0.84102189294E+02  0.10090173648E+01 -0.34382732544E+03  0.39398023565E+03  0.17300000000E+03 0. -1.
</event>
<event>
 4    1  0.6132688E+000  0.1000000E+03  0.7546771E-02  0.1280296E+00
         21   -1    0    0  503  502  0.00000000000E+00  0.00000000000E+00  0.72496252055E+03  0.72496252055E+03  0.00000000000E+00 0.  1.
         21   -1    0    0  501  503 -0.00000000000E+00 -0.00000000000E+00 -0.11173842713E+03  0.11173842713E+03  0.00000000000E+00 0. -1.
          6    1    1    2  501    0  0.10354275057E+03 -0.11551623926E+03  0.65032514202E+02  0.24129511108E+03  0.17300000000E+03 0.  1.
         -6    1    1    2    0  502 -0.10354275057E+03  0.11551623926E+03  0.54819157922E+03  0.59540583660E+03  0.17300000000E+03 0. -1.
</event>
<event>
 4    1  0.6132688E+000  0.1000000E+03  0.7546771E-02  0.1280296E+00
         21   -1    0    0  503  502  0.00000000000E+00  0.00000000000E+00  0.22538720559E+03  0.22538720559E+03  0.00000000000E+00 0.  1.
         21   -1    0    0  501  503 -0.00000000000E+00 -0.00000000000E+00 -0.30074718944E+03  0.30074718944E+03  0.00000000000E+00 0. -1.
          6    1    1    2  501    0  0.59086481187E+02 -0.10407537740E+03 -0.19268184934E+03  0.28526863043E+03  0.17300000000E+03 0.  1.
         -6    1    1    2    0  502 -0.59086481187E+02  0.10407537740E+03  0.11732186549E+03  0.24086576461E+03  0.17300000000E+03 0. -1.
</event>
<event>
 4    1  0.6132688E+000  0.1000000E+03  0.7546771E-02  0.1280296E+00
         21   -1    0    0  503  502  0.00000000000E+00  0.00000000000E+00  0.30548310969E+03  0.30548310969E+03  0.00000000000E+00 0.  1.
         21   -1    0    0  501  503 -0.00000000000E+00 -0.00000000000E+00 -0.24132742882E+03  0.24132742882E+03  0.00000000000E+00 0. -1.
          6    1    1    2  501    0 -0.13438170595E+03  0.13578707049E+02 -0.12887633112E+03  0.25452098716E+03  0.17300000000E+03 0.  1.
         -6    1    1    2    0  502  0.13438170595E+03 -0.13578707049E+02  0.19303201200E+03  0.29228955136E+03  0.17300000000E+03 0. -1.
</event>
<event>
 4    1  0.6132688E+000  0.1000000E+03  0.7546771E-02  0.1280296E+00
         21   -1    0    0  503  502  0.00000000000E+00  0.00000000000E+00  0.28060406156E+03  0.28060406156E+03  0.00000000000E+00 0. -1.
         21   -1    0    0  501  503 -0.00000000000E+00 -0.00000000000E+00 -0.11835439466E+03  0.11835439466E+03  0.00000000000E+00 0.  1.
          6    1    1    2  501    0 -0.50341328677E+02  0.26421572296E+02  0.73433316245E+02  0.19635121795E+03  0.17300000000E+03 0.  1.
         -6    1    1    2    0  502  0.50341328677E+02 -0.26421572296E+02  0.88816350651E+02  0.20260723827E+03  0.17300000000E+03 0. -1.
</event>
<event>
 4    1  0.6132688E+000  0.1000000E+03  0.7546771E-02  0.1280296E+00
         21   -1    0    0  503  502  0.00000000000E+00  0.00000000000E+00  0.99810163693E+03  0.99810163693E+03  0.00000000000E+00 0. -1.
         21   -1    0    0  501  503 -0.00000000000E+00 -0.00000000000E+00 -0.39869983753E+02  0.39869983753E+02  0.00000000000E+00 0.  1.
          6    1    1    2  501    0 -0.79409359343E+02 -0.38442153981E+02  0.36041630252E+03  0.40940512536E+03  0.17300000000E+03 0.  1.
         -6    1    1    2    0  502  0.79409359343E+02  0.38442153981E+02  0.59781535066E+03  0.62856649532E+03  0.17300000000E+03 0. -1.
</event>
<event>
 4    1  0.6132688E+000  0.1000000E+03  0.7546771E-02  0.1280296E+00
         21   -1    0    0  503  502  0.00000000000E+00  0.00000000000E+00  0.32774440646E+03  0.32774440646E+03  0.00000000000E+00 0. -1.
         21   -1    0    0  501  503 -0.00000000000E+00 -0.00000000000E+00 -0.20983893585E+03  0.20983893585E+03  0.00000000000E+00 0.  1.
          6    1    1    2  501    0 -0.16162667910E+03  0.11210626515E+03  0.46252404139E+02  0.26600617093E+03  0.17300000000E+03 0.  1.
         -6    1    1    2    0  502  0.16162667910E+03 -0.11210626515E+03  0.71653066466E+02  0.27157717139E+03  0.17300000000E+03 0. -1.
</event>
<event>
 4    1  0.6132688E+000  0.1000000E+03  0.7546771E-02  0.1280296E+00
         21   -1    0    0  503  502  0.00000000000E+00  0.00000000000E+00  0.83341618549E+02  0.83341618549E+02  0.00000000000E+00 0. -1.
         21   -1    0    0  501  503 -0.00000000000E+00 -0.00000000000E+00 -0.10939368167E+04  0.10939368167E+04  0.00000000000E+00 0. -1.
          6    1    1    2  501    0  0.15838668306E+03 -0.14259631914E+03 -0.75051130807E+03  0.79913470400E+03  0.17300000000E+03 0. -1.
         -6    1    1    2    0  502 -0.15838668306E+03  0.14259631914E+03 -0.26008389010E+03  0.37814373127E+03  0.17300000000E+03 0. -1.
</event>
<event>
 4    1  0.6132688E+000  0.1000000E+03  0.7546771E-02  0.1280296E+00
         21   -1    0    0  503  502  0.00000000000E+00  0.00000000000E+00  0.55841822436E+02  0.55841822436E+02  0.00000000000E+00 0. -1.
         21   -1    0    0  501  503 -0.00000000000E+00 -0.00000000000E+00 -0.96227102273E+03  0.96227102273E+03  0.00000000000E+00 0. -1.
          6    1    1    2  501    0 -0.25234042285E+02  0.10823924447E+03 -0.68823528798E+03  0.71829611064E+03  0.17300000000E+03 0. -1.
         -6    1    1    2    0  502  0.25234042285E+02 -0.10823924447E+03 -0.21819391231E+03  0.29981673453E+03  0.17300000000E+03 0. -1.
</event>
<event>
 4    1  0.6132688E+000  0.1000000E+03  0.7546771E-02  0.1280296E+00
         21   -1    0    0  503  502  0.00000000000E+00  0.00000000000E+00  0.23099762667E+03  0.23099762667E+03  0.00000000000E+00 0. -1.
         21   -1    0    0  501  503 -0.00000000000E+00 -0.00000000000E+00 -0.42821422824E+03  0.42821422824E+03  0.00000000000E+00 0. -1.
          6    1    1    2  501    0  0.26957836846E+02 -0.22735716879E+03 -0.23350922584E+03  0.36996427628E+03  0.17300000000E+03 0. -1.
         -6    1    1    2    0  502 -0.26957836846E+02  0.22735716879E+03  0.36292624277E+02  0.28924757863E+03  0.17300000000E+03 0. -1.
</event>
<event>
 4    1  0.6132688E+000  0.1000000E+03  0.7546771E-02  0.1280296E+00
         21   -1    0    0  501  502  0.00000000000E+00  0.00000000000E+00  0.24102568298E+04  0.24102568298E+04  0.00000000000E+00 0. -1.
         21   -1    0    0  502  503 -0.00000000000E+00 -0.00000000000E+00 -0.24551026929E+02  0.24551026929E+02  0.00000000000E+00 0.  1.
          6    1    1    2  501    0  0.11410053412E+03  0.60262906755E+02  0.17544988704E+04  0.17677233483E+04  0.17300000000E+03 0. -1.
         -6    1    1    2    0  503 -0.11410053412E+03 -0.60262906755E+02  0.63120693249E+03  0.66708450847E+03  0.17300000000E+03 0.  1.
</event>
<event>
 4    1  0.6132688E+000  0.1000000E+03  0.7546771E-02  0.1280296E+00
         21   -1    0    0  501  502  0.00000000000E+00  0.00000000000E+00  0.59295302028E+03  0.59295302028E+03  0.00000000000E+00 0. -1.
         21   -1    0    0  502  503 -0.00000000000E+00 -0.00000000000E+00 -0.18785694236E+03  0.18785694236E+03  0.00000000000E+00 0.  1.
          6    1    1    2  501    0  0.21295606817E+03  0.93520182722E+02  0.39605186019E+03  0.49079770528E+03  0.17300000000E+03 0. -1.
         -6    1    1    2    0  503 -0.21295606817E+03 -0.93520182722E+02  0.90442177221E+01  0.29001225736E+03  0.17300000000E+03 0.  1.
</event>
<event>
 4    1  0.6132688E+000  0.1000000E+03  0.7546771E-02  0.1280296E+00
         21   -1    0    0  501  502  0.00000000000E+00  0.00000000000E+00  0.86193166815E+03  0.86193166815E+03  0.00000000000E+00 0. -1.
         21   -1    0    0  502  503 -0.00000000000E+00 -0.00000000000E+00 -0.80555533382E+02  0.80555533382E+02  0.00000000000E+00 0.  1.
          6    1    1    2  501    0 -0.52935929796E+02  0.11052946983E+03  0.67053133385E+03  0.70324977500E+03  0.17300000000E+03 0. -1.
         -6    1    1    2    0  503  0.52935929796E+02 -0.11052946983E+03  0.11084480092E+03  0.23923742653E+03  0.17300000000E+03 0.  1.
</event>
<event>
 4    1  0.6132688E+000  0.1000000E+03  0.7546771E-02  0.1280296E+00
         21   -1    0    0  501  502  0.00000000000E+00  0.00000000000E+00  0.81050059594E+02  0.81050059594E+02  0.00000000000E+00 0. -1.
         21   -1    0    0  502  503 -0.00000000000E+00 -0.00000000000E+00 -0.21806530453E+04  0.21806530453E+04  0.00000000000E+00 0.  1.
          6    1    1    2  501    0  0.64236848768E+02  0.20837255336E+03 -0.20230223060E+03  0.34409400785E+03  0.17300000000E+03 0. -1.
         -6    1    1    2    0  503 -0.64236848768E+02 -0.20837255336E+03 -0.18973007551E+04  0.19176090970E+04  0.17300000000E+03 0.  1.
</event>
<event>
 4    1  0.6132688E+000  0.1000000E+03  0.7546771E-02  0.1280296E+00
         21   -1    0    0  503  502  0.00000000000E+00  0.00000000000E+00  0.14206918882E+03  0.14206918882E+03  0.00000000000E+00 0.  1.
         21   -1    0    0  501  503 -0.00000000000E+00 -0.00000000000E+00 -0.68691132715E+03  0.68691132715E+03  0.00000000000E+00 0.  1.
          6    1    1    2  501    0  0.11850888283E+03  0.76613880241E+02 -0.56234365452E+03  0.60504002159E+03  0.17300000000E+03 0.  1.
         -6    1    1    2    0  502 -0.11850888283E+03 -0.76613880241E+02  0.17501516181E+02  0.22394049438E+03  0.17300000000E+03 0.  1.
</event>
<event>
 4    1  0.6132688E+000  0.1000000E+03  0.7546771E-02  0.1280296E+00
         21   -1    0    0  503  502  0.00000000000E+00  0.00000000000E+00  0.51825658632E+02  0.51825658632E+02  0.00000000000E+00 0.  1.
         21   -1    0    0  501  503 -0.00000000000E+00 -0.00000000000E+00 -0.94864980237E+03  0.94864980237E+03  0.00000000000E+00 0.  1.
          6    1    1    2  501    0  0.74169369406E+02  0.10244190009E+03 -0.57682864206E+03  0.61535007967E+03  0.17300000000E+03 0.  1.
         -6    1    1    2    0  502 -0.74169369406E+02 -0.10244190009E+03 -0.31999550169E+03  0.38512538134E+03  0.17300000000E+03 0.  1.
</event>
<event>
 4    1  0.6132688E+000  0.1000000E+03  0.7546771E-02  0.1280296E+00
         21   -1    0    0  503  502  0.00000000000E+00  0.00000000000E+00  0.46516740482E+03  0.46516740482E+03  0.00000000000E+00 0.  1.
         21   -1    0    0  501  503 -0.00000000000E+00 -0.00000000000E+00 -0.60353359305E+03  0.60353359305E+03  0.00000000000E+00 0.  1.
          6    1    1    2  501    0  0.33752446908E+03  0.31969804390E+03 -0.25700452381E+03  0.55866799780E+03  0.17300000000E+03 0.  1.
         -6    1    1    2    0  502 -0.33752446908E+03 -0.31969804390E+03  0.11863833559E+03  0.51003300008E+03  0.17300000000E+03 0.  1.
</event>
<event>
 4    1  0.6132688E+000  0.1000000E+03  0.7546771E-02  0.1280296E+00
         21   -1    0    0  503  502  0.00000000000E+00  0.00000000000E+00  0.42691858659E+03  0.42691858659E+03  0.00000000000E+00 0.  1.
         21   -1    0    0  501  503 -0.00000000000E+00 -0.00000000000E+00 -0.91373188599E+02  0.91373188599E+02  0.00000000000E+00 0.  1.
          6    1    1    2  501    0 -0.95255097170E+02 -0.24063606742E+01  0.16877918168E+03  0.25979749090E+03  0.17300000000E+03 0.  1.
         -6    1    1    2    0  502  0.95255097170E+02  0.24063606742E+01  0.16676621632E+03  0.25849428429E+03  0.17300000000E+03 0.  1.
</event>
<event>
 4    1  0.6132688E+000  0.1000000E+03  0.7546771E-02  0.1280296E+00
         21   -1    0    0  503  502  0.00000000000E+00  0.00000000000E+00  0.77342890571E+03  0.77342890571E+03  0.00000000000E+00 0.  1.
         21   -1    0    0  501  503 -0.00000000000E+00 -0.00000000000E+00 -0.53739480786E+02  0.53739480786E+02  0.00000000000E+00 0. -1.
          6    1    1    2  501    0  0.25735498758E+02 -0.90399905960E+02  0.25249467084E+03  0.32018278795E+03  0.17300000000E+03 0.  1.
         -6    1    1    2    0  502 -0.25735498758E+02  0.90399905960E+02  0.46719475408E+03  0.50698559854E+03  0.17300000000E+03 0. -1.
</event>
<event>
 4    1  0.6132688E+000  0.1000000E+03  0.7546771E-02  0.1280296E+00
         21   -1    0    0  501  502  0.00000000000E+00  0.00000000000E+00  0.68661776904E+03  0.68661776904E+03  0.00000000000E+00 0.  1.
         21   -1    0    0  502  503 -0.00000000000E+00 -0.00000000000E+00 -0.50823628607E+02  0.50823628607E+02  0.00000000000E+00 0. -1.
          6    1    1    2  501    0 -0.25811533563E+02  0.64904189948E+02  0.33647796170E+03  0.38474044218E+03  0.17300000000E+03 0.  1.
         -6    1    1    2    0  503  0.25811533563E+02 -0.64904189948E+02  0.29931617873E+03  0.35270095547E+03  0.17300000000E+03 0.  1.
</event>
<event>
 4    1  0.6132688E+000  0.1000000E+03  0.7546771E-02  0.1280296E+00
         21   -1    0    0  501  502  0.00000000000E+00  0.00000000000E+00  0.10672287866E+03  0.10672287866E+03  0.00000000000E+00 0.  1.
         21   -1    0    0  502  503 -0.00000000000E+00 -0.00000000000E+00 -0.40272354797E+03  0.40272354797E+03  0.00000000000E+00 0. -1.
          6    1    1    2  501    0 -0.55490742500E+01 -0.24389871382E+02 -0.11042395601E+02  0.17514734526E+03  0.17300000000E+03 0.  1.
         -6    1    1    2    0  503  0.55490742500E+01  0.24389871382E+02 -0.28495827371E+03  0.33429908137E+03  0.17300000000E+03 0.  1.
</event>
<event>
 4    1  0.6132688E+000  0.1000000E+03  0.7546771E-02  0.1280296E+00
         21   -1    0    0  501  502  0.00000000000E+00  0.00000000000E+00  0.39060267805E+03  0.39060267805E+03  0.00000000000E+00 0.  1.
         21   -1    0    0  502  503 -0.00000000000E+00 -0.00000000000E+00 -0.16255063939E+03  0.16255063939E+03  0.00000000000E+00 0.  1.
          6    1    1    2  501    0 -0.76130832795E+01 -0.13142287589E+03 -0.25824297350E+02  0.21891967860E+03  0.17300000000E+03 0.  1.
         -6    1    1    2    0  503  0.76130832795E+01  0.13142287589E+03  0.25387633601E+03  0.33423363884E+03  0.17300000000E+03 0.  1.
</event>
<event>
 4    1  0.6132688E+000  0.1000000E+03  0.7546771E-02  0.1280296E+00
         21   -1    0    0  501  502  0.00000000000E+00  0.00000000000E+00  0.10309962334E+04  0.10309962334E+04  0.00000000000E+00 0.  1.
         21   -1    0    0  502  503 -0.00000000000E+00 -0.00000000000E+00 -0.74161286612E+02  0.74161286612E+02  0.00000000000E+00 0.  1.
          6    1    1    2  501    0 -0.24221793146E+02  0.67924748765E+02  0.88468542293E+03  0.90432171505E+03  0.17300000000E+03 0.  1.
         -6    1    1    2    0  503  0.24221793146E+02 -0.67924748765E+02  0.72149523835E+02  0.20083580494E+03  0.17300000000E+03 0.  1.
</event>
<event>
 4    1  0.6132688E+000  0.1000000E+03  0.7546771E-02  0.1280296E+00
         21   -1    0    0  503  502  0.00000000000E+00  0.00000000000E+00  0.64695080947E+03  0.64695080947E+03  0.00000000000E+00 0.  1.
         21   -1    0    0  501  503 -0.00000000000E+00 -0.00000000000E+00 -0.11724462011E+03  0.11724462011E+03  0.00000000000E+00 0.  1.
          6    1    1    2  501    0  0.17716085493E+03  0.12059605200E+02  0.98420136323E+02  0.26673381081E+03  0.17300000000E+03 0.  1.
         -6    1    1    2    0  502 -0.17716085493E+03 -0.12059605200E+02  0.43128605304E+03  0.49746161876E+03  0.17300000000E+03 0.  1.
</event>
<event>
 4    1  0.6132688E+000  0.1000000E+03  0.7546771E-02  0.1280296E+00
         21   -1    0    0  503  502  0.00000000000E+00  0.00000000000E+00  0.18192528020E+04  0.18192528020E+04  0.00000000000E+00 0.  1.
         21   -1    0    0  501  503 -0.00000000000E+00 -0.00000000000E+00 -0.24421671998E+02  0.24421671998E+02  0.00000000000E+00 0.  1.
          6    1    1    2  501    0 -0.54585266699E+02  0.47719128747E+02  0.47694178505E+03  0.51250281259E+03  0.17300000000E+03 0.  1.
         -6    1    1    2    0  502  0.54585266699E+02 -0.47719128747E+02  0.13178893450E+04  0.13311716614E+04  0.17300000000E+03 0.  1.
</event>
<event>
 4    1  0.6132688E+000  0.1000000E+03  0.7546771E-02  0.1280296E+00
         21   -1    0    0  501  502  0.00000000000E+00  0.00000000000E+00  0.13901810252E+04  0.13901810252E+04  0.00000000000E+00 0. -1.
         21   -1    0    0  502  503 -0.00000000000E+00 -0.00000000000E+00 -0.51354851224E+02  0.51354851224E+02  0.00000000000E+00 0. -1.
          6    1    1    2  501    0  0.42704767832E+02  0.10377524563E+03  0.11277623150E+04  0.11464596975E+04  0.17300000000E+03 0. -1.
         -6    1    1    2    0  503 -0.42704767832E+02 -0.10377524563E+03  0.21106385889E+03  0.29507617886E+03  0.17300000000E+03 0. -1.
</event>
<event>
 4    1  0.6132688E+000  0.1000000E+03  0.7546771E-02  0.1280296E+00
         21   -1    0    0  501  502  0.00000000000E+00  0.00000000000E+00  0.65614444561E+02  0.65614444561E+02  0.00000000000E+00 0. -1.
         21   -1    0    0  502  503 -0.00000000000E+00 -0.00000000000E+00 -0.19743899318E+04  0.19743899318E+04  0.00000000000E+00 0. -1.
          6    1    1    2  501    0 -0.79714534636E+02  0.34191580434E+02 -0.94374062577E+02  0.21531125120E+03  0.17300000000E+03 0. -1.
         -6    1    1    2    0  503  0.79714534636E+02 -0.34191580434E+02 -0.18144014246E+04  0.18246931251E+04  0.17300000000E+03 0. -1.
</event>
<event>
 4    1  0.6132688E+000  0.1000000E+03  0.7546771E-02  0.1280296E+00
         21   -1    0    0  501  502  0.00000000000E+00  0.00000000000E+00  0.69644689454E+03  0.69644689454E+03  0.00000000000E+00 0. -1.
         21   -1    0    0  502  503 -0.00000000000E+00 -0.00000000000E+00 -0.14658874073E+03  0.14658874073E+03  0.00000000000E+00 0. -1.
          6    1    1    2  501    0 -0.18856377276E+03 -0.26227203960E+02  0.52495115976E+03  0.58459120995E+03  0.17300000000E+03 0. -1.
         -6    1    1    2    0  503  0.18856377276E+03  0.26227203960E+02  0.24906994057E+02  0.25844442532E+03  0.17300000000E+03 0. -1.
</event>
<event>
 4    1  0.6132688E+000  0.1000000E+03  0.7546771E-02  0.1280296E+00
         21   -1    0    0  501  502  0.00000000000E+00  0.00000000000E+00  0.24872668967E+03  0.24872668967E+03  0.00000000000E+00 0. -1.
         21   -1    0    0  502  503 -0.00000000000E+00 -0.00000000000E+00 -0.17945783774E+03  0.17945783774E+03  0.00000000000E+00 0. -1.
          6    1    1    2  501    0  0.21383227816E+01 -0.49177166176E+02  0.14694696684E+03  0.23226144140E+03  0.17300000000E+03 0. -1.
         -6    1    1    2    0  503 -0.21383227816E+01  0.49177166176E+02 -0.77678114910E+02  0.19592308601E+03  0.17300000000E+03 0. -1.
</event>
<event>
 4    1  0.6132688E+000  0.1000000E+03  0.7546771E-02  0.1280296E+00
         21   -1    0    0  501  502  0.00000000000E+00  0.00000000000E+00  0.12024347939E+04  0.12024347939E+04  0.00000000000E+00 0. -1.
         21   -1    0    0  502  503 -0.00000000000E+00 -0.00000000000E+00 -0.11238936133E+04  0.11238936133E+04  0.00000000000E+00 0. -1.
          6    1    1    2  501    0  0.63446070798E+03 -0.13706793503E+03  0.98857507123E+03  0.11952144913E+04  0.17300000000E+03 0. -1.
         -6    1    1    2    0  503 -0.63446070798E+03  0.13706793503E+03 -0.91003389062E+03  0.11311139160E+04  0.17300000000E+03 0. -1.
</event>
<event>
 4    1  0.6132688E+000  0.1000000E+03  0.7546771E-02  0.1280296E+00
         21   -1    0    0  501  502  0.00000000000E+00  0.00000000000E+00  0.70472006787E+02  0.70472006787E+02  0.00000000000E+00 0. -1.
         21   -1    0    0  502  503 -0.00000000000E+00 -0.00000000000E+00 -0.12856630210E+04  0.12856630210E+04  0.00000000000E+00 0. -1.
          6    1    1    2  501    0  0.79468916510E+02  0.14156711443E+03 -0.19028424328E+03  0.30412768671E+03  0.17300000000E+03 0. -1.
         -6    1    1    2    0  503 -0.79468916510E+02 -0.14156711443E+03 -0.10249067709E+04  0.10520073411E+04  0.17300000000E+03 0. -1.
</event>
<event>
 4    1  0.6132688E+000  0.1000000E+03  0.7546771E-02  0.1280296E+00
         21   -1    0    0  501  502  0.00000000000E+00  0.00000000000E+00  0.22100383726E+04  0.22100383726E+04  0.00000000000E+00 0. -1.
         21   -1    0    0  502  503 -0.00000000000E+00 -0.00000000000E+00 -0.31166823328E+02  0.31166823328E+02  0.00000000000E+00 0.  1.
          6    1    1    2  501    0 -0.44800654665E+02 -0.96774923846E-01  0.19101199122E+04  0.19184614114E+04  0.17300000000E+03 0. -1.
         -6    1    1    2    0  503  0.44800654665E+02  0.96774923846E-01  0.26875163705E+03  0.32274378451E+03  0.17300000000E+03 0. -1.
</event>
<event>
 4    1  0.6132688E+000  0.1000000E+03  0.7546771E-02  0.1280296E+00
         21   -1    0    0  501  502  0.00000000000E+00  0.00000000000E+00  0.10675327226E+04  0.10675327226E+04  0.00000000000E+00 0. -1.
         21   -1    0    0  502  503 -0.00000000000E+00 -0.00000000000E+00 -0.34607205018E+02  0.34607205018E+02  0.00000000000E+00 0.  1.
          6    1    1    2  501    0  0.71630837505E+02  0.35945087232E+02  0.58623824511E+03  0.61646354816E+03  0.17300000000E+03 0. -1.
         -6    1    1    2    0  503 -0.71630837505E+02 -0.35945087232E+02  0.44668727247E+03  0.48567637946E+03  0.17300000000E+03 0. -1.
</event>
<event>
 4    1  0.6132688E+000  0.1000000E+03  0.7546771E-02  0.1280296E+00
         21   -1    0    0  501  502  0.00000000000E+00  0.00000000000E+00  0.18977084356E+03  0.18977084356E+03  0.00000000000E+00 0. -1.
         21   -1    0    0  502  503 -0.00000000000E+00 -0.00000000000E+00 -0.22221241798E+03  0.22221241798E+03  0.00000000000E+00 0.  1.
          6    1    1    2  501    0 -0.53779471036E+02 -0.96428942987E+02 -0.91514629672E+01  0.20543495765E+03  0.17300000000E+03 0. -1.
         -6    1    1    2    0  503  0.53779471036E+02  0.96428942987E+02 -0.23290111451E+02  0.20654830390E+03  0.17300000000E+03 0. -1.
</event>
<event>
 4    1  0.6132688E+000  0.1000000E+03  0.7546771E-02  0.1280296E+00
         21   -1    0    0  501  502  0.00000000000E+00  0.00000000000E+00  0.68209247617E+02  0.68209247617E+02  0.00000000000E+00 0.  1.
         21   -1    0    0  502  503 -0.00000000000E+00 -0.00000000000E+00 -0.86193602845E+03  0.86193602845E+03  0.00000000000E+00 0. -1.
          6    1    1    2  501    0  0.71355662986E+02 -0.13592739450E+01 -0.10114935551E+03  0.21272910094E+03  0.17300000000E+03 0.  1.
         -6    1    1    2    0  503 -0.71355662986E+02  0.13592739450E+01 -0.69257742533E+03  0.71741617513E+03  0.17300000000E+03 0. -1.
</event>
<event>
 4    1  0.6132688E+000  0.1000000E+03  0.7546771E-02  0.1280296E+00
         21   -1    0    0  501  502  0.00000000000E+00  0.00000000000E+00  0.24049195320E+03  0.24049195320E+03  0.00000000000E+00 0.  1.
         21   -1    0    0  502  503 -0.00000000000E+00 -0.00000000000E+00 -0.17304098031E+03  0.17304098031E+03  0.00000000000E+00 0. -1.
          6    1    1    2  501    0 -0.19490263215E+02 -0.87417659934E+02 -0.27629186081E+02  0.19675896308E+03  0.17300000000E+03 0.  1.
         -6    1    1    2    0  503  0.19490263215E+02  0.87417659934E+02  0.95080158964E+02  0.21677397043E+03  0.17300000000E+03 0. -1.
</event>
<event>
 4    1  0.6132688E+000  0.1000000E+03  0.7546771E-02  0.1280296E+00
         21   -1    0    0  501  502  0.00000000000E+00  0.00000000000E+00  0.43257777081E+03  0.43257777081E+03  0.00000000000E+00 0.  1.
         21   -1    0    0  502  503 -0.00000000000E+00 -0.00000000000E+00 -0.28596795945E+03  0.28596795945E+03  0.00000000000E+00 0. -1.
          6    1    1    2  501    0 -0.18129121827E+03 -0.22173707621E+03  0.18398710252E+03  0.38185611254E+03  0.17300000000E+03 0.  1.
         -6    1    1    2    0  503  0.18129121827E+03  0.22173707621E+03 -0.37377291159E+02  0.33668961772E+03  0.17300000000E+03 0. -1.
</event>
<event>
 4    1  0.6132688E+000  0.1000000E+03  0.7546771E-02  0.1280296E+00
         21   -1    0    0  501  502  0.00000000000E+00  0.00000000000E+00  0.13201795244E+03  0.13201795244E+03  0.00000000000E+00 0.  1.
         21   -1    0    0  502  503 -0.00000000000E+00 -0.00000000000E+00 -0.76570064134E+03  0.76570064134E+03  0.00000000000E+00 0. -1.
          6    1    1    2  501    0  0.78236788394E+02  0.25481403608E+03 -0.30230333857E+03  0.43859719168E+03  0.17300000000E+03 0.  1.
         -6    1    1    2    0  503 -0.78236788394E+02 -0.25481403608E+03 -0.33137935033E+03  0.45912140210E+03  0.17300000000E+03 0. -1.
</event>
<event>
 4    1  0.6132688E+000  0.1000000E+03  0.7546771E-02  0.1280296E+00
         21   -1    0    0  501  502  0.00000000000E+00  0.00000000000E+00  0.11305121727E+03  0.11305121727E+03  0.00000000000E+00 0. -1.
         21   -1    0    0  502  503 -0.00000000000E+00 -0.00000000000E+00 -0.95457632480E+03  0.95457632480E+03  0.00000000000E+00 0. -1.
          6    1    1    2  501    0  0.67499184597E+02 -0.69034964465E+02  0.50463028814E+01  0.19818282320E+03  0.17300000000E+03 0. -1.
         -6    1    1    2    0  503 -0.67499184597E+02  0.69034964465E+02 -0.84657141041E+03  0.86944471887E+03  0.17300000000E+03 0. -1.
</event>
<event>
 4    1  0.6132688E+000  0.1000000E+03  0.7546771E-02  0.1280296E+00
         21   -1    0    0  501  502  0.00000000000E+00  0.00000000000E+00  0.14749830621E+03  0.14749830621E+03  0.00000000000E+00 0. -1.
         21   -1    0    0  502  503 -0.00000000000E+00 -0.00000000000E+00 -0.10110303974E+04  0.10110303974E+04  0.00000000000E+00 0. -1.
          6    1    1    2  501    0 -0.45988044461E+02 -0.79650519582E+02  0.67403270193E+02  0.20719871220E+03  0.17300000000E+03 0. -1.
         -6    1    1    2    0  503  0.45988044461E+02  0.79650519582E+02 -0.93093536136E+03  0.95132999139E+03  0.17300000000E+03 0. -1.
</event>
<event>
 4    1  0.6132688E+000  0.1000000E+03  0.7546771E-02  0.1280296E+00
         21   -1    0    0  501  502  0.00000000000E+00  0.00000000000E+00  0.14388440782E+04  0.14388440782E+04  0.00000000000E+00 0. -1.
         21   -1    0    0  502  503 -0.00000000000E+00 -0.00000000000E+00 -0.61659195231E+02  0.61659195231E+02  0.00000000000E+00 0. -1.
          6    1    1    2  501    0 -0.15421617137E+03  0.13509574000E+03  0.10146389953E+04  0.10495021569E+04  0.17300000000E+03 0. -1.
         -6    1    1    2    0  503  0.15421617137E+03 -0.13509574000E+03  0.36254588765E+03  0.45100111655E+03  0.17300000000E+03 0. -1.
</event>
<event>
 4    1  0.6132688E+000  0.1000000E+03  0.7546771E-02  0.1280296E+00
         21   -1    0    0  501  502  0.00000000000E+00  0.00000000000E+00  0.41196032021E+03  0.41196032021E+03  0.00000000000E+00 0.  1.
         21   -1    0    0  502  503 -0.00000000000E+00 -0.00000000000E+00 -0.79814186312E+02  0.79814186312E+02  0.00000000000E+00 0.  1.
          6    1    1    2  501    0 -0.33685275319E+02  0.39120760688E+01  0.22362479450E+03  0.28475788106E+03  0.17300000000E+03 0.  1.
         -6    1    1    2    0  503  0.33685275319E+02 -0.39120760688E+01  0.10852133940E+03  0.20701662546E+03  0.17300000000E+03 0.  1.
</event>
<event>
 4    1  0.6132688E+000  0.1000000E+03  0.7546771E-02  0.1280296E+00
         21   -1    0    0  501  502  0.00000000000E+00  0.00000000000E+00  0.82864989772E+03  0.82864989772E+03  0.00000000000E+00 0.  1.
         21   -1    0    0  502  503 -0.00000000000E+00 -0.00000000000E+00 -0.39037111694E+02  0.39037111694E+02  0.00000000000E+00 0.  1.
          6    1    1    2  501    0  0.39131145280E+02 -0.21907754645E+02  0.44352409943E+03  0.47817760615E+03  0.17300000000E+03 0.  1.
         -6    1    1    2    0  503 -0.39131145280E+02  0.21907754645E+02  0.34608868660E+03  0.38950940327E+03  0.17300000000E+03 0.  1.
</event>
<event>
 4    1  0.6132688E+000  0.1000000E+03  0.7546771E-02  0.1280296E+00
         21   -1    0    0  501  502  0.00000000000E+00  0.00000000000E+00  0.11073609404E+03  0.11073609404E+03  0.00000000000E+00 0.  1.
         21   -1    0    0  502  503 -0.00000000000E+00 -0.00000000000E+00 -0.12564237308E+04  0.12564237308E+04  0.00000000000E+00 0.  1.
          6    1    1    2  501    0  0.15159317625E+02  0.11570362659E+03 -0.62494795884E+01  0.20877066392E+03  0.17300000000E+03 0.  1.
         -6    1    1    2    0  503 -0.15159317625E+02 -0.11570362659E+03 -0.11394381571E+04  0.11583891609E+04  0.17300000000E+03 0.  1.
</event>
<event>
 4    1  0.6132688E+000  0.1000000E+03  0.7546771E-02  0.1280296E+00
         21   -1    0    0  501  502  0.00000000000E+00  0.00000000000E+00  0.13783264898E+02  0.13783264898E+02  0.00000000000E+00 0.  1.
         21   -1    0    0  502  503 -0.00000000000E+00 -0.00000000000E+00 -0.27917546443E+04  0.27917546443E+04  0.00000000000E+00 0.  1.
          6    1    1    2  501    0  0.85834698419E+02  0.33946663231E+02 -0.13494780779E+04  0.13636495349E+04  0.17300000000E+03 0.  1.
         -6    1    1    2    0  503 -0.85834698419E+02 -0.33946663231E+02 -0.14284933015E+04  0.14418883743E+04  0.17300000000E+03 0.  1.
</event>
<event>
 4    1  0.6132688E+000  0.1000000E+03  0.7546771E-02  0.1280296E+00
         21   -1    0    0  503  502  0.00000000000E+00  0.00000000000E+00  0.51237450150E+03  0.51237450150E+03  0.00000000000E+00 0.  1.
         21   -1    0    0  501  503 -0.00000000000E+00 -0.00000000000E+00 -0.18943016662E+03  0.18943016662E+03  0.00000000000E+00 0.  1.
          6    1    1    2  501    0  0.46827896962E+02 -0.62576736499E+02 -0.11676127322E+03  0.22286968122E+03  0.17300000000E+03 0.  1.
         -6    1    1    2    0  502 -0.46827896962E+02  0.62576736499E+02  0.43970560810E+03  0.47893498690E+03  0.17300000000E+03 0.  1.
</event>
<event>
 4    1  0.6132688E+000  0.1000000E+03  0.7546771E-02  0.1280296E+00
         21   -1    0    0  503  502  0.00000000000E+00  0.00000000000E+00  0.14112309589E+03  0.14112309589E+03  0.00000000000E+00 0.  1.
         21   -1    0    0  501  503 -0.00000000000E+00 -0.00000000000E+00 -0.56099251376E+03  0.56099251376E+03  0.00000000000E+00 0.  1.
          6    1    1    2  501    0  0.15068284572E+03 -0.31121682434E-01 -0.41317414178E+03  0.47259622554E+03  0.17300000000E+03 0.  1.
         -6    1    1    2    0  502 -0.15068284572E+03  0.31121682434E-01 -0.66952760947E+01  0.22951938411E+03  0.17300000000E+03 0.  1.
</event>
<event>
 4    1  0.6132688E+000  0.1000000E+03  0.7546771E-02  0.1280296E+00
         21   -1    0    0  503  502  0.00000000000E+00  0.00000000000E+00  0.10252175586E+03  0.10252175586E+03  0.00000000000E+00 0.  1.
         21   -1    0    0  501  503 -0.00000000000E+00 -0.00000000000E+00 -0.32213215715E+03  0.32213215715E+03  0.00000000000E+00 0.  1.
          6    1    1    2  501    0 -0.24675504057E+02  0.43892868850E+02 -0.13748075414E+03  0.22663941006E+03  0.17300000000E+03 0.  1.
         -6    1    1    2    0  502  0.24675504057E+02 -0.43892868850E+02 -0.82129647155E+02  0.19801450295E+03  0.17300000000E+03 0.  1.
</event>
<event>
 4    1  0.6132688E+000  0.1000000E+03  0.7546771E-02  0.1280296E+00
         21   -1    0    0  503  502  0.00000000000E+00  0.00000000000E+00  0.12969137340E+04  0.12969137340E+04  0.00000000000E+00 0.  1.
         21   -1    0    0  501  503 -0.00000000000E+00 -0.00000000000E+00 -0.19554456983E+03  0.19554456983E+03  0.00000000000E+00 0.  1.
          6    1    1    2  501    0  0.33950033248E+03 -0.14105052219E+03  0.10981129640E+03  0.42088388706E+03  0.17300000000E+03 0.  1.
         -6    1    1    2    0  502 -0.33950033248E+03  0.14105052219E+03  0.99155786777E+03  0.10715744168E+04  0.17300000000E+03 0.  1.
</event>
<event>
 4    1  0.6132688E+000  0.1000000E+03  0.7546771E-02  0.1280296E+00
         21   -1    0    0  503  502  0.00000000000E+00  0.00000000000E+00  0.26498130828E+03  0.26498130828E+03  0.00000000000E+00 0.  1.
         21   -1    0    0  501  503 -0.00000000000E+00 -0.00000000000E+00 -0.12064597651E+04  0.12064597651E+04  0.00000000000E+00 0. -1.
          6    1    1    2  501    0  0.14001167890E+03  0.18173949323E+03 -0.11043755281E+04  0.11411427697E+04  0.17300000000E+03 0.  1.
         -6    1    1    2    0  502 -0.14001167890E+03 -0.18173949323E+03  0.16289707127E+03  0.33029830374E+03  0.17300000000E+03 0.  1.
</event>
<event>
 4    1  0.6132688E+000  0.1000000E+03  0.7546771E-02  0.1280296E+00
         21   -1    0    0  503  502  0.00000000000E+00  0.00000000000E+00  0.20806738897E+03  0.20806738897E+03  0.00000000000E+00 0.  1.
         21   -1    0    0  501  503 -0.00000000000E+00 -0.00000000000E+00 -0.46219668938E+03  0.46219668938E+03  0.00000000000E+00 0. -1.
          6    1    1    2  501    0 -0.24836757610E+02 -0.10114167589E+03 -0.38141141909E+03  0.43156711384E+03  0.17300000000E+03 0.  1.
         -6    1    1    2    0  502  0.24836757610E+02  0.10114167589E+03  0.12728211869E+03  0.23869696451E+03  0.17300000000E+03 0.  1.
</event>
<event>
 4    1  0.6132688E+000  0.1000000E+03  0.7546771E-02  0.1280296E+00
         21   -1    0    0  503  502  0.00000000000E+00  0.00000000000E+00  0.10317182256E+03  0.10317182256E+03  0.00000000000E+00 0.  1.
         21   -1    0    0  501  503 -0.00000000000E+00 -0.00000000000E+00 -0.90385891073E+03  0.90385891073E+03  0.00000000000E+00 0. -1.
          6    1    1    2  501    0 -0.41355937367E+02  0.12120266747E+03 -0.75751476492E+03  0.78750112332E+03  0.17300000000E+03 0.  1.
         -6    1    1    2    0  502  0.41355937367E+02 -0.12120266747E+03 -0.43172323243E+02  0.21952960996E+03  0.17300000000E+03 0.  1.
</event>
<event>
 4    1  0.6132688E+000  0.1000000E+03  0.7546771E-02  0.1280296E+00
         21   -1    0    0  503  502  0.00000000000E+00  0.00000000000E+00  0.78273447544E+03  0.78273447544E+03  0.00000000000E+00 0.  1.
         21   -1    0    0  501  503 -0.00000000000E+00 -0.00000000000E+00 -0.59249098514E+02  0.59249098514E+02  0.00000000000E+00 0.  1.
          6    1    1    2  501    0  0.12177606323E+03 -0.10600771722E+02  0.28589022948E+03  0.35581457144E+03  0.17300000000E+03 0.  1.
         -6    1    1    2    0  502 -0.12177606323E+03  0.10600771722E+02  0.43759514744E+03  0.48616900251E+03  0.17300000000E+03 0.  1.
</event>
<event>
 4    1  0.6132688E+000  0.1000000E+03  0.7546771E-02  0.1280296E+00
         21   -1    0    0  503  502  0.00000000000E+00  0.00000000000E+00  0.17196008342E+03  0.17196008342E+03  0.00000000000E+00 0.  1.
         21   -1    0    0  501  503 -0.00000000000E+00 -0.00000000000E+00 -0.57567815895E+03  0.57567815895E+03  0.00000000000E+00 0.  1.
          6    1    1    2  501    0 -0.15926983057E+02 -0.24989536444E+03 -0.29663519358E+03  0.42499741179E+03  0.17300000000E+03 0.  1.
         -6    1    1    2    0  502  0.15926983057E+02  0.24989536444E+03 -0.10708288195E+03  0.32264083059E+03  0.17300000000E+03 0.  1.
</event>
<event>
 4    1  0.6132688E+000  0.1000000E+03  0.7546771E-02  0.1280296E+00
         21   -1    0    0  503  502  0.00000000000E+00  0.00000000000E+00  0.16057821447E+03  0.16057821447E+03  0.00000000000E+00 0.  1.
         21   -1    0    0  501  503 -0.00000000000E+00 -0.00000000000E+00 -0.35674899172E+03  0.35674899172E+03  0.00000000000E+00 0.  1.
          6    1    1    2  501    0 -0.20132430826E+02 -0.15996848628E+03 -0.58203032353E+02  0.24354019042E+03  0.17300000000E+03 0.  1.
         -6    1    1    2    0  502  0.20132430826E+02  0.15996848628E+03 -0.13796774490E+03  0.27378701577E+03  0.17300000000E+03 0.  1.
</event>
<event>
 4    1  0.6132688E+000  0.1000000E+03  0.7546771E-02  0.1280296E+00
         21   -1    0    0  503  502  0.00000000000E+00  0.00000000000E+00  0.28775601226E+03  0.28775601226E+03  0.00000000000E+00 0.  1.
         21   -1    0    0  501  503 -0.00000000000E+00 -0.00000000000E+00 -0.27368439059E+03  0.27368439059E+03  0.00000000000E+00 0.  1.
          6    1    1    2  501    0  0.97734600135E+02  0.85333814272E+02  0.18595346168E+03  0.28520449126E+03  0.17300000000E+03 0.  1.
         -6    1    1    2    0  502 -0.97734600135E+02 -0.85333814272E+02 -0.17188184002E+03  0.27623591159E+03  0.17300000000E+03 0.  1.
</event>
<event>
 4    1  0.6132688E+000  0.1000000E+03  0.7546771E-02  0.1280296E+00
         21   -1    0    0  501  502  0.00000000000E+00  0.00000000000E+00  0.11373409351E+03  0.11373409351E+03  0.00000000000E+00 0. -1.
         21   -1    0    0  502  503 -0.00000000000E+00 -0.00000000000E+00 -0.10422971697E+04  0.10422971697E+04  0.00000000000E+00 0.  1.
          6    1    1    2  501    0  0.14138369952E+03 -0.19036915751E+03 -0.16216337369E+03  0.33534419093E+03  0.17300000000E+03 0. -1.
         -6    1    1    2    0  503 -0.14138369952E+03  0.19036915751E+03 -0.76639970251E+03  0.82068707229E+03  0.17300000000E+03 0.  1.
</event>
<event>
 4    1  0.6132688E+000  0.1000000E+03  0.7546771E-02  0.1280296E+00
         21   -1    0    0  501  502  0.00000000000E+00  0.00000000000E+00  0.92482489244E+02  0.92482489244E+02  0.00000000000E+00 0. -1.
         21   -1    0    0  502  503 -0.00000000000E+00 -0.00000000000E+00 -0.19155854814E+04  0.19155854814E+04  0.00000000000E+00 0.  1.
          6    1    1    2  501    0  0.32752270260E+03 -0.24624226839E+02 -0.43834651199E+03  0.57441634538E+03  0.17300000000E+03 0. -1.
         -6    1    1    2    0  503 -0.32752270260E+03  0.24624226839E+02 -0.13847564802E+04  0.14336516253E+04  0.17300000000E+03 0.  1.
</event>
<event>
 4    1  0.6132688E+000  0.1000000E+03  0.7546771E-02  0.1280296E+00
         21   -1    0    0  501  502  0.00000000000E+00  0.00000000000E+00  0.38808601035E+03  0.38808601035E+03  0.00000000000E+00 0. -1.
         21   -1    0    0  502  503 -0.00000000000E+00 -0.00000000000E+00 -0.31785831076E+03  0.31785831076E+03  0.00000000000E+00 0.  1.
          6    1    1    2  501    0 -0.60627439639E+02 -0.47709168076E+02  0.33235088569E+03  0.38254145184E+03  0.17300000000E+03 0. -1.
         -6    1    1    2    0  503  0.60627439639E+02  0.47709168076E+02 -0.26212318611E+03  0.32340286927E+03  0.17300000000E+03 0.  1.
</event>
<event>
 4    1  0.6132688E+000  0.1000000E+03  0.7546771E-02  0.1280296E+00
         21   -1    0    0  503  502  0.00000000000E+00  0.00000000000E+00  0.52453826023E+03  0.52453826023E+03  0.00000000000E+00 0.  1.
         21   -1    0    0  501  503 -0.00000000000E+00 -0.00000000000E+00 -0.16193971645E+03  0.16193971645E+03  0.00000000000E+00 0.  1.
          6    1    1    2  501    0  0.10371767186E+03 -0.20819780600E+03  0.14575533256E+03  0.32446463420E+03  0.17300000000E+03 0.  1.
         -6    1    1    2    0  502 -0.10371767186E+03  0.20819780600E+03  0.21684321122E+03  0.36201334247E+03  0.17300000000E+03 0.  1.
</event>
<event>
 4    1  0.6132688E+000  0.1000000E+03  0.7546771E-02  0.1280296E+00
         21   -1    0    0  503  502  0.00000000000E+00  0.00000000000E+00  0.11583025929E+03  0.11583025929E+03  0.00000000000E+00 0.  1.
         21   -1    0    0  501  503 -0.00000000000E+00 -0.00000000000E+00 -0.35994159935E+03  0.35994159935E+03  0.00000000000E+00 0.  1.
          6    1    1    2  501    0 -0.43725656117E+02  0.99244544588E+02 -0.12358189776E+03  0.23866901367E+03  0.17300000000E+03 0.  1.
         -6    1    1    2    0  502  0.43725656117E+02 -0.99244544588E+02 -0.12052944229E+03  0.23710284497E+03  0.17300000000E+03 0.  1.
</event>
<event>
 4    1  0.6132688E+000  0.1000000E+03  0.7546771E-02  0.1280296E+00
         21   -1    0    0  501  502  0.00000000000E+00  0.00000000000E+00  0.21548066056E+03  0.21548066056E+03  0.00000000000E+00 0.  1.
         21   -1    0    0  502  503 -0.00000000000E+00 -0.00000000000E+00 -0.44905613721E+03  0.44905613721E+03  0.00000000000E+00 0. -1.
          6    1    1    2  501    0  0.65552766382E+02 -0.40542544945E+02  0.14679589189E+03  0.23962240506E+03  0.17300000000E+03 0. -1.
         -6    1    1    2    0  503 -0.65552766382E+02  0.40542544945E+02 -0.38037136853E+03  0.42491439271E+03  0.17300000000E+03 0. -1.
</event>
<event>
 4    1  0.6132688E+000  0.1000000E+03  0.7546771E-02  0.1280296E+00
         21   -1    0    0  501  502  0.00000000000E+00  0.00000000000E+00  0.94813625469E+02  0.94813625469E+02  0.00000000000E+00 0.  1.
         21   -1    0    0  502  503 -0.00000000000E+00 -0.00000000000E+00 -0.64472901523E+03  0.64472901523E+03  0.00000000000E+00 0. -1.
          6    1    1    2  501    0  0.13804853155E+03  0.11015377018E+03 -0.27940568509E+03  0.37307879463E+03  0.17300000000E+03 0. -1.
         -6    1    1    2    0  503 -0.13804853155E+03 -0.11015377018E+03 -0.27050970467E+03  0.36646384606E+03  0.17300000000E+03 0. -1.
</event>
<event>
 4    1  0.6132688E+000  0.1000000E+03  0.7546771E-02  0.1280296E+00
         21   -1    0    0  501  502  0.00000000000E+00  0.00000000000E+00  0.57613696178E+03  0.57613696178E+03  0.00000000000E+00 0.  1.
         21   -1    0    0  502  503 -0.00000000000E+00 -0.00000000000E+00 -0.14847039892E+03  0.14847039892E+03  0.00000000000E+00 0.  1.
          6    1    1    2  501    0 -0.33942190782E+02 -0.15822699979E+03  0.42631873243E+03  0.48771356081E+03  0.17300000000E+03 0.  1.
         -6    1    1    2    0  503  0.33942190782E+02  0.15822699979E+03  0.13478304250E+01  0.23689379988E+03  0.17300000000E+03 0.  1.
</event>
<event>
 4    1  0.6132688E+000  0.1000000E+03  0.7546771E-02  0.1280296E+00
         21   -1    0    0  503  502  0.00000000000E+00  0.00000000000E+00  0.61393663221E+03  0.61393663221E+03  0.00000000000E+00 0.  1.
         21   -1    0    0  501  503 -0.00000000000E+00 -0.00000000000E+00 -0.61184854594E+03  0.61184854594E+03  0.00000000000E+00 0. -1.
          6    1    1    2  501    0  0.52239636755E+03 -0.26926838785E+03 -0.16386019308E+02  0.61286289752E+03  0.17300000000E+03 0. -1.
         -6    1    1    2    0  502 -0.52239636755E+03  0.26926838785E+03  0.18474105582E+02  0.61292228064E+03  0.17300000000E+03 0.  1.
</event>
<event>
 4    1  0.6132688E+000  0.1000000E+03  0.7546771E-02  0.1280296E+00
         21   -1    0    0  501  502  0.00000000000E+00  0.00000000000E+00  0.13233518072E+03  0.13233518072E+03  0.00000000000E+00 0.  1.
         21   -1    0    0  502  503 -0.00000000000E+00 -0.00000000000E+00 -0.72435429231E+03  0.72435429231E+03  0.00000000000E+00 0.  1.
          6    1    1    2  501    0 -0.37431864944E+02  0.70909736965E+02  0.41461008479E+02  0.19513418597E+03  0.17300000000E+03 0.  1.
         -6    1    1    2    0  503  0.37431864944E+02 -0.70909736965E+02 -0.63348012008E+03  0.66155528706E+03  0.17300000000E+03 0.  1.
</event>
<event>
 4    1  0.6132688E+000  0.1000000E+03  0.7546771E-02  0.1280296E+00
         21   -1    0    0  501  502  0.00000000000E+00  0.00000000000E+00  0.10712963981E+04  0.10712963981E+04  0.00000000000E+00 0.  1.
         21   -1    0    0  502  503 -0.00000000000E+00 -0.00000000000E+00 -0.21064032354E+03  0.21064032354E+03  0.00000000000E+00 0.  1.
          6    1    1    2  501    0 -0.21194793757E+03  0.38515482096E+02  0.95173353011E+03  0.99102526857E+03  0.17300000000E+03 0.  1.
         -6    1    1    2    0  503  0.21194793757E+03 -0.38515482096E+02 -0.91077455569E+02  0.29091145305E+03  0.17300000000E+03 0.  1.
</event>
<event>
 4    1  0.6132688E+000  0.1000000E+03  0.7546771E-02  0.1280296E+00
         21   -1    0    0  503  502  0.00000000000E+00  0.00000000000E+00  0.99141739743E+02  0.99141739743E+02  0.00000000000E+00 0. -1.
         21   -1    0    0  501  503 -0.00000000000E+00 -0.00000000000E+00 -0.55975565121E+03  0.55975565121E+03  0.00000000000E+00 0. -1.
          6    1    1    2  501    0 -0.60185986848E+01 -0.87441838956E+02 -0.41732813651E+03  0.46018917008E+03  0.17300000000E+03 0. -1.
         -6    1    1    2    0  502  0.60185986848E+01  0.87441838956E+02 -0.43285774953E+02  0.19870822088E+03  0.17300000000E+03 0. -1.
</event>
<event>
 4    1  0.6132688E+000  0.1000000E+03  0.7546771E-02  0.1280296E+00
         21   -1    0    0  503  502  0.00000000000E+00  0.00000000000E+00  0.68011385006E+02  0.68011385006E+02  0.00000000000E+00 0. -1.
         21   -1    0    0  501  503 -0.00000000000E+00 -0.00000000000E+00 -0.10900466476E+04  0.10900466476E+04  0.00000000000E+00 0. -1.
          6    1    1    2  501    0 -0.54380845196E+02 -0.98404027652E+00 -0.94292459001E+03  0.96020520051E+03  0.17300000000E+03 0. -1.
         -6    1    1    2    0  502  0.54380845196E+02  0.98404027652E+00 -0.79110672633E+02  0.19785283214E+03  0.17300000000E+03 0. -1.
</event>
<event>
 4    1  0.6132688E+000  0.1000000E+03  0.7546771E-02  0.1280296E+00
         21   -1    0    0  503  502  0.00000000000E+00  0.00000000000E+00  0.29478694699E+03  0.29478694699E+03  0.00000000000E+00 0. -1.
         21   -1    0    0  501  503 -0.00000000000E+00 -0.00000000000E+00 -0.32884613713E+03  0.32884613713E+03  0.00000000000E+00 0. -1.
          6    1    1    2  501    0 -0.20164556150E+01 -0.18955783779E+02 -0.27557658210E+03  0.32593686572E+03  0.17300000000E+03 0. -1.
         -6    1    1    2    0  502  0.20164556150E+01  0.18955783779E+02  0.24151739197E+03  0.29769621841E+03  0.17300000000E+03 0. -1.
</event>
<event>
 4    1  0.6132688E+000  0.1000000E+03  0.7546771E-02  0.1280296E+00
         21   -1    0    0  503  502  0.00000000000E+00  0.00000000000E+00  0.48102439782E+03  0.48102439782E+03  0.00000000000E+00 0.  1.
         21   -1    0    0  501  503 -0.00000000000E+00 -0.00000000000E+00 -0.13774659287E+03  0.13774659287E+03  0.00000000000E+00 0. -1.
          6    1    1    2  501    0  0.11141751586E+03 -0.70284343939E+02  0.60670379458E+01  0.21753059737E+03  0.17300000000E+03 0. -1.
         -6    1    1    2    0  502 -0.11141751586E+03  0.70284343939E+02  0.33721076701E+03  0.40124039332E+03  0.17300000000E+03 0.  1.
</event>
<event>
 4    1  0.6132688E+000  0.1000000E+03  0.7546771E-02  0.1280296E+00
         21   -1    0    0  503  502  0.00000000000E+00  0.00000000000E+00  0.16672631316E+03  0.16672631316E+03  0.00000000000E+00 0.  1.
         21   -1    0    0  501  503 -0.00000000000E+00 -0.00000000000E+00 -0.62966709673E+03  0.62966709673E+03  0.00000000000E+00 0.  1.
          6    1    1    2  501    0  0.12678451126E+03 -0.14289116493E+03 -0.47280162699E+03  0.53848173209E+03  0.17300000000E+03 0.  1.
         -6    1    1    2    0  502 -0.12678451126E+03  0.14289116493E+03  0.98608434179E+01  0.25791167779E+03  0.17300000000E+03 0.  1.
</event>
<event>
 4    1  0.6132688E+000  0.1000000E+03  0.7546771E-02  0.1280296E+00
         21   -1    0    0  501  502  0.00000000000E+00  0.00000000000E+00  0.10592751836E+03  0.10592751836E+03  0.00000000000E+00 0. -1.
         21   -1    0    0  502  503 -0.00000000000E+00 -0.00000000000E+00 -0.35944392577E+03  0.35944392577E+03  0.00000000000E+00 0. -1.
          6    1    1    2  501    0 -0.62638398312E+02  0.40466745978E+02 -0.66130702780E+02  0.19965819874E+03  0.17300000000E+03 0.  1.
         -6    1    1    2    0  503  0.62638398312E+02 -0.40466745978E+02 -0.18738570463E+03  0.26571324539E+03  0.17300000000E+03 0.  1.
</event>
<event>
 4    1  0.6132688E+000  0.1000000E+03  0.7546771E-02  0.1280296E+00
         21   -1    0    0  501  502  0.00000000000E+00  0.00000000000E+00  0.64905280848E+02  0.64905280848E+02  0.00000000000E+00 0.  1.
         21   -1    0    0  502  503 -0.00000000000E+00 -0.00000000000E+00 -0.73399556889E+03  0.73399556889E+03  0.00000000000E+00 0.  1.
          6    1    1    2  501    0  0.10759428662E+03 -0.30951173295E+02 -0.20287056667E+03  0.28917118194E+03  0.17300000000E+03 0.  1.
         -6    1    1    2    0  503 -0.10759428662E+03  0.30951173295E+02 -0.46621972137E+03  0.50972966780E+03  0.17300000000E+03 0.  1.
</event>
<event>
 4    1  0.6132688E+000  0.1000000E+03  0.7546771E-02  0.1280296E+00
         21   -1    0    0  501  502  0.00000000000E+00  0.00000000000E+00  0.54115646659E+03  0.54115646659E+03  0.00000000000E+00 0.  1.
         21   -1    0    0  502  503 -0.00000000000E+00 -0.00000000000E+00 -0.31428046350E+03  0.31428046350E+03  0.00000000000E+00 0.  1.
          6    1    1    2  501    0 -0.32143084921E+03  0.18581196373E+03  0.63676528923E+02  0.41452090059E+03  0.17300000000E+03 0.  1.
         -6    1    1    2    0  503  0.32143084921E+03 -0.18581196373E+03  0.16319947417E+03  0.44091602949E+03  0.17300000000E+03 0.  1.
</event>
<event>
 4    1  0.6132688E+000  0.1000000E+03  0.7546771E-02  0.1280296E+00
         21   -1    0    0  501  502  0.00000000000E+00  0.00000000000E+00  0.40740151118E+03  0.40740151118E+03  0.00000000000E+00 0. -1.
         21   -1    0    0  502  503 -0.00000000000E+00 -0.00000000000E+00 -0.33087223691E+03  0.33087223691E+03  0.00000000000E+00 0. -1.
          6    1    1    2  501    0 -0.89212895007E+02  0.15440232164E+03  0.31004307765E+03  0.39730936002E+03  0.17300000000E+03 0. -1.
         -6    1    1    2    0  503  0.89212895007E+02 -0.15440232164E+03 -0.23351380338E+03  0.34096438807E+03  0.17300000000E+03 0. -1.
</event>
<event>
 4    1  0.6132688E+000  0.1000000E+03  0.7546771E-02  0.1280296E+00
         21   -1    0    0  501  502  0.00000000000E+00  0.00000000000E+00  0.13561060976E+03  0.13561060976E+03  0.00000000000E+00 0.  1.
         21   -1    0    0  502  503 -0.00000000000E+00 -0.00000000000E+00 -0.25639710145E+03  0.25639710145E+03  0.00000000000E+00 0. -1.
          6    1    1    2  501    0  0.25567629991E+01 -0.11919501351E+02  0.11612299426E+02  0.17381730940E+03  0.17300000000E+03 0.  1.
         -6    1    1    2    0  503 -0.25567629991E+01  0.11919501351E+02 -0.13239879112E+03  0.21819040180E+03  0.17300000000E+03 0. -1.
</event>
<event>
 4    1  0.6132688E+000  0.1000000E+03  0.7546771E-02  0.1280296E+00
         21   -1    0    0  501  502  0.00000000000E+00  0.00000000000E+00  0.64022048994E+03  0.64022048994E+03  0.00000000000E+00 0.  1.
         21   -1    0    0  502  503 -0.00000000000E+00 -0.00000000000E+00 -0.53414274473E+02  0.53414274473E+02  0.00000000000E+00 0. -1.
          6    1    1    2  501    0 -0.29244718440E+02 -0.21675448953E+01  0.40288813299E+03  0.43944032531E+03  0.17300000000E+03 0.  1.
         -6    1    1    2    0  503  0.29244718440E+02  0.21675448953E+01  0.18391808248E+03  0.25419443910E+03  0.17300000000E+03 0. -1.
</event>
<event>
 4    1  0.6132688E+000  0.1000000E+03  0.7546771E-02  0.1280296E+00
         21   -1    0    0  501  502  0.00000000000E+00  0.00000000000E+00  0.24215963998E+03  0.24215963998E+03  0.00000000000E+00 0.  1.
         21   -1    0    0  502  503 -0.00000000000E+00 -0.00000000000E+00 -0.10778699173E+04  0.10778699173E+04  0.00000000000E+00 0. -1.
          6    1    1    2  501    0  0.13230216877E+03  0.31504557318E+03  0.18962062501E+02  0.38346595267E+03  0.17300000000E+03 0.  1.
         -6    1    1    2    0  503 -0.13230216877E+03 -0.31504557318E+03 -0.85467233984E+03  0.93656360464E+03  0.17300000000E+03 0. -1.
</event>
<event>
 4    1  0.6132688E+000  0.1000000E+03  0.7546771E-02  0.1280296E+00
         21   -1    0    0  503  502  0.00000000000E+00  0.00000000000E+00  0.22135377073E+02  0.22135377073E+02  0.00000000000E+00 0.  1.
         21   -1    0    0  501  503 -0.00000000000E+00 -0.00000000000E+00 -0.21904618338E+04  0.21904618338E+04  0.00000000000E+00 0. -1.
          6    1    1    2  501    0  0.45924385903E+02  0.39002324814E+02 -0.47032471526E+03  0.50474208102E+03  0.17300000000E+03 0.  1.
         -6    1    1    2    0  502 -0.45924385903E+02 -0.39002324814E+02 -0.16980017415E+04  0.17078551299E+04  0.17300000000E+03 0. -1.
</event>
<event>
 4    1  0.6132688E+000  0.1000000E+03  0.7546771E-02  0.1280296E+00
         21   -1    0    0  503  502  0.00000000000E+00  0.00000000000E+00  0.20446892146E+03  0.20446892146E+03  0.00000000000E+00 0.  1.
         21   -1    0    0  501  503 -0.00000000000E+00 -0.00000000000E+00 -0.20438498034E+03  0.20438498034E+03  0.00000000000E+00 0.  1.
          6    1    1    2  501    0  0.21486089358E+02  0.42977348382E+02 -0.97695803021E+02  0.20440688452E+03  0.17300000000E+03 0.  1.
         -6    1    1    2    0  502 -0.21486089358E+02 -0.42977348382E+02  0.97779744142E+02  0.20444701728E+03  0.17300000000E+03 0.  1.
</event>
<event>
 4    1  0.6132688E+000  0.1000000E+03  0.7546771E-02  0.1280296E+00
         21   -1    0    0  501  502  0.00000000000E+00  0.00000000000E+00  0.69306328221E+03  0.69306328221E+03  0.00000000000E+00 0.  1.
         21   -1    0    0  502  503 -0.00000000000E+00 -0.00000000000E+00 -0.25337279011E+03  0.25337279011E+03  0.00000000000E+00 0.  1.
          6    1    1    2  501    0 -0.13209981575E+02 -0.45946497081E+02  0.64745978367E+03  0.67187703910E+03  0.17300000000E+03 0.  1.
         -6    1    1    2    0  503  0.13209981575E+02  0.45946497081E+02 -0.20776929157E+03  0.27455903322E+03  0.17300000000E+03 0.  1.
</event>
<event>
 4    1  0.6132688E+000  0.1000000E+03  0.7546771E-02  0.1280296E+00
         21   -1    0    0  501  502  0.00000000000E+00  0.00000000000E+00  0.22583796122E+04  0.22583796122E+04  0.00000000000E+00 0.  1.
         21   -1    0    0  502  503 -0.00000000000E+00 -0.00000000000E+00 -0.11703000940E+03  0.11703000940E+03  0.00000000000E+00 0.  1.
          6    1    1    2  501    0  0.76618355760E+02  0.13478593223E+03  0.21302057634E+04  0.21428353214E+04  0.17300000000E+03 0.  1.
         -6    1    1    2    0  503 -0.76618355760E+02 -0.13478593223E+03  0.11143839363E+02  0.23257430022E+03  0.17300000000E+03 0.  1.
</event>
<event>
 4    1  0.6132688E+000  0.1000000E+03  0.7546771E-02  0.1280296E+00
         21   -1    0    0  501  502  0.00000000000E+00  0.00000000000E+00  0.22564481104E+03  0.22564481104E+03  0.00000000000E+00 0.  1.
         21   -1    0    0  502  503 -0.00000000000E+00 -0.00000000000E+00 -0.48692298517E+03  0.48692298517E+03  0.00000000000E+00 0. -1.
          6    1    1    2  501    0  0.16739834669E+03  0.15942929114E+03  0.44345084971E+02  0.29212222084E+03  0.17300000000E+03 0.  1.
         -6    1    1    2    0  503 -0.16739834669E+03 -0.15942929114E+03 -0.30562325909E+03  0.42044557537E+03  0.17300000000E+03 0. -1.
</event>
<event>
 4    1  0.6132688E+000  0.1000000E+03  0.7546771E-02  0.1280296E+00
         21   -1    0    0  501  502  0.00000000000E+00  0.00000000000E+00  0.25257383798E+03  0.25257383798E+03  0.00000000000E+00 0.  1.
         21   -1    0    0  502  503 -0.00000000000E+00 -0.00000000000E+00 -0.22102105570E+03  0.22102105570E+03  0.00000000000E+00 0. -1.
          6    1    1    2  501    0  0.15704524793E+03  0.81892703859E+01  0.49982470375E+02  0.23907639238E+03  0.17300000000E+03 0.  1.
         -6    1    1    2    0  503 -0.15704524793E+03 -0.81892703859E+01 -0.18429688095E+02  0.23451850130E+03  0.17300000000E+03 0. -1.
</event>
<event>
 4    1  0.6132688E+000  0.1000000E+03  0.7546771E-02  0.1280296E+00
         21   -1    0    0  501  502  0.00000000000E+00  0.00000000000E+00  0.14979503361E+03  0.14979503361E+03  0.00000000000E+00 0.  1.
         21   -1    0    0  502  503 -0.00000000000E+00 -0.00000000000E+00 -0.25113430305E+03  0.25113430305E+03  0.00000000000E+00 0. -1.
          6    1    1    2  501    0 -0.13638387910E+02  0.40712139437E+02  0.28356816757E+02  0.18048986946E+03  0.17300000000E+03 0.  1.
         -6    1    1    2    0  503  0.13638387910E+02 -0.40712139437E+02 -0.12969608619E+03  0.22043946719E+03  0.17300000000E+03 0. -1.
</event>
<event>
 4    1  0.6132688E+000  0.1000000E+03  0.7546771E-02  0.1280296E+00
         21   -1    0    0  501  502  0.00000000000E+00  0.00000000000E+00  0.54893591276E+03  0.54893591276E+03  0.00000000000E+00 0.  1.
         21   -1    0    0  502  503 -0.00000000000E+00 -0.00000000000E+00 -0.95697923182E+02  0.95697923182E+02  0.00000000000E+00 0.  1.
          6    1    1    2  501    0  0.88792050994E+02 -0.11255461197E+03  0.29029802527E+03  0.36708924319E+03  0.17300000000E+03 0.  1.
         -6    1    1    2    0  503 -0.88792050994E+02  0.11255461197E+03  0.16293996431E+03  0.27754459275E+03  0.17300000000E+03 0.  1.
</event>
<event>
 4    1  0.6132688E+000  0.1000000E+03  0.7546771E-02  0.1280296E+00
         21   -1    0    0  501  502  0.00000000000E+00  0.00000000000E+00  0.31810450012E+03  0.31810450012E+03  0.00000000000E+00 0.  1.
         21   -1    0    0  502  503 -0.00000000000E+00 -0.00000000000E+00 -0.34801386386E+03  0.34801386386E+03  0.00000000000E+00 0.  1.
          6    1    1    2  501    0 -0.21994468648E+03 -0.11971044545E+03  0.11960394418E+03  0.32701736854E+03  0.17300000000E+03 0.  1.
         -6    1    1    2    0  503  0.21994468648E+03  0.11971044545E+03 -0.14951330793E+03  0.33910099544E+03  0.17300000000E+03 0.  1.
</event>
<event>
 4    1  0.6132688E+000  0.1000000E+03  0.7546771E-02  0.1280296E+00
         21   -1    0    0  503  502  0.00000000000E+00  0.00000000000E+00  0.50225016782E+02  0.50225016782E+02  0.00000000000E+00 0.  1.
         21   -1    0    0  501  503 -0.00000000000E+00 -0.00000000000E+00 -0.66179923292E+03  0.66179923292E+03  0.00000000000E+00 0. -1.
          6    1    1    2  501    0 -0.96474973499E+01 -0.15851911361E+02 -0.41212598356E+03  0.44734906239E+03  0.17300000000E+03 0. -1.
         -6    1    1    2    0  502  0.96474973499E+01  0.15851911361E+02 -0.19944823258E+03  0.26467518731E+03  0.17300000000E+03 0.  1.
</event>
<event>
 4    1  0.6132688E+000  0.1000000E+03  0.7546771E-02  0.1280296E+00
         21   -1    0    0  503  502  0.00000000000E+00  0.00000000000E+00  0.22619975461E+03  0.22619975461E+03  0.00000000000E+00 0.  1.
         21   -1    0    0  501  503 -0.00000000000E+00 -0.00000000000E+00 -0.21371096390E+03  0.21371096390E+03  0.00000000000E+00 0.  1.
          6    1    1    2  501    0 -0.51049968998E+02  0.65853917601E+02 -0.10089467872E+03  0.21691374782E+03  0.17300000000E+03 0.  1.
         -6    1    1    2    0  502  0.51049968998E+02 -0.65853917601E+02  0.11338346943E+03  0.22299697069E+03  0.17300000000E+03 0.  1.
</event>
<event>
 4    1  0.6132688E+000  0.1000000E+03  0.7546771E-02  0.1280296E+00
         21   -1    0    0  503  502  0.00000000000E+00  0.00000000000E+00  0.62562089464E+03  0.62562089464E+03  0.00000000000E+00 0.  1.
         21   -1    0    0  501  503 -0.00000000000E+00 -0.00000000000E+00 -0.22330996322E+03  0.22330996322E+03  0.00000000000E+00 0.  1.
          6    1    1    2  501    0 -0.83489894418E+01  0.94789172851E+02 -0.15925588266E+03  0.25366538801E+03  0.17300000000E+03 0.  1.
         -6    1    1    2    0  502  0.83489894418E+01 -0.94789172851E+02  0.56156681408E+03  0.59526546985E+03  0.17300000000E+03 0.  1.
</event>
<event>
 4    1  0.6132688E+000  0.1000000E+03  0.7546771E-02  0.1280296E+00
         21   -1    0    0  503  502  0.00000000000E+00  0.00000000000E+00  0.16297434211E+04  0.16297434211E+04  0.00000000000E+00 0.  1.
         21   -1    0    0  501  503 -0.00000000000E+00 -0.00000000000E+00 -0.45766154351E+02  0.45766154351E+02  0.00000000000E+00 0. -1.
          6    1    1    2  501    0 -0.17255928636E+03  0.62944890722E+02  0.47144811572E+03  0.53472524944E+03  0.17300000000E+03 0. -1.
         -6    1    1    2    0  502  0.17255928636E+03 -0.62944890722E+02  0.11125291510E+04  0.11407843260E+04  0.17300000000E+03 0.  1.
</event>
<event>
 4    1  0.6132688E+000  0.1000000E+03  0.7546771E-02  0.1280296E+00
         21   -1    0    0  503  502  0.00000000000E+00  0.00000000000E+00  0.38607346200E+02  0.38607346200E+02  0.00000000000E+00 0.  1.
         21   -1    0    0  501  503 -0.00000000000E+00 -0.00000000000E+00 -0.12264123335E+04  0.12264123335E+04  0.00000000000E+00 0. -1.
          6    1    1    2  501    0  0.39154833738E+02 -0.81978975699E+01 -0.95950282093E+03  0.97579453262E+03  0.17300000000E+03 0. -1.
         -6    1    1    2    0  502 -0.39154833738E+02  0.81978975699E+01 -0.22830216636E+03  0.28922514706E+03  0.17300000000E+03 0.  1.
</event>
<event>
 4    1  0.6132688E+000  0.1000000E+03  0.7546771E-02  0.1280296E+00
         21   -1    0    0  503  502  0.00000000000E+00  0.00000000000E+00  0.23062703140E+04  0.23062703140E+04  0.00000000000E+00 0. -1.
         21   -1    0    0  501  503 -0.00000000000E+00 -0.00000000000E+00 -0.23534982602E+02  0.23534982602E+02  0.00000000000E+00 0. -1.
          6    1    1    2  501    0 -0.15589070805E+03  0.91366314306E+00  0.11753844602E+04  0.11982321883E+04  0.17300000000E+03 0. -1.
         -6    1    1    2    0  502  0.15589070805E+03 -0.91366314306E+00  0.11073508711E+04  0.11315731083E+04  0.17300000000E+03 0. -1.
</event>
<event>
 4    1  0.6132688E+000  0.1000000E+03  0.7546771E-02  0.1280296E+00
         21   -1    0    0  503  502  0.00000000000E+00  0.00000000000E+00  0.37594841320E+02  0.37594841320E+02  0.00000000000E+00 0. -1.
         21   -1    0    0  501  503 -0.00000000000E+00 -0.00000000000E+00 -0.17228749374E+04  0.17228749374E+04  0.00000000000E+00 0. -1.
          6    1    1    2  501    0  0.61349086964E+02  0.58883541093E+02 -0.14173522724E+04  0.14304011486E+04  0.17300000000E+03 0. -1.
         -6    1    1    2    0  502 -0.61349086964E+02 -0.58883541093E+02 -0.26792782373E+03  0.33006863015E+03  0.17300000000E+03 0. -1.
</event>
<event>
 4    1  0.6132688E+000  0.1000000E+03  0.7546771E-02  0.1280296E+00
         21   -1    0    0  503  502  0.00000000000E+00  0.00000000000E+00  0.70033455466E+02  0.70033455466E+02  0.00000000000E+00 0. -1.
         21   -1    0    0  501  503 -0.00000000000E+00 -0.00000000000E+00 -0.99436689600E+03  0.99436689600E+03  0.00000000000E+00 0. -1.
          6    1    1    2  501    0  0.10172816079E+03 -0.10637040584E+03 -0.73309068296E+03  0.76747262582E+03  0.17300000000E+03 0. -1.
         -6    1    1    2    0  502 -0.10172816079E+03  0.10637040584E+03 -0.19124275757E+03  0.29692772565E+03  0.17300000000E+03 0. -1.
</event>
<event>
 4    1  0.6132688E+000  0.1000000E+03  0.7546771E-02  0.1280296E+00
         21   -1    0    0  503  502  0.00000000000E+00  0.00000000000E+00  0.12838908847E+03  0.12838908847E+03  0.00000000000E+00 0. -1.
         21   -1    0    0  501  503 -0.00000000000E+00 -0.00000000000E+00 -0.54634056922E+03  0.54634056922E+03  0.00000000000E+00 0. -1.
          6    1    1    2  501    0 -0.10590705189E+03 -0.51964991201E+02 -0.41554683030E+03  0.46532228845E+03  0.17300000000E+03 0. -1.
         -6    1    1    2    0  502  0.10590705189E+03  0.51964991201E+02 -0.24046504471E+01  0.20940736925E+03  0.17300000000E+03 0. -1.
</event>
<event>
 4    1  0.6132688E+000  0.1000000E+03  0.7546771E-02  0.1280296E+00
         21   -1    0    0  503  502  0.00000000000E+00  0.00000000000E+00  0.22642424124E+03  0.22642424124E+03  0.00000000000E+00 0.  1.
         21   -1    0    0  501  503 -0.00000000000E+00 -0.00000000000E+00 -0.21289865308E+03  0.21289865308E+03  0.00000000000E+00 0.  1.
          6    1    1    2  501    0 -0.13419074857E+03  0.84803038966E+00  0.23157750870E+02  0.22016620445E+03  0.17300000000E+03 0.  1.
         -6    1    1    2    0  502  0.13419074857E+03 -0.84803038966E+00 -0.96321627160E+01  0.21915668987E+03  0.17300000000E+03 0.  1.
</event>
<event>
 4    1  0.6132688E+000  0.1000000E+03  0.7546771E-02  0.1280296E+00
         21   -1    0    0  503  502  0.00000000000E+00  0.00000000000E+00  0.48842145389E+03  0.48842145389E+03  0.00000000000E+00 0.  1.
         21   -1    0    0  501  503 -0.00000000000E+00 -0.00000000000E+00 -0.23285688212E+03  0.23285688212E+03  0.00000000000E+00 0.  1.
          6    1    1    2  501    0  0.17391630370E+02  0.22506638766E+03 -0.66025801712E+02  0.29196875544E+03  0.17300000000E+03 0.  1.
         -6    1    1    2    0  502 -0.17391630370E+02 -0.22506638766E+03  0.32159037347E+03  0.42930958057E+03  0.17300000000E+03 0.  1.
</event>
<event>
 4    1  0.6132688E+000  0.1000000E+03  0.7546771E-02  0.1280296E+00
         21   -1    0    0  501  502  0.00000000000E+00  0.00000000000E+00  0.80976002848E+03  0.80976002848E+03  0.00000000000E+00 0. -1.
         21   -1    0    0  502  503 -0.00000000000E+00 -0.00000000000E+00 -0.84641958232E+02  0.84641958232E+02  0.00000000000E+00 0.  1.
          6    1    1    2  501    0 -0.14445133378E+03 -0.10689202625E+03  0.49834082624E+03  0.55728329618E+03  0.17300000000E+03 0.  1.
         -6    1    1    2    0  503  0.14445133378E+03  0.10689202625E+03  0.22677724401E+03  0.33711869053E+03  0.17300000000E+03 0.  1.
</event>
<event>
 4    1  0.6132688E+000  0.1000000E+03  0.7546771E-02  0.1280296E+00
         21   -1    0    0  503  502  0.00000000000E+00  0.00000000000E+00  0.25766272933E+03  0.25766272933E+03  0.00000000000E+00 0.  1.
         21   -1    0    0  501  503 -0.00000000000E+00 -0.00000000000E+00 -0.19017168112E+03  0.19017168112E+03  0.00000000000E+00 0.  1.
          6    1    1    2  501    0  0.75788349348E+02  0.12208266490E+02 -0.82377256349E+02  0.20641687923E+03  0.17300000000E+03 0.  1.
         -6    1    1    2    0  502 -0.75788349348E+02 -0.12208266490E+02  0.14986830456E+03  0.24141753122E+03  0.17300000000E+03 0.  1.
</event>
<event>
 4    1  0.6132688E+000  0.1000000E+03  0.7546771E-02  0.1280296E+00
         21   -1    0    0  501  502  0.00000000000E+00  0.00000000000E+00  0.18561828663E+03  0.18561828663E+03  0.00000000000E+00 0.  1.
         21   -1    0    0  502  503 -0.00000000000E+00 -0.00000000000E+00 -0.14831742762E+04  0.14831742762E+04  0.00000000000E+00 0.  1.
          6    1    1    2  501    0 -0.48693176182E+02  0.78751537393E+02  0.12507589948E+03  0.23269252390E+03  0.17300000000E+03 0.  1.
         -6    1    1    2    0  503  0.48693176182E+02 -0.78751537393E+02 -0.14226318891E+04  0.14361000389E+04  0.17300000000E+03 0.  1.
</event>
<event>
 4    1  0.6132688E+000  0.1000000E+03  0.7546771E-02  0.1280296E+00
         21   -1    0    0  501  502  0.00000000000E+00  0.00000000000E+00  0.10661658693E+03  0.10661658693E+03  0.00000000000E+00 0.  1.
         21   -1    0    0  502  503 -0.00000000000E+00 -0.00000000000E+00 -0.82805539021E+03  0.82805539021E+03  0.00000000000E+00 0.  1.
          6    1    1    2  501    0 -0.16131627878E+03  0.16755488751E+03 -0.25808742365E+03  0.38811815260E+03  0.17300000000E+03 0.  1.
         -6    1    1    2    0  503  0.16131627878E+03 -0.16755488751E+03 -0.46335137962E+03  0.54655382454E+03  0.17300000000E+03 0.  1.
</event>
<event>
 4    1  0.6132688E+000  0.1000000E+03  0.7546771E-02  0.1280296E+00
         21   -1    0    0  503  502  0.00000000000E+00  0.00000000000E+00  0.37465846899E+03  0.37465846899E+03  0.00000000000E+00 0.  1.
         21   -1    0    0  501  503 -0.00000000000E+00 -0.00000000000E+00 -0.21200668902E+03  0.21200668902E+03  0.00000000000E+00 0.  1.
          6    1    1    2  501    0 -0.18759280365E+03  0.90447419972E+02 -0.15830610682E+00  0.27074124330E+03  0.17300000000E+03 0.  1.
         -6    1    1    2    0  502  0.18759280365E+03 -0.90447419972E+02  0.16281008607E+03  0.31592391472E+03  0.17300000000E+03 0.  1.
</event>
<event>
 4    1  0.6132688E+000  0.1000000E+03  0.7546771E-02  0.1280296E+00
         21   -1    0    0  501  502  0.00000000000E+00  0.00000000000E+00  0.38805659279E+03  0.38805659279E+03  0.00000000000E+00 0. -1.
         21   -1    0    0  502  503 -0.00000000000E+00 -0.00000000000E+00 -0.10111234677E+03  0.10111234677E+03  0.00000000000E+00 0. -1.
          6    1    1    2  501    0 -0.92487316430E+01  0.95333543035E+02  0.15778081620E+03  0.25297788327E+03  0.17300000000E+03 0. -1.
         -6    1    1    2    0  503  0.92487316430E+01 -0.95333543035E+02  0.12916342983E+03  0.23619105629E+03  0.17300000000E+03 0. -1.
</event>
<event>
 4    1  0.6132688E+000  0.1000000E+03  0.7546771E-02  0.1280296E+00
         21   -1    0    0  501  502  0.00000000000E+00  0.00000000000E+00  0.26270676110E+03  0.26270676110E+03  0.00000000000E+00 0. -1.
         21   -1    0    0  502  503 -0.00000000000E+00 -0.00000000000E+00 -0.27533656591E+03  0.27533656591E+03  0.00000000000E+00 0. -1.
          6    1    1    2  501    0 -0.71675516927E+01 -0.18498559294E+03  0.83891625785E+02  0.26690419306E+03  0.17300000000E+03 0. -1.
         -6    1    1    2    0  503  0.71675516927E+01  0.18498559294E+03 -0.96521430597E+02  0.27113913395E+03  0.17300000000E+03 0. -1.
</event>
<event>
 4    1  0.6132688E+000  0.1000000E+03  0.7546771E-02  0.1280296E+00
         21   -1    0    0  503  502  0.00000000000E+00  0.00000000000E+00  0.23793293199E+03  0.23793293199E+03  0.00000000000E+00 0. -1.
         21   -1    0    0  501  503 -0.00000000000E+00 -0.00000000000E+00 -0.20602430642E+03  0.20602430642E+03  0.00000000000E+00 0.  1.
          6    1    1    2  501    0  0.70135289221E+02 -0.15776617065E+02 -0.10234785834E+03  0.21347586409E+03  0.17300000000E+03 0.  1.
         -6    1    1    2    0  502 -0.70135289221E+02  0.15776617065E+02  0.13425648391E+03  0.23048137433E+03  0.17300000000E+03 0. -1.
</event>
<event>
 4    1  0.6132688E+000  0.1000000E+03  0.7546771E-02  0.1280296E+00
         21   -1    0    0  503  502  0.00000000000E+00  0.00000000000E+00  0.89499432711E+03  0.89499432711E+03  0.00000000000E+00 0. -1.
         21   -1    0    0  501  503 -0.00000000000E+00 -0.00000000000E+00 -0.17502102212E+03  0.17502102212E+03  0.00000000000E+00 0.  1.
          6    1    1    2  501    0  0.29672021299E+03  0.15519329027E+03  0.52324393620E+03  0.64485739424E+03  0.17300000000E+03 0.  1.
         -6    1    1    2    0  502 -0.29672021299E+03 -0.15519329027E+03  0.19672936879E+03  0.42515795498E+03  0.17300000000E+03 0. -1.
</event>
<event>
 4    1  0.6132688E+000  0.1000000E+03  0.7546771E-02  0.1280296E+00
         21   -1    0    0  501  502  0.00000000000E+00  0.00000000000E+00  0.62423938433E+02  0.62423938433E+02  0.00000000000E+00 0. -1.
         21   -1    0    0  502  503 -0.00000000000E+00 -0.00000000000E+00 -0.14258404356E+04  0.14258404356E+04  0.00000000000E+00 0. -1.
          6    1    1    2  501    0 -0.23179893793E+03 -0.33910537108E+02 -0.84329417447E+03  0.89216295420E+03  0.17300000000E+03 0. -1.
         -6    1    1    2    0  503  0.23179893793E+03  0.33910537108E+02 -0.52012232268E+03  0.59610141981E+03  0.17300000000E+03 0. -1.
</event>
<event>
 4    1  0.6132688E+000  0.1000000E+03  0.7546771E-02  0.1280296E+00
         21   -1    0    0  501  502  0.00000000000E+00  0.00000000000E+00  0.14955250652E+02  0.14955250652E+02  0.00000000000E+00 0.  1.
         21   -1    0    0  502  503 -0.00000000000E+00 -0.00000000000E+00 -0.31009294201E+04  0.31009294201E+04  0.00000000000E+00 0.  1.
          6    1    1    2  501    0  0.50959558255E+02  0.17229130724E+02 -0.70078247833E+03  0.72382235490E+03  0.17300000000E+03 0.  1.
         -6    1    1    2    0  503 -0.50959558255E+02 -0.17229130724E+02 -0.23851916911E+04  0.23920623158E+04  0.17300000000E+03 0.  1.
</event>
<event>
 4    1  0.6132688E+000  0.1000000E+03  0.7546771E-02  0.1280296E+00
         21   -1    0    0  501  502  0.00000000000E+00  0.00000000000E+00  0.82987900807E+03  0.82987900807E+03  0.00000000000E+00 0.  1.
         21   -1    0    0  502  503 -0.00000000000E+00 -0.00000000000E+00 -0.13096552755E+03  0.13096552755E+03  0.00000000000E+00 0.  1.
          6    1    1    2  501    0 -0.27214403576E+02 -0.21383034250E+03  0.61132815536E+03  0.67090621750E+03  0.17300000000E+03 0.  1.
         -6    1    1    2    0  503  0.27214403576E+02  0.21383034250E+03  0.87585325156E+02  0.28993831813E+03  0.17300000000E+03 0.  1.
</event>
<event>
 4    1  0.6132688E+000  0.1000000E+03  0.7546771E-02  0.1280296E+00
         21   -1    0    0  501  502  0.00000000000E+00  0.00000000000E+00  0.11111056867E+04  0.11111056867E+04  0.00000000000E+00 0.  1.
         21   -1    0    0  502  503 -0.00000000000E+00 -0.00000000000E+00 -0.34132769762E+02  0.34132769762E+02  0.00000000000E+00 0.  1.
          6    1    1    2  501    0  0.71713622559E+02 -0.33398355380E+02  0.66106232444E+03  0.68788857426E+03  0.17300000000E+03 0.  1.
         -6    1    1    2    0  503 -0.71713622559E+02  0.33398355380E+02  0.41591059253E+03  0.45734988224E+03  0.17300000000E+03 0.  1.
</event>
<event>
 4    1  0.6132688E+000  0.1000000E+03  0.7546771E-02  0.1280296E+00
         21   -1    0    0  501  502  0.00000000000E+00  0.00000000000E+00  0.99496730190E+03  0.99496730190E+03  0.00000000000E+00 0.  1.
         21   -1    0    0  502  503 -0.00000000000E+00 -0.00000000000E+00 -0.23487224174E+03  0.23487224174E+03  0.00000000000E+00 0.  1.
          6    1    1    2  501    0 -0.50402339580E+02  0.21725195450E+03  0.87926541971E+03  0.92345843755E+03  0.17300000000E+03 0.  1.
         -6    1    1    2    0  503  0.50402339580E+02 -0.21725195450E+03 -0.11917035956E+03  0.30638110609E+03  0.17300000000E+03 0.  1.
</event>
<event>
 4    1  0.6132688E+000  0.1000000E+03  0.7546771E-02  0.1280296E+00
         21   -1    0    0  501  502  0.00000000000E+00  0.00000000000E+00  0.12033212656E+04  0.12033212656E+04  0.00000000000E+00 0.  1.
         21   -1    0    0  502  503 -0.00000000000E+00 -0.00000000000E+00 -0.77730910555E+02  0.77730910555E+02  0.00000000000E+00 0.  1.
          6    1    1    2  501    0 -0.47820200861E+02  0.37612419655E+02  0.10753967469E+04  0.10909210004E+04  0.17300000000E+03 0.  1.
         -6    1    1    2    0  503  0.47820200861E+02 -0.37612419655E+02  0.50193608151E+02  0.19013117583E+03  0.17300000000E+03 0.  1.
</event>
<event>
 4    1  0.6132688E+000  0.1000000E+03  0.7546771E-02  0.1280296E+00
         21   -1    0    0  501  502  0.00000000000E+00  0.00000000000E+00  0.92849317970E+02  0.92849317970E+02  0.00000000000E+00 0.  1.
         21   -1    0    0  502  503 -0.00000000000E+00 -0.00000000000E+00 -0.53952859678E+03  0.53952859678E+03  0.00000000000E+00 0.  1.
          6    1    1    2  501    0  0.64793258785E+02  0.54954275492E+02 -0.62591182477E+02  0.20264450376E+03  0.17300000000E+03 0. -1.
         -6    1    1    2    0  503 -0.64793258785E+02 -0.54954275492E+02 -0.38408809633E+03  0.42973341099E+03  0.17300000000E+03 0. -1.
</event>
<event>
 4    1  0.6132688E+000  0.1000000E+03  0.7546771E-02  0.1280296E+00
         21   -1    0    0  501  502  0.00000000000E+00  0.00000000000E+00  0.16714628103E+04  0.16714628103E+04  0.00000000000E+00 0.  1.
         21   -1    0    0  502  503 -0.00000000000E+00 -0.00000000000E+00 -0.18966240703E+03  0.18966240703E+03  0.00000000000E+00 0.  1.
          6    1    1    2  501    0 -0.47433221330E+03  0.23299919155E+03  0.59488679605E+03  0.81430889222E+03  0.17300000000E+03 0. -1.
         -6    1    1    2    0  503  0.47433221330E+03 -0.23299919155E+03  0.88691360718E+03  0.10468163251E+04  0.17300000000E+03 0. -1.
</event>
<event>
 4    1  0.6132688E+000  0.1000000E+03  0.7546771E-02  0.1280296E+00
         21   -1    0    0  501  502  0.00000000000E+00  0.00000000000E+00  0.11162436246E+03  0.11162436246E+03  0.00000000000E+00 0.  1.
         21   -1    0    0  502  503 -0.00000000000E+00 -0.00000000000E+00 -0.14823481768E+04  0.14823481768E+04  0.00000000000E+00 0.  1.
          6    1    1    2  501    0 -0.11517054679E+03 -0.19056295595E+03 -0.11092664890E+03  0.30300530765E+03  0.17300000000E+03 0.  1.
         -6    1    1    2    0  503  0.11517054679E+03  0.19056295595E+03 -0.12597971655E+04  0.12909672316E+04  0.17300000000E+03 0.  1.
</event>
<event>
 4    1  0.6132688E+000  0.1000000E+03  0.7546771E-02  0.1280296E+00
         21   -1    0    0  501  502  0.00000000000E+00  0.00000000000E+00  0.31799578780E+03  0.31799578780E+03  0.00000000000E+00 0.  1.
         21   -1    0    0  502  503 -0.00000000000E+00 -0.00000000000E+00 -0.26234188945E+03  0.26234188945E+03  0.00000000000E+00 0.  1.
          6    1    1    2  501    0  0.19537937387E+03 -0.69534684669E+02  0.13070444434E+03  0.30003470445E+03  0.17300000000E+03 0.  1.
         -6    1    1    2    0  503 -0.19537937387E+03  0.69534684669E+02 -0.75050545989E+02  0.28030297280E+03  0.17300000000E+03 0.  1.
</event>
<event>
 4    1  0.6132688E+000  0.1000000E+03  0.7546771E-02  0.1280296E+00
         21   -1    0    0  501  502  0.00000000000E+00  0.00000000000E+00  0.13832365503E+03  0.13832365503E+03  0.00000000000E+00 0.  1.
         21   -1    0    0  502  503 -0.00000000000E+00 -0.00000000000E+00 -0.35234139453E+03  0.35234139453E+03  0.00000000000E+00 0.  1.
          6    1    1    2  501    0 -0.69142841575E+02  0.92337721429E+02 -0.24585134914E+02  0.20938103113E+03  0.17300000000E+03 0.  1.
         -6    1    1    2    0  503  0.69142841575E+02 -0.92337721429E+02 -0.18943260459E+03  0.28128401843E+03  0.17300000000E+03 0.  1.
</event>
<event>
 4    1  0.6132688E+000  0.1000000E+03  0.7546771E-02  0.1280296E+00
         21   -1    0    0  501  502  0.00000000000E+00  0.00000000000E+00  0.18180537068E+03  0.18180537068E+03  0.00000000000E+00 0. -1.
         21   -1    0    0  502  503 -0.00000000000E+00 -0.00000000000E+00 -0.30129811730E+03  0.30129811730E+03  0.00000000000E+00 0. -1.
          6    1    1    2  501    0 -0.14459491885E+03 -0.57478003530E+02 -0.85798790018E+02  0.24799565281E+03  0.17300000000E+03 0.  1.
         -6    1    1    2    0  503  0.14459491885E+03  0.57478003530E+02 -0.33693956598E+02  0.23510783517E+03  0.17300000000E+03 0.  1.
</event>
<event>
 4    1  0.6132688E+000  0.1000000E+03  0.7546771E-02  0.1280296E+00
         21   -1    0    0  501  502  0.00000000000E+00  0.00000000000E+00  0.41372850023E+03  0.41372850023E+03  0.00000000000E+00 0. -1.
         21   -1    0    0  502  503 -0.00000000000E+00 -0.00000000000E+00 -0.89443040851E+02  0.89443040851E+02  0.00000000000E+00 0. -1.
          6    1    1    2  501    0  0.24949674441E+02  0.10584294256E+02  0.26629176206E+03  0.31870804207E+03  0.17300000000E+03 0.  1.
         -6    1    1    2    0  503 -0.24949674441E+02 -0.10584294256E+02  0.57993697325E+02  0.18446349902E+03  0.17300000000E+03 0.  1.
</event>
<event>
 4    1  0.6132688E+000  0.1000000E+03  0.7546771E-02  0.1280296E+00
         21   -1    0    0  503  502  0.00000000000E+00  0.00000000000E+00  0.33702720835E+03  0.33702720835E+03  0.00000000000E+00 0. -1.
         21   -1    0    0  501  503 -0.00000000000E+00 -0.00000000000E+00 -0.10637878594E+03  0.10637878594E+03  0.00000000000E+00 0.  1.
          6    1    1    2  501    0 -0.64084292056E+01  0.65764306815E+02  0.69114821832E+02  0.19766605832E+03  0.17300000000E+03 0.  1.
         -6    1    1    2    0  502  0.64084292056E+01 -0.65764306815E+02  0.16153360057E+03  0.24573993597E+03  0.17300000000E+03 0. -1.
</event>
<event>
 4    1  0.6132688E+000  0.1000000E+03  0.7546771E-02  0.1280296E+00
         21   -1    0    0  503  502  0.00000000000E+00  0.00000000000E+00  0.34165555662E+02  0.34165555662E+02  0.00000000000E+00 0. -1.
         21   -1    0    0  501  503 -0.00000000000E+00 -0.00000000000E+00 -0.16494391472E+04  0.16494391472E+04  0.00000000000E+00 0.  1.
          6    1    1    2  501    0  0.58507434834E+01 -0.95152691147E+02 -0.12745449397E+04  0.12897604696E+04  0.17300000000E+03 0.  1.
         -6    1    1    2    0  502 -0.58507434834E+01  0.95152691147E+02 -0.34072865188E+03  0.39384423322E+03  0.17300000000E+03 0. -1.
</event>
<event>
 4    1  0.6132688E+000  0.1000000E+03  0.7546771E-02  0.1280296E+00
         21   -1    0    0  503  502  0.00000000000E+00  0.00000000000E+00  0.13391746467E+03  0.13391746467E+03  0.00000000000E+00 0. -1.
         21   -1    0    0  501  503 -0.00000000000E+00 -0.00000000000E+00 -0.31057482565E+03  0.31057482565E+03  0.00000000000E+00 0. -1.
          6    1    1    2  501    0  0.96403224917E+02 -0.46370204576E+02 -0.72215804197E+02  0.21584230360E+03  0.17300000000E+03 0.  1.
         -6    1    1    2    0  502 -0.96403224917E+02  0.46370204576E+02 -0.10444155678E+03  0.22864998672E+03  0.17300000000E+03 0.  1.
</event>
<event>
 4    1  0.6132688E+000  0.1000000E+03  0.7546771E-02  0.1280296E+00
         21   -1    0    0  503  502  0.00000000000E+00  0.00000000000E+00  0.11048516063E+03  0.11048516063E+03  0.00000000000E+00 0. -1.
         21   -1    0    0  501  503 -0.00000000000E+00 -0.00000000000E+00 -0.39701830061E+03  0.39701830061E+03  0.00000000000E+00 0. -1.
          6    1    1    2  501    0  0.29329635740E+02 -0.98345996818E+02 -0.21394918621E+03  0.29365867415E+03  0.17300000000E+03 0.  1.
         -6    1    1    2    0  502 -0.29329635740E+02  0.98345996818E+02 -0.72583953762E+02  0.21384478709E+03  0.17300000000E+03 0.  1.
</event>
<event>
 4    1  0.6132688E+000  0.1000000E+03  0.7546771E-02  0.1280296E+00
         21   -1    0    0  503  502  0.00000000000E+00  0.00000000000E+00  0.19961089868E+03  0.19961089868E+03  0.00000000000E+00 0. -1.
         21   -1    0    0  501  503 -0.00000000000E+00 -0.00000000000E+00 -0.41545312440E+03  0.41545312440E+03  0.00000000000E+00 0. -1.
          6    1    1    2  501    0  0.86592133015E+02  0.63715173141E+02 -0.32532050842E+03  0.38382320668E+03  0.17300000000E+03 0. -1.
         -6    1    1    2    0  502 -0.86592133015E+02 -0.63715173141E+02  0.10947828269E+03  0.23124081640E+03  0.17300000000E+03 0. -1.
</event>
<event>
 4    1  0.6132688E+000  0.1000000E+03  0.7546771E-02  0.1280296E+00
         21   -1    0    0  503  502  0.00000000000E+00  0.00000000000E+00  0.37301315984E+03  0.37301315984E+03  0.00000000000E+00 0. -1.
         21   -1    0    0  501  503 -0.00000000000E+00 -0.00000000000E+00 -0.12810869985E+03  0.12810869985E+03  0.00000000000E+00 0. -1.
          6    1    1    2  501    0  0.96363993925E+02 -0.18195409755E+01  0.16356188571E+02  0.19871048024E+03  0.17300000000E+03 0. -1.
         -6    1    1    2    0  502 -0.96363993925E+02  0.18195409755E+01  0.22854827142E+03  0.30241137945E+03  0.17300000000E+03 0. -1.
</event>
<event>
 4    1  0.6132688E+000  0.1000000E+03  0.7546771E-02  0.1280296E+00
         21   -1    0    0  503  502  0.00000000000E+00  0.00000000000E+00  0.25496559133E+02  0.25496559133E+02  0.00000000000E+00 0. -1.
         21   -1    0    0  501  503 -0.00000000000E+00 -0.00000000000E+00 -0.17098162844E+04  0.17098162844E+04  0.00000000000E+00 0.  1.
          6    1    1    2  501    0 -0.94000609140E+02  0.51771458522E+02 -0.10348031466E+04  0.10546387773E+04  0.17300000000E+03 0.  1.
         -6    1    1    2    0  502  0.94000609140E+02 -0.51771458522E+02 -0.64951657866E+03  0.68067406620E+03  0.17300000000E+03 0.  1.
</event>
<event>
 4    1  0.6132688E+000  0.1000000E+03  0.7546771E-02  0.1280296E+00
         21   -1    0    0  503  502  0.00000000000E+00  0.00000000000E+00  0.22153770456E+03  0.22153770456E+03  0.00000000000E+00 0. -1.
         21   -1    0    0  501  503 -0.00000000000E+00 -0.00000000000E+00 -0.37354813629E+03  0.37354813629E+03  0.00000000000E+00 0.  1.
          6    1    1    2  501    0 -0.81894659276E+02  0.16411902776E+03 -0.21926504378E+03  0.33413762122E+03  0.17300000000E+03 0.  1.
         -6    1    1    2    0  502  0.81894659276E+02 -0.16411902776E+03  0.67254612041E+02  0.26094821963E+03  0.17300000000E+03 0.  1.
</event>
<event>
 4    1  0.6132688E+000  0.1000000E+03  0.7546771E-02  0.1280296E+00
         21   -1    0    0  503  502  0.00000000000E+00  0.00000000000E+00  0.43823270924E+02  0.43823270924E+02  0.00000000000E+00 0. -1.
         21   -1    0    0  501  503 -0.00000000000E+00 -0.00000000000E+00 -0.12083554125E+04  0.12083554125E+04  0.00000000000E+00 0.  1.
          6    1    1    2  501    0 -0.26519175824E+02 -0.26974077853E+02 -0.98207760698E+03  0.99791597527E+03  0.17300000000E+03 0.  1.
         -6    1    1    2    0  502  0.26519175824E+02  0.26974077853E+02 -0.18245453458E+03  0.25426270814E+03  0.17300000000E+03 0.  1.
</event>
<event>
 4    1  0.6132688E+000  0.1000000E+03  0.7546771E-02  0.1280296E+00
         21   -1    0    0  501  502  0.00000000000E+00  0.00000000000E+00  0.16459700533E+03  0.16459700533E+03  0.00000000000E+00 0.  1.
         21   -1    0    0  502  503 -0.00000000000E+00 -0.00000000000E+00 -0.32099676800E+03  0.32099676800E+03  0.00000000000E+00 0.  1.
          6    1    1    2  501    0 -0.46458267396E+02 -0.47368144042E+02  0.65486157050E+02  0.19651857023E+03  0.17300000000E+03 0.  1.
         -6    1    1    2    0  503  0.46458267396E+02  0.47368144042E+02 -0.22188591972E+03  0.28907520310E+03  0.17300000000E+03 0.  1.
</event>
<event>
 4    1  0.6132688E+000  0.1000000E+03  0.7546771E-02  0.1280296E+00
         21   -1    0    0  503  502  0.00000000000E+00  0.00000000000E+00  0.22428900111E+04  0.22428900111E+04  0.00000000000E+00 0. -1.
         21   -1    0    0  501  503 -0.00000000000E+00 -0.00000000000E+00 -0.31802938908E+02  0.31802938908E+02  0.00000000000E+00 0. -1.
          6    1    1    2  501    0 -0.91107244049E+02  0.14042321801E+03  0.61291417788E+03  0.65849221675E+03  0.17300000000E+03 0. -1.
         -6    1    1    2    0  502  0.91107244049E+02 -0.14042321801E+03  0.15981728943E+04  0.16162007332E+04  0.17300000000E+03 0. -1.
</event>
<event>
 4    1  0.6132688E+000  0.1000000E+03  0.7546771E-02  0.1280296E+00
         21   -1    0    0  503  502  0.00000000000E+00  0.00000000000E+00  0.84092165111E+02  0.84092165111E+02  0.00000000000E+00 0. -1.
         21   -1    0    0  501  503 -0.00000000000E+00 -0.00000000000E+00 -0.61969140319E+03  0.61969140319E+03  0.00000000000E+00 0. -1.
          6    1    1    2  501    0 -0.28456200837E+02 -0.12272377708E+03 -0.39026220162E+03  0.44508927963E+03  0.17300000000E+03 0. -1.
         -6    1    1    2    0  502  0.28456200837E+02  0.12272377708E+03 -0.14533703646E+03  0.25869428868E+03  0.17300000000E+03 0. -1.
</event>
<event>
 4    1  0.6132688E+000  0.1000000E+03  0.7546771E-02  0.1280296E+00
         21   -1    0    0  503  502  0.00000000000E+00  0.00000000000E+00  0.15399517273E+03  0.15399517273E+03  0.00000000000E+00 0. -1.
         21   -1    0    0  501  503 -0.00000000000E+00 -0.00000000000E+00 -0.38153776894E+03  0.38153776894E+03  0.00000000000E+00 0. -1.
          6    1    1    2  501    0  0.14905676610E+02  0.16912581003E+03 -0.11433002581E+03  0.26800386866E+03  0.17300000000E+03 0. -1.
         -6    1    1    2    0  502 -0.14905676610E+02 -0.16912581003E+03 -0.11321257041E+03  0.26752907302E+03  0.17300000000E+03 0. -1.
</event>
<event>
 4    1  0.6132688E+000  0.1000000E+03  0.7546771E-02  0.1280296E+00
         21   -1    0    0  503  502  0.00000000000E+00  0.00000000000E+00  0.44824379324E+03  0.44824379324E+03  0.00000000000E+00 0. -1.
         21   -1    0    0  501  503 -0.00000000000E+00 -0.00000000000E+00 -0.11869650378E+03  0.11869650378E+03  0.00000000000E+00 0. -1.
          6    1    1    2  501    0 -0.86251170934E+02 -0.12050596522E+03  0.12020830391E+03  0.25756550326E+03  0.17300000000E+03 0. -1.
         -6    1    1    2    0  502  0.86251170934E+02  0.12050596522E+03  0.20933898555E+03  0.30937479376E+03  0.17300000000E+03 0. -1.
</event>
<event>
 4    1  0.6132688E+000  0.1000000E+03  0.7546771E-02  0.1280296E+00
         21   -1    0    0  501  502  0.00000000000E+00  0.00000000000E+00  0.31270941911E+03  0.31270941911E+03  0.00000000000E+00 0.  1.
         21   -1    0    0  502  503 -0.00000000000E+00 -0.00000000000E+00 -0.18055599097E+03  0.18055599097E+03  0.00000000000E+00 0.  1.
          6    1    1    2  501    0  0.12834618141E+03  0.66893431945E+02  0.14364588463E+03  0.26741468488E+03  0.17300000000E+03 0.  1.
         -6    1    1    2    0  503 -0.12834618141E+03 -0.66893431945E+02 -0.11492456489E+02  0.22585072520E+03  0.17300000000E+03 0.  1.
</event>
<event>
 4    1  0.6132688E+000  0.1000000E+03  0.7546771E-02  0.1280296E+00
         21   -1    0    0  501  502  0.00000000000E+00  0.00000000000E+00  0.22600267553E+03  0.22600267553E+03  0.00000000000E+00 0.  1.
         21   -1    0    0  502  503 -0.00000000000E+00 -0.00000000000E+00 -0.16810873253E+03  0.16810873253E+03  0.00000000000E+00 0.  1.
          6    1    1    2  501    0  0.54775148779E+02  0.44953418765E+02 -0.26820464470E+02  0.18886361242E+03  0.17300000000E+03 0.  1.
         -6    1    1    2    0  503 -0.54775148779E+02 -0.44953418765E+02  0.84714407467E+02  0.20524779564E+03  0.17300000000E+03 0.  1.
</event>
<event>
 4    1  0.6132688E+000  0.1000000E+03  0.7546771E-02  0.1280296E+00
         21   -1    0    0  501  502  0.00000000000E+00  0.00000000000E+00  0.45476209804E+03  0.45476209804E+03  0.00000000000E+00 0.  1.
         21   -1    0    0  502  503 -0.00000000000E+00 -0.00000000000E+00 -0.10519992611E+03  0.10519992611E+03  0.00000000000E+00 0.  1.
          6    1    1    2  501    0 -0.64264613110E+02  0.99088896262E+01  0.32451917579E+03  0.37345658656E+03  0.17300000000E+03 0.  1.
         -6    1    1    2    0  503  0.64264613110E+02 -0.99088896262E+01  0.25042996141E+02  0.18650543758E+03  0.17300000000E+03 0.  1.
</event>
<event>
 4    1  0.6132688E+000  0.1000000E+03  0.7546771E-02  0.1280296E+00
         21   -1    0    0  503  502  0.00000000000E+00  0.00000000000E+00  0.88753558430E+03  0.88753558430E+03  0.00000000000E+00 0. -1.
         21   -1    0    0  501  503 -0.00000000000E+00 -0.00000000000E+00 -0.58368395781E+02  0.58368395781E+02  0.00000000000E+00 0.  1.
          6    1    1    2  501    0  0.12640317159E+03 -0.75591635461E+02  0.44270673265E+03  0.49760436923E+03  0.17300000000E+03 0.  1.
         -6    1    1    2    0  502 -0.12640317159E+03  0.75591635461E+02  0.38646045586E+03  0.44829961085E+03  0.17300000000E+03 0. -1.
</event>
<event>
 4    1  0.6132688E+000  0.1000000E+03  0.7546771E-02  0.1280296E+00
         21   -1    0    0  503  502  0.00000000000E+00  0.00000000000E+00  0.39316015874E+03  0.39316015874E+03  0.00000000000E+00 0.  1.
         21   -1    0    0  501  503 -0.00000000000E+00 -0.00000000000E+00 -0.12953191181E+03  0.12953191181E+03  0.00000000000E+00 0. -1.
          6    1    1    2  501    0 -0.22188681609E+02 -0.14539466552E+02 -0.33164310231E+02  0.17813647900E+03  0.17300000000E+03 0. -1.
         -6    1    1    2    0  502  0.22188681609E+02  0.14539466552E+02  0.29679255716E+03  0.34455559155E+03  0.17300000000E+03 0.  1.
</event>
<event>
 4    1  0.6132688E+000  0.1000000E+03  0.7546771E-02  0.1280296E+00
         21   -1    0    0  503  502  0.00000000000E+00  0.00000000000E+00  0.15794217950E+03  0.15794217950E+03  0.00000000000E+00 0.  1.
         21   -1    0    0  501  503 -0.00000000000E+00 -0.00000000000E+00 -0.28887147610E+03  0.28887147610E+03  0.00000000000E+00 0. -1.
          6    1    1    2  501    0  0.48619025875E+02  0.18608214266E+01 -0.18621523270E+03  0.25879023402E+03  0.17300000000E+03 0. -1.
         -6    1    1    2    0  502 -0.48619025875E+02 -0.18608214266E+01  0.55285936098E+02  0.18802342158E+03  0.17300000000E+03 0.  1.
</event>
<event>
 4    1  0.6132688E+000  0.1000000E+03  0.7546771E-02  0.1280296E+00
         21   -1    0    0  501  502  0.00000000000E+00  0.00000000000E+00  0.90714155270E+03  0.90714155270E+03  0.00000000000E+00 0. -1.
         21   -1    0    0  502  503 -0.00000000000E+00 -0.00000000000E+00 -0.22174997338E+03  0.22174997338E+03  0.00000000000E+00 0. -1.
          6    1    1    2  501    0  0.23787548127E+03  0.24363281668E+03  0.63861150453E+03  0.74410708078E+03  0.17300000000E+03 0. -1.
         -6    1    1    2    0  503 -0.23787548127E+03 -0.24363281668E+03  0.46780074795E+02  0.38478444531E+03  0.17300000000E+03 0. -1.
</event>
<event>
 4    1  0.6132688E+000  0.1000000E+03  0.7546771E-02  0.1280296E+00
         21   -1    0    0  501  502  0.00000000000E+00  0.00000000000E+00  0.14385774901E+04  0.14385774901E+04  0.00000000000E+00 0. -1.
         21   -1    0    0  502  503 -0.00000000000E+00 -0.00000000000E+00 -0.27068492136E+02  0.27068492136E+02  0.00000000000E+00 0. -1.
          6    1    1    2  501    0  0.21792323730E+02  0.69915369052E+02  0.93005558028E+03  0.94883899931E+03  0.17300000000E+03 0. -1.
         -6    1    1    2    0  503 -0.21792323730E+02 -0.69915369052E+02  0.48145341772E+03  0.51680698296E+03  0.17300000000E+03 0. -1.
</event>
<event>
 4    1  0.6132688E+000  0.1000000E+03  0.7546771E-02  0.1280296E+00
         21   -1    0    0  501  502  0.00000000000E+00  0.00000000000E+00  0.33160808590E+02  0.33160808590E+02  0.00000000000E+00 0. -1.
         21   -1    0    0  502  503 -0.00000000000E+00 -0.00000000000E+00 -0.14414973792E+04  0.14414973792E+04  0.00000000000E+00 0. -1.
          6    1    1    2  501    0 -0.12843897757E+02 -0.10192348149E+03 -0.99268004115E+03  0.10128652555E+04  0.17300000000E+03 0. -1.
         -6    1    1    2    0  503  0.12843897757E+02  0.10192348149E+03 -0.41565652942E+03  0.46179293221E+03  0.17300000000E+03 0. -1.
</event>
<event>
 4    1  0.6132688E+000  0.1000000E+03  0.7546771E-02  0.1280296E+00
         21   -1    0    0  501  502  0.00000000000E+00  0.00000000000E+00  0.12156487089E+03  0.12156487089E+03  0.00000000000E+00 0.  1.
         21   -1    0    0  502  503 -0.00000000000E+00 -0.00000000000E+00 -0.65045132082E+03  0.65045132082E+03  0.00000000000E+00 0.  1.
          6    1    1    2  501    0  0.75909438511E+00  0.89252188069E+01  0.39618048337E+02  0.17770432046E+03  0.17300000000E+03 0.  1.
         -6    1    1    2    0  503 -0.75909438511E+00 -0.89252188069E+01 -0.56850449827E+03  0.59431187125E+03  0.17300000000E+03 0.  1.
</event>
<event>
 4    1  0.6132688E+000  0.1000000E+03  0.7546771E-02  0.1280296E+00
         21   -1    0    0  501  502  0.00000000000E+00  0.00000000000E+00  0.14988765936E+03  0.14988765936E+03  0.00000000000E+00 0. -1.
         21   -1    0    0  502  503 -0.00000000000E+00 -0.00000000000E+00 -0.11138008355E+04  0.11138008355E+04  0.00000000000E+00 0.  1.
          6    1    1    2  501    0 -0.12010302127E+03  0.22343504241E+03 -0.65091937236E+02  0.31386926289E+03  0.17300000000E+03 0. -1.
         -6    1    1    2    0  503  0.12010302127E+03 -0.22343504241E+03 -0.89882123893E+03  0.94981923198E+03  0.17300000000E+03 0.  1.
</event>
<event>
 4    1  0.6132688E+000  0.1000000E+03  0.7546771E-02  0.1280296E+00
         21   -1    0    0  501  502  0.00000000000E+00  0.00000000000E+00  0.11291307981E+03  0.11291307981E+03  0.00000000000E+00 0.  1.
         21   -1    0    0  502  503 -0.00000000000E+00 -0.00000000000E+00 -0.34372668328E+03  0.34372668328E+03  0.00000000000E+00 0. -1.
          6    1    1    2  501    0  0.28941346358E+02 -0.21014694835E+02 -0.21646185425E+03  0.27939927214E+03  0.17300000000E+03 0.  1.
         -6    1    1    2    0  503 -0.28941346358E+02  0.21014694835E+02 -0.14351749217E+02  0.17724049095E+03  0.17300000000E+03 0. -1.
</event>
<event>
 4    1  0.6132688E+000  0.1000000E+03  0.7546771E-02  0.1280296E+00
         21   -1    0    0  501  502  0.00000000000E+00  0.00000000000E+00  0.13377871621E+03  0.13377871621E+03  0.00000000000E+00 0.  1.
         21   -1    0    0  502  503 -0.00000000000E+00 -0.00000000000E+00 -0.54702539453E+03  0.54702539453E+03  0.00000000000E+00 0. -1.
          6    1    1    2  501    0 -0.14744050488E+02  0.36338681788E+02  0.50376627940E+02  0.18440361022E+03  0.17300000000E+03 0.  1.
         -6    1    1    2    0  503  0.14744050488E+02 -0.36338681788E+02 -0.46362330625E+03  0.49640050052E+03  0.17300000000E+03 0. -1.
</event>
<event>
 4    1  0.6132688E+000  0.1000000E+03  0.7546771E-02  0.1280296E+00
         21   -1    0    0  503  502  0.00000000000E+00  0.00000000000E+00  0.16748547855E+03  0.16748547855E+03  0.00000000000E+00 0. -1.
         21   -1    0    0  501  503 -0.00000000000E+00 -0.00000000000E+00 -0.32126366731E+03  0.32126366731E+03  0.00000000000E+00 0. -1.
          6    1    1    2  501    0 -0.89937740066E+02  0.21804290829E+02 -0.20725912254E+03  0.28539370712E+03  0.17300000000E+03 0. -1.
         -6    1    1    2    0  502  0.89937740066E+02 -0.21804290829E+02  0.53480933782E+02  0.20335543874E+03  0.17300000000E+03 0. -1.
</event>
<event>
 4    1  0.6132688E+000  0.1000000E+03  0.7546771E-02  0.1280296E+00
         21   -1    0    0  501  502  0.00000000000E+00  0.00000000000E+00  0.11464744277E+03  0.11464744277E+03  0.00000000000E+00 0. -1.
         21   -1    0    0  502  503 -0.00000000000E+00 -0.00000000000E+00 -0.50965473244E+03  0.50965473244E+03  0.00000000000E+00 0.  1.
          6    1    1    2  501    0  0.10843477766E+02  0.16623257094E+03 -0.23288676280E+03  0.33453862697E+03  0.17300000000E+03 0. -1.
         -6    1    1    2    0  503 -0.10843477766E+02 -0.16623257094E+03 -0.16212052688E+03  0.28976354823E+03  0.17300000000E+03 0.  1.
</event>
<event>
 4    1  0.6132688E+000  0.1000000E+03  0.7546771E-02  0.1280296E+00
         21   -1    0    0  501  502  0.00000000000E+00  0.00000000000E+00  0.11113070273E+04  0.11113070273E+04  0.00000000000E+00 0.  1.
         21   -1    0    0  502  503 -0.00000000000E+00 -0.00000000000E+00 -0.28850387851E+02  0.28850387851E+02  0.00000000000E+00 0.  1.
          6    1    1    2  501    0 -0.38585706922E+02 -0.13292761084E+02  0.61003643816E+03  0.63540460350E+03  0.17300000000E+03 0.  1.
         -6    1    1    2    0  503  0.38585706922E+02  0.13292761084E+02  0.47242020131E+03  0.50475281166E+03  0.17300000000E+03 0.  1.
</event>
<event>
 4    1  0.6132688E+000  0.1000000E+03  0.7546771E-02  0.1280296E+00
         21   -1    0    0  501  502  0.00000000000E+00  0.00000000000E+00  0.37022441153E+03  0.37022441153E+03  0.00000000000E+00 0.  1.
         21   -1    0    0  502  503 -0.00000000000E+00 -0.00000000000E+00 -0.97779945911E+02  0.97779945911E+02  0.00000000000E+00 0.  1.
          6    1    1    2  501    0 -0.63393604487E+02  0.35522407709E+02  0.17493769889E+03  0.25654003398E+03  0.17300000000E+03 0.  1.
         -6    1    1    2    0  503  0.63393604487E+02 -0.35522407709E+02  0.97506766722E+02  0.21146432346E+03  0.17300000000E+03 0.  1.
</event>
<event>
 4    1  0.6132688E+000  0.1000000E+03  0.7546771E-02  0.1280296E+00
         21   -1    0    0  501  502  0.00000000000E+00  0.00000000000E+00  0.18456297863E+03  0.18456297863E+03  0.00000000000E+00 0. -1.
         21   -1    0    0  502  503 -0.00000000000E+00 -0.00000000000E+00 -0.34139710234E+03  0.34139710234E+03  0.00000000000E+00 0.  1.
          6    1    1    2  501    0  0.51086338774E+02  0.11689714372E+03  0.57397527268E+02  0.22248198209E+03  0.17300000000E+03 0. -1.
         -6    1    1    2    0  503 -0.51086338774E+02 -0.11689714372E+03 -0.21423165097E+03  0.30347809888E+03  0.17300000000E+03 0.  1.
</event>
<event>
 4    1  0.6132688E+000  0.1000000E+03  0.7546771E-02  0.1280296E+00
         21   -1    0    0  503  502  0.00000000000E+00  0.00000000000E+00  0.12547541621E+03  0.12547541621E+03  0.00000000000E+00 0. -1.
         21   -1    0    0  501  503 -0.00000000000E+00 -0.00000000000E+00 -0.43248107468E+03  0.43248107468E+03  0.00000000000E+00 0. -1.
          6    1    1    2  501    0 -0.21788614694E+01 -0.78409260796E+02 -0.31499518634E+03  0.36783654934E+03  0.17300000000E+03 0. -1.
         -6    1    1    2    0  502  0.21788614694E+01  0.78409260796E+02  0.79895278691E+01  0.19011994154E+03  0.17300000000E+03 0. -1.
</event>
<event>
 4    1  0.6132688E+000  0.1000000E+03  0.7546771E-02  0.1280296E+00
         21   -1    0    0  503  502  0.00000000000E+00  0.00000000000E+00  0.73874430677E+03  0.73874430677E+03  0.00000000000E+00 0.  1.
         21   -1    0    0  501  503 -0.00000000000E+00 -0.00000000000E+00 -0.63677456286E+02  0.63677456286E+02  0.00000000000E+00 0.  1.
          6    1    1    2  501    0  0.56432955961E+02  0.89069731436E+02  0.19431441648E+03  0.28072261760E+03  0.17300000000E+03 0.  1.
         -6    1    1    2    0  502 -0.56432955961E+02 -0.89069731436E+02  0.48075243400E+03  0.52169914546E+03  0.17300000000E+03 0.  1.
</event>
<event>
 4    1  0.6132688E+000  0.1000000E+03  0.7546771E-02  0.1280296E+00
         21   -1    0    0  503  502  0.00000000000E+00  0.00000000000E+00  0.64753232528E+02  0.64753232528E+02  0.00000000000E+00 0.  1.
         21   -1    0    0  501  503 -0.00000000000E+00 -0.00000000000E+00 -0.10595957081E+04  0.10595957081E+04  0.00000000000E+00 0.  1.
          6    1    1    2  501    0  0.14984390865E+03  0.12035211415E+03 -0.40775681889E+03  0.48283791451E+03  0.17300000000E+03 0.  1.
         -6    1    1    2    0  502 -0.14984390865E+03 -0.12035211415E+03 -0.58708565665E+03  0.64151102608E+03  0.17300000000E+03 0.  1.
</event>
<event>
 4    1  0.6132688E+000  0.1000000E+03  0.7546771E-02  0.1280296E+00
         21   -1    0    0  503  502  0.00000000000E+00  0.00000000000E+00  0.45948420875E+02  0.45948420875E+02  0.00000000000E+00 0.  1.
         21   -1    0    0  501  503 -0.00000000000E+00 -0.00000000000E+00 -0.15954772091E+04  0.15954772091E+04  0.00000000000E+00 0.  1.
          6    1    1    2  501    0  0.33564244618E+02 -0.10191828749E+03 -0.13158669542E+04  0.13315212116E+04  0.17300000000E+03 0.  1.
         -6    1    1    2    0  502 -0.33564244618E+02  0.10191828749E+03 -0.23366183407E+03  0.30990441840E+03  0.17300000000E+03 0.  1.
</event>
<event>
 4    1  0.6132688E+000  0.1000000E+03  0.7546771E-02  0.1280296E+00
         21   -1    0    0  501  502  0.00000000000E+00  0.00000000000E+00  0.10715863568E+03  0.10715863568E+03  0.00000000000E+00 0.  1.
         21   -1    0    0  502  503 -0.00000000000E+00 -0.00000000000E+00 -0.75007180708E+03  0.75007180708E+03  0.00000000000E+00 0. -1.
          6    1    1    2  501    0 -0.20332649890E+03  0.21757968728E+02 -0.18098990546E+03  0.32326679421E+03  0.17300000000E+03 0.  1.
         -6    1    1    2    0  503  0.20332649890E+03 -0.21757968728E+02 -0.46192326594E+03  0.53396364855E+03  0.17300000000E+03 0. -1.
</event>
<event>
 4    1  0.6132688E+000  0.1000000E+03  0.7546771E-02  0.1280296E+00
         21   -1    0    0  501  502  0.00000000000E+00  0.00000000000E+00  0.25869732264E+03  0.25869732264E+03  0.00000000000E+00 0. -1.
         21   -1    0    0  502  503 -0.00000000000E+00 -0.00000000000E+00 -0.37491027374E+03  0.37491027374E+03  0.00000000000E+00 0. -1.
          6    1    1    2  501    0  0.41358506891E+02  0.47581800413E+00  0.20193861461E+03  0.26910770439E+03  0.17300000000E+03 0. -1.
         -6    1    1    2    0  503 -0.41358506891E+02 -0.47581800413E+00 -0.31815156571E+03  0.36449989199E+03  0.17300000000E+03 0. -1.
</event>
<event>
 4    1  0.6132688E+000  0.1000000E+03  0.7546771E-02  0.1280296E+00
         21   -1    0    0  503  502  0.00000000000E+00  0.00000000000E+00  0.79332225691E+02  0.79332225691E+02  0.00000000000E+00 0. -1.
         21   -1    0    0  501  503 -0.00000000000E+00 -0.00000000000E+00 -0.60003740316E+03  0.60003740316E+03  0.00000000000E+00 0. -1.
          6    1    1    2  501    0 -0.65694518386E+01  0.13060652052E+03 -0.29759100600E+03  0.36822632680E+03  0.17300000000E+03 0. -1.
         -6    1    1    2    0  502  0.65694518386E+01 -0.13060652052E+03 -0.22311417147E+03  0.31114330205E+03  0.17300000000E+03 0. -1.
</event>
<event>
 4    1  0.6132688E+000  0.1000000E+03  0.7546771E-02  0.1280296E+00
         21   -1    0    0  503  502  0.00000000000E+00  0.00000000000E+00  0.73408071669E+02  0.73408071669E+02  0.00000000000E+00 0. -1.
         21   -1    0    0  501  503 -0.00000000000E+00 -0.00000000000E+00 -0.52044366386E+03  0.52044366386E+03  0.00000000000E+00 0. -1.
          6    1    1    2  501    0  0.70797055104E+02  0.57042008443E+02 -0.21877388051E+03  0.29335477588E+03  0.17300000000E+03 0. -1.
         -6    1    1    2    0  502 -0.70797055104E+02 -0.57042008443E+02 -0.22826171169E+03  0.30049695966E+03  0.17300000000E+03 0. -1.
</event>
<event>
 4    1  0.6132688E+000  0.1000000E+03  0.7546771E-02  0.1280296E+00
         21   -1    0    0  503  502  0.00000000000E+00  0.00000000000E+00  0.27111773108E+03  0.27111773108E+03  0.00000000000E+00 0. -1.
         21   -1    0    0  501  503 -0.00000000000E+00 -0.00000000000E+00 -0.20353955748E+03  0.20353955748E+03  0.00000000000E+00 0. -1.
          6    1    1    2  501    0 -0.19753158483E+02  0.13702577865E+03 -0.45039124359E+02  0.22610567001E+03  0.17300000000E+03 0. -1.
         -6    1    1    2    0  502  0.19753158483E+02 -0.13702577865E+03  0.11261729797E+03  0.24855161856E+03  0.17300000000E+03 0. -1.
</event>
<event>
 4    1  0.6132688E+000  0.1000000E+03  0.7546771E-02  0.1280296E+00
         21   -1    0    0  503  502  0.00000000000E+00  0.00000000000E+00  0.10073998109E+03  0.10073998109E+03  0.00000000000E+00 0.  1.
         21   -1    0    0  501  503 -0.00000000000E+00 -0.00000000000E+00 -0.10110739215E+04  0.10110739215E+04  0.00000000000E+00 0. -1.
          6    1    1    2  501    0  0.13435028698E+03 -0.21723061855E+03 -0.59760935236E+03  0.67253630331E+03  0.17300000000E+03 0. -1.
         -6    1    1    2    0  502 -0.13435028698E+03  0.21723061855E+03 -0.31272458804E+03  0.43927759926E+03  0.17300000000E+03 0.  1.
</event>
<event>
 4    1  0.6132688E+000  0.1000000E+03  0.7546771E-02  0.1280296E+00
         21   -1    0    0  503  502  0.00000000000E+00  0.00000000000E+00  0.41906678845E+03  0.41906678845E+03  0.00000000000E+00 0.  1.
         21   -1    0    0  501  503 -0.00000000000E+00 -0.00000000000E+00 -0.68357364307E+03  0.68357364307E+03  0.00000000000E+00 0. -1.
          6    1    1    2  501    0 -0.32364350233E+03  0.10350523400E+03 -0.51915058061E+03  0.64413102348E+03  0.17300000000E+03 0. -1.
         -6    1    1    2    0  502  0.32364350233E+03 -0.10350523400E+03  0.25464372599E+03  0.45850940803E+03  0.17300000000E+03 0.  1.
</event>
<event>
 4    1  0.6132688E+000  0.1000000E+03  0.7546771E-02  0.1280296E+00
         21   -1    0    0  501  502  0.00000000000E+00  0.00000000000E+00  0.38290829019E+03  0.38290829019E+03  0.00000000000E+00 0. -1.
         21   -1    0    0  502  503 -0.00000000000E+00 -0.00000000000E+00 -0.45401930185E+03  0.45401930185E+03  0.00000000000E+00 0.  1.
          6    1    1    2  501    0 -0.83884666695E+02  0.72412382820E+02  0.32858158289E+03  0.38752425357E+03  0.17300000000E+03 0. -1.
         -6    1    1    2    0  503  0.83884666695E+02 -0.72412382820E+02 -0.39969259455E+03  0.44940333847E+03  0.17300000000E+03 0. -1.
</event>
<event>
 4    1  0.6132688E+000  0.1000000E+03  0.7546771E-02  0.1280296E+00
         21   -1    0    0  501  502  0.00000000000E+00  0.00000000000E+00  0.34903353745E+03  0.34903353745E+03  0.00000000000E+00 0. -1.
         21   -1    0    0  502  503 -0.00000000000E+00 -0.00000000000E+00 -0.30434087743E+03  0.30434087743E+03  0.00000000000E+00 0.  1.
          6    1    1    2  501    0 -0.21024415345E+03 -0.61429336435E+02  0.19102690487E+03  0.33822543638E+03  0.17300000000E+03 0. -1.
         -6    1    1    2    0  503  0.21024415345E+03  0.61429336435E+02 -0.14633424485E+03  0.31514897850E+03  0.17300000000E+03 0. -1.
</event>
<event>
 4    1  0.6132688E+000  0.1000000E+03  0.7546771E-02  0.1280296E+00
         21   -1    0    0  503  502  0.00000000000E+00  0.00000000000E+00  0.86638926530E+02  0.86638926530E+02  0.00000000000E+00 0.  1.
         21   -1    0    0  501  503 -0.00000000000E+00 -0.00000000000E+00 -0.88099005929E+03  0.88099005929E+03  0.00000000000E+00 0.  1.
          6    1    1    2  501    0  0.15196442888E+03 -0.81542867213E+02 -0.17116429557E+03  0.29827611858E+03  0.17300000000E+03 0.  1.
         -6    1    1    2    0  502 -0.15196442888E+03  0.81542867213E+02 -0.62318683719E+03  0.66935286724E+03  0.17300000000E+03 0.  1.
</event>
<event>
 4    1  0.6132688E+000  0.1000000E+03  0.7546771E-02  0.1280296E+00
         21   -1    0    0  503  502  0.00000000000E+00  0.00000000000E+00  0.13853789768E+03  0.13853789768E+03  0.00000000000E+00 0.  1.
         21   -1    0    0  501  503 -0.00000000000E+00 -0.00000000000E+00 -0.68396752048E+03  0.68396752048E+03  0.00000000000E+00 0.  1.
          6    1    1    2  501    0  0.13471686133E+03  0.10993962973E+03 -0.52119325499E+03  0.57602670420E+03  0.17300000000E+03 0.  1.
         -6    1    1    2    0  502 -0.13471686133E+03 -0.10993962973E+03 -0.24236367817E+02  0.24647871396E+03  0.17300000000E+03 0.  1.
</event>
<event>
 4    1  0.6132688E+000  0.1000000E+03  0.7546771E-02  0.1280296E+00
         21   -1    0    0  503  502  0.00000000000E+00  0.00000000000E+00  0.42903017348E+02  0.42903017348E+02  0.00000000000E+00 0.  1.
         21   -1    0    0  501  503 -0.00000000000E+00 -0.00000000000E+00 -0.11098311436E+04  0.11098311436E+04  0.00000000000E+00 0.  1.
          6    1    1    2  501    0  0.12988257613E+03  0.25858833734E+02 -0.50133689438E+03  0.54663136073E+03  0.17300000000E+03 0.  1.
         -6    1    1    2    0  502 -0.12988257613E+03 -0.25858833734E+02 -0.56559123186E+03  0.60610280021E+03  0.17300000000E+03 0.  1.
</event>
<event>
 4    1  0.6132688E+000  0.1000000E+03  0.7546771E-02  0.1280296E+00
         21   -1    0    0  503  502  0.00000000000E+00  0.00000000000E+00  0.71678066094E+03  0.71678066094E+03  0.00000000000E+00 0.  1.
         21   -1    0    0  501  503 -0.00000000000E+00 -0.00000000000E+00 -0.82852044309E+02  0.82852044309E+02  0.00000000000E+00 0.  1.
          6    1    1    2  501    0 -0.16929960657E+03 -0.21176193827E+02  0.28640437216E+03  0.37558920693E+03  0.17300000000E+03 0.  1.
         -6    1    1    2    0  502  0.16929960657E+03  0.21176193827E+02  0.34752424447E+03  0.42404349832E+03  0.17300000000E+03 0.  1.
</event>
<event>
 4    1  0.6132688E+000  0.1000000E+03  0.7546771E-02  0.1280296E+00
         21   -1    0    0  501  502  0.00000000000E+00  0.00000000000E+00  0.99737202563E+03  0.99737202563E+03  0.00000000000E+00 0. -1.
         21   -1    0    0  502  503 -0.00000000000E+00 -0.00000000000E+00 -0.35992692307E+02  0.35992692307E+02  0.00000000000E+00 0. -1.
          6    1    1    2  501    0 -0.96759736082E+01 -0.38866890764E+02  0.66085543455E+03  0.68429757053E+03  0.17300000000E+03 0. -1.
         -6    1    1    2    0  503  0.96759736082E+01  0.38866890764E+02  0.30052389877E+03  0.34906714740E+03  0.17300000000E+03 0. -1.
</event>
<event>
 4    1  0.6132688E+000  0.1000000E+03  0.7546771E-02  0.1280296E+00
         21   -1    0    0  501  502  0.00000000000E+00  0.00000000000E+00  0.63397404540E+03  0.63397404540E+03  0.00000000000E+00 0. -1.
         21   -1    0    0  502  503 -0.00000000000E+00 -0.00000000000E+00 -0.10282022370E+03  0.10282022370E+03  0.00000000000E+00 0. -1.
          6    1    1    2  501    0  0.62141386044E+02 -0.81923961088E+02  0.49227222487E+03  0.53182142740E+03  0.17300000000E+03 0. -1.
         -6    1    1    2    0  503 -0.62141386044E+02  0.81923961088E+02  0.38881596826E+02  0.20497284169E+03  0.17300000000E+03 0. -1.
</event>
<event>
 4    1  0.6132688E+000  0.1000000E+03  0.7546771E-02  0.1280296E+00
         21   -1    0    0  501  502  0.00000000000E+00  0.00000000000E+00  0.13897616225E+03  0.13897616225E+03  0.00000000000E+00 0. -1.
         21   -1    0    0  502  503 -0.00000000000E+00 -0.00000000000E+00 -0.43749726429E+03  0.43749726429E+03  0.00000000000E+00 0. -1.
          6    1    1    2  501    0 -0.77766575160E+02 -0.37128653394E+02  0.29730206654E+02  0.19554810739E+03  0.17300000000E+03 0. -1.
         -6    1    1    2    0  503  0.77766575160E+02  0.37128653394E+02 -0.32825130869E+03  0.38092531916E+03  0.17300000000E+03 0. -1.
</event>
<event>
 4    1  0.6132688E+000  0.1000000E+03  0.7546771E-02  0.1280296E+00
         21   -1    0    0  501  502  0.00000000000E+00  0.00000000000E+00  0.23135264382E+03  0.23135264382E+03  0.00000000000E+00 0. -1.
         21   -1    0    0  502  503 -0.00000000000E+00 -0.00000000000E+00 -0.18397024746E+03  0.18397024746E+03  0.00000000000E+00 0. -1.
          6    1    1    2  501    0  0.35563510233E+02 -0.10492305663E+03  0.42773426355E+02  0.20983845471E+03  0.17300000000E+03 0. -1.
         -6    1    1    2    0  503 -0.35563510233E+02  0.10492305663E+03  0.46089700054E+01  0.20548443658E+03  0.17300000000E+03 0. -1.
</event>
<event>
 4    1  0.6132688E+000  0.1000000E+03  0.7546771E-02  0.1280296E+00
         21   -1    0    0  501  502  0.00000000000E+00  0.00000000000E+00  0.84309869455E+02  0.84309869455E+02  0.00000000000E+00 0. -1.
         21   -1    0    0  502  503 -0.00000000000E+00 -0.00000000000E+00 -0.53650634114E+03  0.53650634114E+03  0.00000000000E+00 0. -1.
          6    1    1    2  501    0 -0.61653937938E+02  0.47267918987E+02 -0.85588371034E+02  0.20806209046E+03  0.17300000000E+03 0. -1.
         -6    1    1    2    0  503  0.61653937938E+02 -0.47267918987E+02 -0.36660810065E+03  0.41275412014E+03  0.17300000000E+03 0. -1.
</event>
<event>
 4    1  0.6132688E+000  0.1000000E+03  0.7546771E-02  0.1280296E+00
         21   -1    0    0  501  502  0.00000000000E+00  0.00000000000E+00  0.16359290223E+03  0.16359290223E+03  0.00000000000E+00 0. -1.
         21   -1    0    0  502  503 -0.00000000000E+00 -0.00000000000E+00 -0.23157893118E+03  0.23157893118E+03  0.00000000000E+00 0. -1.
          6    1    1    2  501    0  0.17914896680E+02  0.84888922959E+02 -0.12977083248E+02  0.19397030044E+03  0.17300000000E+03 0. -1.
         -6    1    1    2    0  503 -0.17914896680E+02 -0.84888922959E+02 -0.55008945701E+02  0.20120153297E+03  0.17300000000E+03 0. -1.
</event>
<event>
 4    1  0.6132688E+000  0.1000000E+03  0.7546771E-02  0.1280296E+00
         21   -1    0    0  501  502  0.00000000000E+00  0.00000000000E+00  0.25914105874E+03  0.25914105874E+03  0.00000000000E+00 0.  1.
         21   -1    0    0  502  503 -0.00000000000E+00 -0.00000000000E+00 -0.12521807015E+03  0.12521807015E+03  0.00000000000E+00 0. -1.
          6    1    1    2  501    0 -0.43008039521E+02 -0.25875211854E+02  0.65935303641E+02  0.19182200687E+03  0.17300000000E+03 0.  1.
         -6    1    1    2    0  503  0.43008039521E+02  0.25875211854E+02  0.67987684947E+02  0.19253712202E+03  0.17300000000E+03 0. -1.
</event>
<event>
 4    1  0.6132688E+000  0.1000000E+03  0.7546771E-02  0.1280296E+00
         21   -1    0    0  501  502  0.00000000000E+00  0.00000000000E+00  0.72115930052E+03  0.72115930052E+03  0.00000000000E+00 0.  1.
         21   -1    0    0  502  503 -0.00000000000E+00 -0.00000000000E+00 -0.46583279404E+02  0.46583279404E+02  0.00000000000E+00 0. -1.
          6    1    1    2  501    0 -0.28672831078E+01 -0.40956700926E+02  0.43046528245E+03  0.46574137894E+03  0.17300000000E+03 0.  1.
         -6    1    1    2    0  503  0.28672831078E+01  0.40956700926E+02  0.24411073866E+03  0.30200120098E+03  0.17300000000E+03 0. -1.
</event>
<event>
 4    1  0.6132688E+000  0.1000000E+03  0.7546771E-02  0.1280296E+00
         21   -1    0    0  503  502  0.00000000000E+00  0.00000000000E+00  0.18916902410E+03  0.18916902410E+03  0.00000000000E+00 0.  1.
         21   -1    0    0  501  503 -0.00000000000E+00 -0.00000000000E+00 -0.36813022695E+03  0.36813022695E+03  0.00000000000E+00 0. -1.
          6    1    1    2  501    0  0.14986666267E+03 -0.11809819867E+03 -0.28798169079E+02  0.25916314486E+03  0.17300000000E+03 0. -1.
         -6    1    1    2    0  502 -0.14986666267E+03  0.11809819867E+03 -0.15016303377E+03  0.29813610620E+03  0.17300000000E+03 0.  1.
</event>
<event>
 4    1  0.6132688E+000  0.1000000E+03  0.7546771E-02  0.1280296E+00
         21   -1    0    0  503  502  0.00000000000E+00  0.00000000000E+00  0.42130610168E+02  0.42130610168E+02  0.00000000000E+00 0.  1.
         21   -1    0    0  501  503 -0.00000000000E+00 -0.00000000000E+00 -0.11812449202E+04  0.11812449202E+04  0.00000000000E+00 0. -1.
          6    1    1    2  501    0 -0.11683540696E+02 -0.49330299795E+02 -0.92986751690E+03  0.94718138843E+03  0.17300000000E+03 0. -1.
         -6    1    1    2    0  502  0.11683540696E+02  0.49330299795E+02 -0.20924679310E+03  0.27619414191E+03  0.17300000000E+03 0.  1.
</event>
<event>
 4    1  0.6132688E+000  0.1000000E+03  0.7546771E-02  0.1280296E+00
         21   -1    0    0  503  502  0.00000000000E+00  0.00000000000E+00  0.77604457273E+03  0.77604457273E+03  0.00000000000E+00 0.  1.
         21   -1    0    0  501  503 -0.00000000000E+00 -0.00000000000E+00 -0.15964449622E+03  0.15964449622E+03  0.00000000000E+00 0.  1.
          6    1    1    2  501    0  0.86467130755E+02 -0.55904200142E+02 -0.75561236694E+02  0.21503568259E+03  0.17300000000E+03 0.  1.
         -6    1    1    2    0  502 -0.86467130755E+02  0.55904200142E+02  0.69196131321E+03  0.72065338636E+03  0.17300000000E+03 0.  1.
</event>
<event>
 4    1  0.6132688E+000  0.1000000E+03  0.7546771E-02  0.1280296E+00
         21   -1    0    0  503  502  0.00000000000E+00  0.00000000000E+00  0.11859492705E+04  0.11859492705E+04  0.00000000000E+00 0.  1.
         21   -1    0    0  501  503 -0.00000000000E+00 -0.00000000000E+00 -0.56182077897E+02  0.56182077897E+02  0.00000000000E+00 0.  1.
          6    1    1    2  501    0  0.39887001378E+02 -0.18734771161E+03  0.57247559430E+03  0.62797089422E+03  0.17300000000E+03 0.  1.
         -6    1    1    2    0  502 -0.39887001378E+02  0.18734771161E+03  0.55729159828E+03  0.61416045414E+03  0.17300000000E+03 0.  1.
</event>
<event>
 4    1  0.6132688E+000  0.1000000E+03  0.7546771E-02  0.1280296E+00
         21   -1    0    0  503  502  0.00000000000E+00  0.00000000000E+00  0.16261312528E+03  0.16261312528E+03  0.00000000000E+00 0.  1.
         21   -1    0    0  501  503 -0.00000000000E+00 -0.00000000000E+00 -0.32786108709E+03  0.32786108709E+03  0.00000000000E+00 0.  1.
          6    1    1    2  501    0  0.49824350991E+02  0.10728876729E+03 -0.18555503753E+03  0.27991609008E+03  0.17300000000E+03 0.  1.
         -6    1    1    2    0  502 -0.49824350991E+02 -0.10728876729E+03  0.20307075711E+02  0.21055812229E+03  0.17300000000E+03 0.  1.
</event>
<event>
 4    1  0.6132688E+000  0.1000000E+03  0.7546771E-02  0.1280296E+00
         21   -1    0    0  503  502  0.00000000000E+00  0.00000000000E+00  0.43523301883E+03  0.43523301883E+03  0.00000000000E+00 0.  1.
         21   -1    0    0  501  503 -0.00000000000E+00 -0.00000000000E+00 -0.11651251182E+03  0.11651251182E+03  0.00000000000E+00 0.  1.
          6    1    1    2  501    0 -0.11805498801E+02 -0.69005444196E+02  0.49818725045E+01  0.18669477814E+03  0.17300000000E+03 0.  1.
         -6    1    1    2    0  502  0.11805498801E+02  0.69005444196E+02  0.31373863451E+03  0.36505075252E+03  0.17300000000E+03 0.  1.
</event>
<event>
 4    1  0.6132688E+000  0.1000000E+03  0.7546771E-02  0.1280296E+00
         21   -1    0    0  501  502  0.00000000000E+00  0.00000000000E+00  0.18445994331E+04  0.18445994331E+04  0.00000000000E+00 0. -1.
         21   -1    0    0  502  503 -0.00000000000E+00 -0.00000000000E+00 -0.21397999045E+02  0.21397999045E+02  0.00000000000E+00 0. -1.
          6    1    1    2  501    0 -0.81710837348E+02 -0.23476477206E+02  0.68569946930E+03  0.71227843441E+03  0.17300000000E+03 0. -1.
         -6    1    1    2    0  503  0.81710837348E+02  0.23476477206E+02  0.11375019647E+04  0.11537189977E+04  0.17300000000E+03 0. -1.
</event>
<event>
 4    1  0.6132688E+000  0.1000000E+03  0.7546771E-02  0.1280296E+00
         21   -1    0    0  503  502  0.00000000000E+00  0.00000000000E+00  0.21792613041E+03  0.21792613041E+03  0.00000000000E+00 0. -1.
         21   -1    0    0  501  503 -0.00000000000E+00 -0.00000000000E+00 -0.45105715062E+03  0.45105715062E+03  0.00000000000E+00 0.  1.
          6    1    1    2  501    0  0.13346925891E+03 -0.73923901300E+02 -0.34310912772E+03  0.41343882230E+03  0.17300000000E+03 0. -1.
         -6    1    1    2    0  502 -0.13346925891E+03  0.73923901300E+02  0.10997810751E+03  0.25554445874E+03  0.17300000000E+03 0.  1.
</event>
<event>
 4    1  0.6132688E+000  0.1000000E+03  0.7546771E-02  0.1280296E+00
         21   -1    0    0  503  502  0.00000000000E+00  0.00000000000E+00  0.91392137405E+03  0.91392137405E+03  0.00000000000E+00 0. -1.
         21   -1    0    0  501  503 -0.00000000000E+00 -0.00000000000E+00 -0.94205469927E+02  0.94205469927E+02  0.00000000000E+00 0.  1.
          6    1    1    2  501    0  0.12461218987E+03 -0.78127297645E+01  0.63807947480E+02  0.22268742841E+03  0.17300000000E+03 0. -1.
         -6    1    1    2    0  502 -0.12461218987E+03  0.78127297645E+01  0.75590795664E+03  0.78543941556E+03  0.17300000000E+03 0.  1.
</event>
<event>
 4    1  0.6132688E+000  0.1000000E+03  0.7546771E-02  0.1280296E+00
         21   -1    0    0  501  502  0.00000000000E+00  0.00000000000E+00  0.28598024500E+03  0.28598024500E+03  0.00000000000E+00 0.  1.
         21   -1    0    0  502  503 -0.00000000000E+00 -0.00000000000E+00 -0.32568409665E+03  0.32568409665E+03  0.00000000000E+00 0.  1.
          6    1    1    2  501    0 -0.20619492474E+03 -0.10970341825E+03 -0.11310250035E+03  0.31188517527E+03  0.17300000000E+03 0.  1.
         -6    1    1    2    0  503  0.20619492474E+03  0.10970341825E+03  0.73398648701E+02  0.29977916638E+03  0.17300000000E+03 0.  1.
</event>
<event>
 4    1  0.6132688E+000  0.1000000E+03  0.7546771E-02  0.1280296E+00
         21   -1    0    0  501  502  0.00000000000E+00  0.00000000000E+00  0.60392448131E+03  0.60392448131E+03  0.00000000000E+00 0.  1.
         21   -1    0    0  502  503 -0.00000000000E+00 -0.00000000000E+00 -0.76350895892E+02  0.76350895892E+02  0.00000000000E+00 0.  1.
          6    1    1    2  501    0  0.20459696113E+02 -0.34776804881E+02  0.45487543334E+03  0.48833255593E+03  0.17300000000E+03 0.  1.
         -6    1    1    2    0  503 -0.20459696113E+02  0.34776804881E+02  0.72698152076E+02  0.19194282127E+03  0.17300000000E+03 0.  1.
</event>
<event>
 4    1  0.6132688E+000  0.1000000E+03  0.7546771E-02  0.1280296E+00
         21   -1    0    0  501  502  0.00000000000E+00  0.00000000000E+00  0.96737602912E+03  0.96737602912E+03  0.00000000000E+00 0.  1.
         21   -1    0    0  502  503 -0.00000000000E+00 -0.00000000000E+00 -0.17463370144E+03  0.17463370144E+03  0.00000000000E+00 0.  1.
          6    1    1    2  501    0 -0.35720820102E+03  0.10509032541E+03  0.42294099865E+03  0.58944869472E+03  0.17300000000E+03 0.  1.
         -6    1    1    2    0  503  0.35720820102E+03 -0.10509032541E+03  0.36980132903E+03  0.55256103583E+03  0.17300000000E+03 0.  1.
</event>
<event>
 4    1  0.6132688E+000  0.1000000E+03  0.7546771E-02  0.1280296E+00
         21   -1    0    0  501  502  0.00000000000E+00  0.00000000000E+00  0.10091902098E+03  0.10091902098E+03  0.00000000000E+00 0.  1.
         21   -1    0    0  502  503 -0.00000000000E+00 -0.00000000000E+00 -0.68004943847E+03  0.68004943847E+03  0.00000000000E+00 0.  1.
          6    1    1    2  501    0 -0.16959223877E+03 -0.27313920511E+02 -0.43248209331E+03  0.49646484139E+03  0.17300000000E+03 0.  1.
         -6    1    1    2    0  503  0.16959223877E+03  0.27313920511E+02 -0.14664832418E+03  0.28450361806E+03  0.17300000000E+03 0.  1.
</event>
<event>
 4    1  0.6132688E+000  0.1000000E+03  0.7546771E-02  0.1280296E+00
         21   -1    0    0  501  502  0.00000000000E+00  0.00000000000E+00  0.17516728122E+04  0.17516728122E+04  0.00000000000E+00 0.  1.
         21   -1    0    0  502  503 -0.00000000000E+00 -0.00000000000E+00 -0.13748348969E+03  0.13748348969E+03  0.00000000000E+00 0.  1.
          6    1    1    2  501    0 -0.18430171003E+02 -0.38727269001E+03  0.12808357177E+04  0.13493661265E+04  0.17300000000E+03 0.  1.
         -6    1    1    2    0  503  0.18430171003E+02  0.38727269001E+03  0.33335360488E+03  0.53979017545E+03  0.17300000000E+03 0.  1.
</event>
<event>
 4    1  0.6132688E+000  0.1000000E+03  0.7546771E-02  0.1280296E+00
         21   -1    0    0  503  502  0.00000000000E+00  0.00000000000E+00  0.21415506041E+04  0.21415506041E+04  0.00000000000E+00 0.  1.
         21   -1    0    0  501  503 -0.00000000000E+00 -0.00000000000E+00 -0.42993216153E+02  0.42993216153E+02  0.00000000000E+00 0.  1.
          6    1    1    2  501    0  0.14984456689E+03  0.77513531702E+02  0.38864345611E+03  0.45764011822E+03  0.17300000000E+03 0. -1.
         -6    1    1    2    0  502 -0.14984456689E+03 -0.77513531702E+02  0.17099139318E+04  0.17269037020E+04  0.17300000000E+03 0. -1.
</event>
<event>
 4    1  0.6132688E+000  0.1000000E+03  0.7546771E-02  0.1280296E+00
         21   -1    0    0  503  502  0.00000000000E+00  0.00000000000E+00  0.12027447012E+04  0.12027447012E+04  0.00000000000E+00 0.  1.
         21   -1    0    0  501  503 -0.00000000000E+00 -0.00000000000E+00 -0.40000583577E+02  0.40000583577E+02  0.00000000000E+00 0.  1.
          6    1    1    2  501    0  0.10635188606E+03  0.10403582573E+02  0.34840908748E+03  0.40340655726E+03  0.17300000000E+03 0.  1.
         -6    1    1    2    0  502 -0.10635188606E+03 -0.10403582573E+02  0.81433503018E+03  0.83933872756E+03  0.17300000000E+03 0.  1.
</event>
<event>
 4    1  0.6132688E+000  0.1000000E+03  0.7546771E-02  0.1280296E+00
         21   -1    0    0  503  502  0.00000000000E+00  0.00000000000E+00  0.21337886224E+04  0.21337886224E+04  0.00000000000E+00 0.  1.
         21   -1    0    0  501  503 -0.00000000000E+00 -0.00000000000E+00 -0.45112647705E+02  0.45112647705E+02  0.00000000000E+00 0. -1.
          6    1    1    2  501    0 -0.80900979448E+02  0.13921577182E+03  0.33850028948E+03  0.41284070243E+03  0.17300000000E+03 0. -1.
         -6    1    1    2    0  502  0.80900979448E+02 -0.13921577182E+03  0.17501756852E+04  0.17660605677E+04  0.17300000000E+03 0.  1.
</event>
<event>
 4    1  0.6132688E+000  0.1000000E+03  0.7546771E-02  0.1280296E+00
         21   -1    0    0  503  502  0.00000000000E+00  0.00000000000E+00  0.80740404790E+03  0.80740404790E+03  0.00000000000E+00 0.  1.
         21   -1    0    0  501  503 -0.00000000000E+00 -0.00000000000E+00 -0.78862130688E+02  0.78862130688E+02  0.00000000000E+00 0. -1.
          6    1    1    2  501    0  0.10956874800E+03 -0.66442551075E+02  0.13312458622E+03  0.25312265522E+03  0.17300000000E+03 0. -1.
         -6    1    1    2    0  502 -0.10956874800E+03  0.66442551075E+02  0.59541733099E+03  0.63314352336E+03  0.17300000000E+03 0.  1.
</event>
<event>
 4    1  0.6132688E+000  0.1000000E+03  0.7546771E-02  0.1280296E+00
         21   -1    0    0  501  502  0.00000000000E+00  0.00000000000E+00  0.10620368379E+04  0.10620368379E+04  0.00000000000E+00 0.  1.
         21   -1    0    0  502  503 -0.00000000000E+00 -0.00000000000E+00 -0.53455964503E+02  0.53455964503E+02  0.00000000000E+00 0. -1.
          6    1    1    2  501    0  0.15629348651E+03  0.47188222396E+02  0.53645623508E+03  0.58682934011E+03  0.17300000000E+03 0. -1.
         -6    1    1    2    0  503 -0.15629348651E+03 -0.47188222396E+02  0.47212463831E+03  0.52866346229E+03  0.17300000000E+03 0. -1.
</event>
<event>
 4    1  0.6132688E+000  0.1000000E+03  0.7546771E-02  0.1280296E+00
         21   -1    0    0  501  502  0.00000000000E+00  0.00000000000E+00  0.15804398461E+03  0.15804398461E+03  0.00000000000E+00 0.  1.
         21   -1    0    0  502  503 -0.00000000000E+00 -0.00000000000E+00 -0.20379328456E+03  0.20379328456E+03  0.00000000000E+00 0. -1.
          6    1    1    2  501    0 -0.40918236134E+02 -0.15722466546E+02 -0.38058914887E+01  0.17850765477E+03  0.17300000000E+03 0. -1.
         -6    1    1    2    0  503  0.40918236134E+02  0.15722466546E+02 -0.41943408453E+02  0.18332961440E+03  0.17300000000E+03 0. -1.
</event>
<event>
 4    1  0.6132688E+000  0.1000000E+03  0.7546771E-02  0.1280296E+00
         21   -1    0    0  501  502  0.00000000000E+00  0.00000000000E+00  0.45399522118E+02  0.45399522118E+02  0.00000000000E+00 0. -1.
         21   -1    0    0  502  503 -0.00000000000E+00 -0.00000000000E+00 -0.88782941557E+03  0.88782941557E+03  0.00000000000E+00 0. -1.
          6    1    1    2  501    0 -0.38898184349E+02  0.53521855621E+01 -0.20273910136E+03  0.26939535604E+03  0.17300000000E+03 0. -1.
         -6    1    1    2    0  503  0.38898184349E+02 -0.53521855621E+01 -0.63969079209E+03  0.66383358165E+03  0.17300000000E+03 0. -1.
</event>
<event>
 4    1  0.6132688E+000  0.1000000E+03  0.7546771E-02  0.1280296E+00
         21   -1    0    0  501  502  0.00000000000E+00  0.00000000000E+00  0.74235869506E+03  0.74235869506E+03  0.00000000000E+00 0. -1.
         21   -1    0    0  502  503 -0.00000000000E+00 -0.00000000000E+00 -0.71856139022E+02  0.71856139022E+02  0.00000000000E+00 0. -1.
          6    1    1    2  501    0  0.88939990162E+02  0.24319830740E+02  0.55050061186E+03  0.58436435524E+03  0.17300000000E+03 0. -1.
         -6    1    1    2    0  503 -0.88939990162E+02 -0.24319830740E+02  0.12000194418E+03  0.22985047884E+03  0.17300000000E+03 0. -1.
</event>
<event>
 4    1  0.6132688E+000  0.1000000E+03  0.7546771E-02  0.1280296E+00
         21   -1    0    0  503  502  0.00000000000E+00  0.00000000000E+00  0.53624876717E+03  0.53624876717E+03  0.00000000000E+00 0.  1.
         21   -1    0    0  501  503 -0.00000000000E+00 -0.00000000000E+00 -0.19256668016E+03  0.19256668016E+03  0.00000000000E+00 0. -1.
          6    1    1    2  501    0 -0.10852397352E+03 -0.87942923666E+02 -0.91245565703E+02  0.24034592552E+03  0.17300000000E+03 0.  1.
         -6    1    1    2    0  502  0.10852397352E+03  0.87942923666E+02  0.43492765271E+03  0.48846952181E+03  0.17300000000E+03 0. -1.
</event>
<event>
 4    1  0.6132688E+000  0.1000000E+03  0.7546771E-02  0.1280296E+00
         21   -1    0    0  501  502  0.00000000000E+00  0.00000000000E+00  0.32293228385E+03  0.32293228385E+03  0.00000000000E+00 0. -1.
         21   -1    0    0  502  503 -0.00000000000E+00 -0.00000000000E+00 -0.13288788236E+03  0.13288788236E+03  0.00000000000E+00 0. -1.
          6    1    1    2  501    0  0.83243464579E+02  0.46023984034E+02  0.16405471040E+03  0.25669170128E+03  0.17300000000E+03 0. -1.
         -6    1    1    2    0  503 -0.83243464579E+02 -0.46023984034E+02  0.25989691091E+02  0.19912846493E+03  0.17300000000E+03 0. -1.
</event>
<event>
 4    1  0.6132688E+000  0.1000000E+03  0.7546771E-02  0.1280296E+00
         21   -1    0    0  501  502  0.00000000000E+00  0.00000000000E+00  0.12438641850E+04  0.12438641850E+04  0.00000000000E+00 0. -1.
         21   -1    0    0  502  503 -0.00000000000E+00 -0.00000000000E+00 -0.43763370467E+03  0.43763370467E+03  0.00000000000E+00 0. -1.
          6    1    1    2  501    0  0.40485301204E+03  0.31710484938E+03  0.97284030270E+03  0.11139159310E+04  0.17300000000E+03 0. -1.
         -6    1    1    2    0  503 -0.40485301204E+03 -0.31710484938E+03 -0.16660982237E+03  0.56758195863E+03  0.17300000000E+03 0. -1.
</event>
<event>
 4    1  0.6132688E+000  0.1000000E+03  0.7546771E-02  0.1280296E+00
         21   -1    0    0  503  502  0.00000000000E+00  0.00000000000E+00  0.24235941797E+03  0.24235941797E+03  0.00000000000E+00 0.  1.
         21   -1    0    0  501  503 -0.00000000000E+00 -0.00000000000E+00 -0.30166631867E+03  0.30166631867E+03  0.00000000000E+00 0.  1.
          6    1    1    2  501    0  0.14983246611E+02  0.15802872021E+02 -0.23755272174E+03  0.29467698256E+03  0.17300000000E+03 0.  1.
         -6    1    1    2    0  502 -0.14983246611E+02 -0.15802872021E+02  0.17824582104E+03  0.24934875408E+03  0.17300000000E+03 0.  1.
</event>
<event>
 4    1  0.6132688E+000  0.1000000E+03  0.7546771E-02  0.1280296E+00
         21   -1    0    0  503  502  0.00000000000E+00  0.00000000000E+00  0.89135629361E+03  0.89135629361E+03  0.00000000000E+00 0.  1.
         21   -1    0    0  501  503 -0.00000000000E+00 -0.00000000000E+00 -0.93625752012E+02  0.93625752012E+02  0.00000000000E+00 0.  1.
          6    1    1    2  501    0 -0.19829233327E+03 -0.11506357973E+03  0.34589470694E+03  0.44959050825E+03  0.17300000000E+03 0.  1.
         -6    1    1    2    0  502  0.19829233327E+03  0.11506357973E+03  0.45183583466E+03  0.53539153738E+03  0.17300000000E+03 0.  1.
</event>
<event>
 4    1  0.6132688E+000  0.1000000E+03  0.7546771E-02  0.1280296E+00
         21   -1    0    0  501  502  0.00000000000E+00  0.00000000000E+00  0.99122858657E+03  0.99122858657E+03  0.00000000000E+00 0. -1.
         21   -1    0    0  502  503 -0.00000000000E+00 -0.00000000000E+00 -0.65343887355E+02  0.65343887355E+02  0.00000000000E+00 0. -1.
          6    1    1    2  501    0  0.33927808377E+02 -0.57611561311E+02  0.82469632884E+03  0.84529475509E+03  0.17300000000E+03 0. -1.
         -6    1    1    2    0  503 -0.33927808377E+02  0.57611561311E+02  0.10118837037E+03  0.21127771884E+03  0.17300000000E+03 0. -1.
</event>
<event>
 4    1  0.6132688E+000  0.1000000E+03  0.7546771E-02  0.1280296E+00
         21   -1    0    0  501  502  0.00000000000E+00  0.00000000000E+00  0.14564219641E+03  0.14564219641E+03  0.00000000000E+00 0. -1.
         21   -1    0    0  502  503 -0.00000000000E+00 -0.00000000000E+00 -0.18162485269E+04  0.18162485269E+04  0.00000000000E+00 0. -1.
          6    1    1    2  501    0 -0.29585861103E+03 -0.15308697232E+03 -0.16469694680E+03  0.40990489519E+03  0.17300000000E+03 0. -1.
         -6    1    1    2    0  503  0.29585861103E+03  0.15308697232E+03 -0.15059093837E+04  0.15519858281E+04  0.17300000000E+03 0. -1.
</event>
<event>
 4    1  0.6132688E+000  0.1000000E+03  0.7546771E-02  0.1280296E+00
         21   -1    0    0  501  502  0.00000000000E+00  0.00000000000E+00  0.69435479244E+03  0.69435479244E+03  0.00000000000E+00 0. -1.
         21   -1    0    0  502  503 -0.00000000000E+00 -0.00000000000E+00 -0.17633246632E+03  0.17633246632E+03  0.00000000000E+00 0. -1.
          6    1    1    2  501    0 -0.13428337453E+03 -0.21056311359E+03  0.47500579060E+03  0.56385135504E+03  0.17300000000E+03 0. -1.
         -6    1    1    2    0  503  0.13428337453E+03  0.21056311359E+03  0.43016535522E+02  0.30683590372E+03  0.17300000000E+03 0. -1.
</event>
<event>
 4    1  0.6132688E+000  0.1000000E+03  0.7546771E-02  0.1280296E+00
         21   -1    0    0  503  502  0.00000000000E+00  0.00000000000E+00  0.73301272180E+02  0.73301272180E+02  0.00000000000E+00 0.  1.
         21   -1    0    0  501  503 -0.00000000000E+00 -0.00000000000E+00 -0.13804361612E+04  0.13804361612E+04  0.00000000000E+00 0.  1.
          6    1    1    2  501    0 -0.17525958117E+03  0.86614240584E+02 -0.10689202989E+04  0.11003352002E+04  0.17300000000E+03 0.  1.
         -6    1    1    2    0  502  0.17525958117E+03 -0.86614240584E+02 -0.23821459018E+03  0.35340223321E+03  0.17300000000E+03 0.  1.
</event>
<event>
 4    1  0.6132688E+000  0.1000000E+03  0.7546771E-02  0.1280296E+00
         21   -1    0    0  503  502  0.00000000000E+00  0.00000000000E+00  0.10767061387E+04  0.10767061387E+04  0.00000000000E+00 0.  1.
         21   -1    0    0  501  503 -0.00000000000E+00 -0.00000000000E+00 -0.84013671669E+02  0.84013671669E+02  0.00000000000E+00 0.  1.
          6    1    1    2  501    0  0.13463537952E+03 -0.10639083098E+03  0.15614359690E+03  0.28940545466E+03  0.17300000000E+03 0.  1.
         -6    1    1    2    0  502 -0.13463537952E+03  0.10639083098E+03  0.83654887012E+03  0.87131435569E+03  0.17300000000E+03 0.  1.
</event>
<event>
 4    1  0.6132688E+000  0.1000000E+03  0.7546771E-02  0.1280296E+00
         21   -1    0    0  501  502  0.00000000000E+00  0.00000000000E+00  0.64721081073E+03  0.64721081073E+03  0.00000000000E+00 0. -1.
         21   -1    0    0  502  503 -0.00000000000E+00 -0.00000000000E+00 -0.14155638556E+03  0.14155638556E+03  0.00000000000E+00 0.  1.
          6    1    1    2  501    0 -0.58821348091E+02  0.46861306099E+02  0.56125171099E+03  0.59210507184E+03  0.17300000000E+03 0.  1.
         -6    1    1    2    0  503  0.58821348091E+02 -0.46861306099E+02 -0.55597285828E+02  0.19666212445E+03  0.17300000000E+03 0. -1.
</event>
<event>
 4    1  0.6132688E+000  0.1000000E+03  0.7546771E-02  0.1280296E+00
         21   -1    0    0  501  502  0.00000000000E+00  0.00000000000E+00  0.24824305003E+02  0.24824305003E+02  0.00000000000E+00 0. -1.
         21   -1    0    0  502  503 -0.00000000000E+00 -0.00000000000E+00 -0.17386827005E+04  0.17386827005E+04  0.00000000000E+00 0.  1.
          6    1    1    2  501    0  0.35920786165E+02  0.73781766428E+02 -0.51478726845E+03  0.54924401107E+03  0.17300000000E+03 0.  1.
         -6    1    1    2    0  503 -0.35920786165E+02 -0.73781766428E+02 -0.11990711270E+04  0.12142629944E+04  0.17300000000E+03 0. -1.
</event>
<event>
 4    1  0.6132688E+000  0.1000000E+03  0.7546771E-02  0.1280296E+00
         21   -1    0    0  501  502  0.00000000000E+00  0.00000000000E+00  0.14716678202E+03  0.14716678202E+03  0.00000000000E+00 0. -1.
         21   -1    0    0  502  503 -0.00000000000E+00 -0.00000000000E+00 -0.24330982814E+03  0.24330982814E+03  0.00000000000E+00 0.  1.
          6    1    1    2  501    0  0.69783253073E+02  0.29970636238E+02 -0.58901750924E+02  0.19790492088E+03  0.17300000000E+03 0.  1.
         -6    1    1    2    0  503 -0.69783253073E+02 -0.29970636238E+02 -0.37241295199E+02  0.19257168929E+03  0.17300000000E+03 0. -1.
</event>
<event>
 4    1  0.6132688E+000  0.1000000E+03  0.7546771E-02  0.1280296E+00
         21   -1    0    0  501  502  0.00000000000E+00  0.00000000000E+00  0.72369037125E+03  0.72369037125E+03  0.00000000000E+00 0. -1.
         21   -1    0    0  502  503 -0.00000000000E+00 -0.00000000000E+00 -0.18249915292E+03  0.18249915292E+03  0.00000000000E+00 0.  1.
          6    1    1    2  501    0 -0.12337997726E+03  0.21759948227E+02  0.63716745321E+03  0.67201746820E+03  0.17300000000E+03 0.  1.
         -6    1    1    2    0  503  0.12337997726E+03 -0.21759948227E+02 -0.95976234878E+02  0.23417205597E+03  0.17300000000E+03 0. -1.
</event>
<event>
 4    1  0.6132688E+000  0.1000000E+03  0.7546771E-02  0.1280296E+00
         21   -1    0    0  501  502  0.00000000000E+00  0.00000000000E+00  0.12520469318E+03  0.12520469318E+03  0.00000000000E+00 0.  1.
         21   -1    0    0  502  503 -0.00000000000E+00 -0.00000000000E+00 -0.26827704666E+03  0.26827704666E+03  0.00000000000E+00 0. -1.
          6    1    1    2  501    0 -0.43589430901E+02  0.38827242071E+02 -0.54463104814E+02  0.19053299714E+03  0.17300000000E+03 0.  1.
         -6    1    1    2    0  503  0.43589430901E+02 -0.38827242071E+02 -0.88609248670E+02  0.20294874270E+03  0.17300000000E+03 0.  1.
</event>
<event>
 4    1  0.6132688E+000  0.1000000E+03  0.7546771E-02  0.1280296E+00
         21   -1    0    0  501  502  0.00000000000E+00  0.00000000000E+00  0.74358308433E+02  0.74358308433E+02  0.00000000000E+00 0.  1.
         21   -1    0    0  502  503 -0.00000000000E+00 -0.00000000000E+00 -0.62913369360E+03  0.62913369360E+03  0.00000000000E+00 0. -1.
          6    1    1    2  501    0 -0.76908651862E+02 -0.64360762773E+01 -0.10763152398E+03  0.21787590221E+03  0.17300000000E+03 0.  1.
         -6    1    1    2    0  503  0.76908651862E+02  0.64360762773E+01 -0.44714386119E+03  0.48561609982E+03  0.17300000000E+03 0.  1.
</event>
<event>
 4    1  0.6132688E+000  0.1000000E+03  0.7546771E-02  0.1280296E+00
         21   -1    0    0  501  502  0.00000000000E+00  0.00000000000E+00  0.11860183504E+03  0.11860183504E+03  0.00000000000E+00 0.  1.
         21   -1    0    0  502  503 -0.00000000000E+00 -0.00000000000E+00 -0.34660162752E+03  0.34660162752E+03  0.00000000000E+00 0. -1.
          6    1    1    2  501    0  0.63969846288E+02  0.42121285390E+02 -0.30383587146E+02  0.19162073553E+03  0.17300000000E+03 0.  1.
         -6    1    1    2    0  503 -0.63969846288E+02 -0.42121285390E+02 -0.19761620534E+03  0.27358272703E+03  0.17300000000E+03 0.  1.
</event>
<event>
 4    1  0.6132688E+000  0.1000000E+03  0.7546771E-02  0.1280296E+00
         21   -1    0    0  503  502  0.00000000000E+00  0.00000000000E+00  0.51877080225E+03  0.51877080225E+03  0.00000000000E+00 0. -1.
         21   -1    0    0  501  503 -0.00000000000E+00 -0.00000000000E+00 -0.17435363516E+03  0.17435363516E+03  0.00000000000E+00 0.  1.
          6    1    1    2  501    0 -0.13876968101E+03 -0.17837809435E+03  0.60219812991E+02  0.29091441145E+03  0.17300000000E+03 0.  1.
         -6    1    1    2    0  502  0.13876968101E+03  0.17837809435E+03  0.28419735410E+03  0.40221002597E+03  0.17300000000E+03 0. -1.
</event>
<event>
 4    1  0.6132688E+000  0.1000000E+03  0.7546771E-02  0.1280296E+00
         21   -1    0    0  503  502  0.00000000000E+00  0.00000000000E+00  0.55785780132E+02  0.55785780132E+02  0.00000000000E+00 0. -1.
         21   -1    0    0  501  503 -0.00000000000E+00 -0.00000000000E+00 -0.60807919872E+03  0.60807919872E+03  0.00000000000E+00 0.  1.
          6    1    1    2  501    0 -0.55340312800E+02 -0.24894741299E+02 -0.24437063687E+03  0.30549681918E+03  0.17300000000E+03 0.  1.
         -6    1    1    2    0  502  0.55340312800E+02  0.24894741299E+02 -0.30792278172E+03  0.35836815967E+03  0.17300000000E+03 0. -1.
</event>
<event>
 4    1  0.6132688E+000  0.1000000E+03  0.7546771E-02  0.1280296E+00
         21   -1    0    0  501  502  0.00000000000E+00  0.00000000000E+00  0.23564550792E+03  0.23564550792E+03  0.00000000000E+00 0.  1.
         21   -1    0    0  502  503 -0.00000000000E+00 -0.00000000000E+00 -0.28465726316E+03  0.28465726316E+03  0.00000000000E+00 0. -1.
          6    1    1    2  501    0  0.14965776551E+02 -0.26732508366E+02  0.16663488291E+03  0.24214620722E+03  0.17300000000E+03 0.  1.
         -6    1    1    2    0  503 -0.14965776551E+02  0.26732508366E+02 -0.21564663815E+03  0.27815656385E+03  0.17300000000E+03 0. -1.
</event>
<event>
 4    1  0.6132688E+000  0.1000000E+03  0.7546771E-02  0.1280296E+00
         21   -1    0    0  501  502  0.00000000000E+00  0.00000000000E+00  0.73758492610E+03  0.73758492610E+03  0.00000000000E+00 0.  1.
         21   -1    0    0  502  503 -0.00000000000E+00 -0.00000000000E+00 -0.45053410394E+02  0.45053410394E+02  0.00000000000E+00 0. -1.
          6    1    1    2  501    0  0.14558198345E+02  0.47201773586E+01  0.46515791672E+03  0.49652301930E+03  0.17300000000E+03 0.  1.
         -6    1    1    2    0  503 -0.14558198345E+02 -0.47201773586E+01  0.22737359899E+03  0.28611531719E+03  0.17300000000E+03 0. -1.
</event>
<event>
 4    1  0.6132688E+000  0.1000000E+03  0.7546771E-02  0.1280296E+00
         21   -1    0    0  501  502  0.00000000000E+00  0.00000000000E+00  0.77512988169E+02  0.77512988169E+02  0.00000000000E+00 0.  1.
         21   -1    0    0  502  503 -0.00000000000E+00 -0.00000000000E+00 -0.58368133228E+03  0.58368133228E+03  0.00000000000E+00 0. -1.
          6    1    1    2  501    0 -0.59400227012E+02 -0.50821731875E+02 -0.10398322519E+03  0.21645495264E+03  0.17300000000E+03 0.  1.
         -6    1    1    2    0  503  0.59400227012E+02  0.50821731875E+02 -0.40218511893E+03  0.44473936782E+03  0.17300000000E+03 0. -1.
</event>
<event>
 4    1  0.6132688E+000  0.1000000E+03  0.7546771E-02  0.1280296E+00
         21   -1    0    0  501  502  0.00000000000E+00  0.00000000000E+00  0.24106909402E+03  0.24106909402E+03  0.00000000000E+00 0. -1.
         21   -1    0    0  502  503 -0.00000000000E+00 -0.00000000000E+00 -0.23267934483E+03  0.23267934483E+03  0.00000000000E+00 0. -1.
          6    1    1    2  501    0 -0.12553990067E+03 -0.58458906360E+02 -0.79395075807E+02  0.23539390063E+03  0.17300000000E+03 0. -1.
         -6    1    1    2    0  503  0.12553990067E+03  0.58458906360E+02  0.87784824993E+02  0.23835453822E+03  0.17300000000E+03 0. -1.
</event>
<event>
 4    1  0.6132688E+000  0.1000000E+03  0.7546771E-02  0.1280296E+00
         21   -1    0    0  501  502  0.00000000000E+00  0.00000000000E+00  0.42907525782E+03  0.42907525782E+03  0.00000000000E+00 0. -1.
         21   -1    0    0  502  503 -0.00000000000E+00 -0.00000000000E+00 -0.81221336622E+03  0.81221336622E+03  0.00000000000E+00 0. -1.
          6    1    1    2  501    0 -0.50291572432E+03  0.20964236175E+03 -0.36706661459E+02  0.57284424113E+03  0.17300000000E+03 0. -1.
         -6    1    1    2    0  503  0.50291572432E+03 -0.20964236175E+03 -0.34643144695E+03  0.66844438291E+03  0.17300000000E+03 0. -1.
</event>
<event>
 4    1  0.6132688E+000  0.1000000E+03  0.7546771E-02  0.1280296E+00
         21   -1    0    0  501  502  0.00000000000E+00  0.00000000000E+00  0.98519346205E+02  0.98519346205E+02  0.00000000000E+00 0. -1.
         21   -1    0    0  502  503 -0.00000000000E+00 -0.00000000000E+00 -0.35851573390E+03  0.35851573390E+03  0.00000000000E+00 0. -1.
          6    1    1    2  501    0  0.14971202232E+02 -0.70419220367E+02 -0.11243112066E+03  0.21852404990E+03  0.17300000000E+03 0. -1.
         -6    1    1    2    0  503 -0.14971202232E+02  0.70419220367E+02 -0.14756526704E+03  0.23851103021E+03  0.17300000000E+03 0. -1.
</event>
<event>
 4    1  0.6132688E+000  0.1000000E+03  0.7546771E-02  0.1280296E+00
         21   -1    0    0  501  502  0.00000000000E+00  0.00000000000E+00  0.20884666119E+03  0.20884666119E+03  0.00000000000E+00 0. -1.
         21   -1    0    0  502  503 -0.00000000000E+00 -0.00000000000E+00 -0.18709451668E+03  0.18709451668E+03  0.00000000000E+00 0. -1.
          6    1    1    2  501    0  0.41363301384E+02  0.16726142954E+02  0.95587565169E+02  0.20262445355E+03  0.17300000000E+03 0. -1.
         -6    1    1    2    0  503 -0.41363301384E+02 -0.16726142954E+02 -0.73835420666E+02  0.19331672433E+03  0.17300000000E+03 0. -1.
</event>
<event>
 4    1  0.6132688E+000  0.1000000E+03  0.7546771E-02  0.1280296E+00
         21   -1    0    0  503  502  0.00000000000E+00  0.00000000000E+00  0.37560123028E+02  0.37560123028E+02  0.00000000000E+00 0. -1.
         21   -1    0    0  501  503 -0.00000000000E+00 -0.00000000000E+00 -0.17216593502E+04  0.17216593502E+04  0.00000000000E+00 0. -1.
          6    1    1    2  501    0 -0.45651449470E+02  0.17277584687E+03 -0.10251225346E+04  0.10548652801E+04  0.17300000000E+03 0. -1.
         -6    1    1    2    0  502  0.45651449470E+02 -0.17277584687E+03 -0.65897669258E+03  0.70435419319E+03  0.17300000000E+03 0. -1.
</event>
<event>
 4    1  0.6132688E+000  0.1000000E+03  0.7546771E-02  0.1280296E+00
         21   -1    0    0  503  502  0.00000000000E+00  0.00000000000E+00  0.69923186463E+03  0.69923186463E+03  0.00000000000E+00 0.  1.
         21   -1    0    0  501  503 -0.00000000000E+00 -0.00000000000E+00 -0.49304540467E+03  0.49304540467E+03  0.00000000000E+00 0. -1.
          6    1    1    2  501    0  0.17145565969E+03 -0.44439831804E+03 -0.19798502950E+03  0.54407166827E+03  0.17300000000E+03 0. -1.
         -6    1    1    2    0  502 -0.17145565969E+03  0.44439831804E+03  0.40417148946E+03  0.64820560103E+03  0.17300000000E+03 0.  1.
</event>
<event>
 4    1  0.6132688E+000  0.1000000E+03  0.7546771E-02  0.1280296E+00
         21   -1    0    0  503  502  0.00000000000E+00  0.00000000000E+00  0.13728252970E+04  0.13728252970E+04  0.00000000000E+00 0.  1.
         21   -1    0    0  501  503 -0.00000000000E+00 -0.00000000000E+00 -0.45406359057E+02  0.45406359057E+02  0.00000000000E+00 0. -1.
          6    1    1    2  501    0  0.11161999395E+02  0.10118208011E+03  0.24202033271E+03  0.31442844180E+03  0.17300000000E+03 0. -1.
         -6    1    1    2    0  502 -0.11161999395E+02 -0.10118208011E+03  0.10853986052E+04  0.11038032143E+04  0.17300000000E+03 0.  1.
</event>
<event>
 4    1  0.6132688E+000  0.1000000E+03  0.7546771E-02  0.1280296E+00
         21   -1    0    0  501  502  0.00000000000E+00  0.00000000000E+00  0.25235778774E+03  0.25235778774E+03  0.00000000000E+00 0.  1.
         21   -1    0    0  502  503 -0.00000000000E+00 -0.00000000000E+00 -0.22755343295E+03  0.22755343295E+03  0.00000000000E+00 0.  1.
          6    1    1    2  501    0 -0.14483749163E+03 -0.41269486953E+02 -0.57079532369E+02  0.23636442742E+03  0.17300000000E+03 0.  1.
         -6    1    1    2    0  503  0.14483749163E+03  0.41269486953E+02  0.81883887158E+02  0.24354679327E+03  0.17300000000E+03 0.  1.
</event>
<event>
 4    1  0.6132688E+000  0.1000000E+03  0.7546771E-02  0.1280296E+00
         21   -1    0    0  501  502  0.00000000000E+00  0.00000000000E+00  0.16050325624E+04  0.16050325624E+04  0.00000000000E+00 0.  1.
         21   -1    0    0  502  503 -0.00000000000E+00 -0.00000000000E+00 -0.58106021956E+02  0.58106021956E+02  0.00000000000E+00 0.  1.
          6    1    1    2  501    0 -0.18947336562E+03 -0.11853843733E+03  0.45847165418E+03  0.53858775987E+03  0.17300000000E+03 0.  1.
         -6    1    1    2    0  503  0.18947336562E+03  0.11853843733E+03  0.10884548863E+04  0.11245508245E+04  0.17300000000E+03 0.  1.
</event>
<event>
 4    1  0.6132688E+000  0.1000000E+03  0.7546771E-02  0.1280296E+00
         21   -1    0    0  503  502  0.00000000000E+00  0.00000000000E+00  0.15386558214E+03  0.15386558214E+03  0.00000000000E+00 0. -1.
         21   -1    0    0  501  503 -0.00000000000E+00 -0.00000000000E+00 -0.28157722725E+03  0.28157722725E+03  0.00000000000E+00 0. -1.
          6    1    1    2  501    0  0.20186674545E+02 -0.20818156462E+01 -0.18304569551E+03  0.25267877321E+03  0.17300000000E+03 0.  1.
         -6    1    1    2    0  502 -0.20186674545E+02  0.20818156462E+01  0.55334050403E+02  0.18276403618E+03  0.17300000000E+03 0.  1.
</event>
<event>
 4    1  0.6132688E+000  0.1000000E+03  0.7546771E-02  0.1280296E+00
         21   -1    0    0  501  502  0.00000000000E+00  0.00000000000E+00  0.12123646665E+03  0.12123646665E+03  0.00000000000E+00 0.  1.
         21   -1    0    0  502  503 -0.00000000000E+00 -0.00000000000E+00 -0.33710407110E+03  0.33710407110E+03  0.00000000000E+00 0. -1.
          6    1    1    2  501    0  0.68729908044E+02 -0.54199042141E+02 -0.43021297855E+02  0.19859800729E+03  0.17300000000E+03 0.  1.
         -6    1    1    2    0  503 -0.68729908044E+02  0.54199042141E+02 -0.17284630659E+03  0.25974253046E+03  0.17300000000E+03 0. -1.
</event>
<event>
 4    1  0.6132688E+000  0.1000000E+03  0.7546771E-02  0.1280296E+00
         21   -1    0    0  501  502  0.00000000000E+00  0.00000000000E+00  0.17567130512E+03  0.17567130512E+03  0.00000000000E+00 0.  1.
         21   -1    0    0  502  503 -0.00000000000E+00 -0.00000000000E+00 -0.38011156582E+03  0.38011156582E+03  0.00000000000E+00 0. -1.
          6    1    1    2  501    0  0.13310106214E+03 -0.12595526939E+03 -0.40771019572E+02  0.25528787411E+03  0.17300000000E+03 0.  1.
         -6    1    1    2    0  503 -0.13310106214E+03  0.12595526939E+03 -0.16366924113E+03  0.30049499683E+03  0.17300000000E+03 0. -1.
</event>
<event>
 4    1  0.6132688E+000  0.1000000E+03  0.7546771E-02  0.1280296E+00
         21   -1    0    0  501  502  0.00000000000E+00  0.00000000000E+00  0.93597374209E+02  0.93597374209E+02  0.00000000000E+00 0.  1.
         21   -1    0    0  502  503 -0.00000000000E+00 -0.00000000000E+00 -0.60272294736E+03  0.60272294736E+03  0.00000000000E+00 0. -1.
          6    1    1    2  501    0  0.70702263233E+02  0.33895427498E+02 -0.45523802034E+02  0.19531801397E+03  0.17300000000E+03 0.  1.
         -6    1    1    2    0  503 -0.70702263233E+02 -0.33895427498E+02 -0.46360177111E+03  0.50100230759E+03  0.17300000000E+03 0. -1.
</event>
<event>
 4    1  0.6132688E+000  0.1000000E+03  0.7546771E-02  0.1280296E+00
         21   -1    0    0  501  502  0.00000000000E+00  0.00000000000E+00  0.13090600065E+03  0.13090600065E+03  0.00000000000E+00 0.  1.
         21   -1    0    0  502  503 -0.00000000000E+00 -0.00000000000E+00 -0.51769899160E+03  0.51769899160E+03  0.00000000000E+00 0. -1.
          6    1    1    2  501    0  0.14585814413E+03  0.12853915653E+03 -0.18513389890E+03  0.31937512973E+03  0.17300000000E+03 0.  1.
         -6    1    1    2    0  503 -0.14585814413E+03 -0.12853915653E+03 -0.20165909205E+03  0.32922986252E+03  0.17300000000E+03 0. -1.
</event>
<event>
 4    1  0.6132688E+000  0.1000000E+03  0.7546771E-02  0.1280296E+00
         21   -1    0    0  501  502  0.00000000000E+00  0.00000000000E+00  0.17045198798E+04  0.17045198798E+04  0.00000000000E+00 0.  1.
         21   -1    0    0  502  503 -0.00000000000E+00 -0.00000000000E+00 -0.51025883270E+02  0.51025883270E+02  0.00000000000E+00 0.  1.
          6    1    1    2  501    0  0.14319249170E+02  0.17274593802E+03  0.13158081605E+04  0.13384043915E+04  0.17300000000E+03 0.  1.
         -6    1    1    2    0  503 -0.14319249170E+02 -0.17274593802E+03  0.33768583600E+03  0.41714137152E+03  0.17300000000E+03 0.  1.
</event>
<event>
 4    1  0.6132688E+000  0.1000000E+03  0.7546771E-02  0.1280296E+00
         21   -1    0    0  503  502  0.00000000000E+00  0.00000000000E+00  0.17737971472E+04  0.17737971472E+04  0.00000000000E+00 0.  1.
         21   -1    0    0  501  503 -0.00000000000E+00 -0.00000000000E+00 -0.37001814131E+02  0.37001814131E+02  0.00000000000E+00 0. -1.
          6    1    1    2  501    0 -0.72255592284E+02 -0.37154986754E+02  0.26549356591E+03  0.32713483030E+03  0.17300000000E+03 0. -1.
         -6    1    1    2    0  502  0.72255592284E+02  0.37154986754E+02  0.14713017672E+04  0.14836641310E+04  0.17300000000E+03 0.  1.
</event>
<event>
 4    1  0.6132688E+000  0.1000000E+03  0.7546771E-02  0.1280296E+00
         21   -1    0    0  503  502  0.00000000000E+00  0.00000000000E+00  0.32275268378E+03  0.32275268378E+03  0.00000000000E+00 0.  1.
         21   -1    0    0  501  503 -0.00000000000E+00 -0.00000000000E+00 -0.17288562077E+03  0.17288562077E+03  0.00000000000E+00 0. -1.
          6    1    1    2  501    0  0.27394178513E+02  0.10846246538E+03 -0.46308903681E+02  0.21115885483E+03  0.17300000000E+03 0. -1.
         -6    1    1    2    0  502 -0.27394178513E+02 -0.10846246538E+03  0.19617596669E+03  0.28447944973E+03  0.17300000000E+03 0.  1.
</event>
<event>
 4    1  0.6132688E+000  0.1000000E+03  0.7546771E-02  0.1280296E+00
         21   -1    0    0  503  502  0.00000000000E+00  0.00000000000E+00  0.59478033145E+02  0.59478033145E+02  0.00000000000E+00 0. -1.
         21   -1    0    0  501  503 -0.00000000000E+00 -0.00000000000E+00 -0.63841558822E+03  0.63841558822E+03  0.00000000000E+00 0.  1.
          6    1    1    2  501    0  0.52080557705E+02  0.43814157868E+02 -0.39404839379E+03  0.43570081658E+03  0.17300000000E+03 0. -1.
         -6    1    1    2    0  502 -0.52080557705E+02 -0.43814157868E+02 -0.18488916129E+03  0.26219280479E+03  0.17300000000E+03 0.  1.
</event>
<event>
 4    1  0.6132688E+000  0.1000000E+03  0.7546771E-02  0.1280296E+00
         21   -1    0    0  503  502  0.00000000000E+00  0.00000000000E+00  0.18580000635E+03  0.18580000635E+03  0.00000000000E+00 0. -1.
         21   -1    0    0  501  503 -0.00000000000E+00 -0.00000000000E+00 -0.82024031670E+03  0.82024031670E+03  0.00000000000E+00 0.  1.
          6    1    1    2  501    0  0.23269339047E+02  0.71431912203E+02 -0.75763793424E+03  0.78076130771E+03  0.17300000000E+03 0. -1.
         -6    1    1    2    0  502 -0.23269339047E+02 -0.71431912203E+02  0.12319762389E+03  0.22527901534E+03  0.17300000000E+03 0.  1.
</event>
<event>
 4    1  0.6132688E+000  0.1000000E+03  0.7546771E-02  0.1280296E+00
         21   -1    0    0  503  502  0.00000000000E+00  0.00000000000E+00  0.17593035802E+04  0.17593035802E+04  0.00000000000E+00 0. -1.
         21   -1    0    0  501  503 -0.00000000000E+00 -0.00000000000E+00 -0.29216385179E+02  0.29216385179E+02  0.00000000000E+00 0.  1.
          6    1    1    2  501    0 -0.14638250707E+03  0.61844124224E+01  0.85587280773E+03  0.88538881196E+03  0.17300000000E+03 0. -1.
         -6    1    1    2    0  502  0.14638250707E+03 -0.61844124224E+01  0.87421438731E+03  0.90313115344E+03  0.17300000000E+03 0.  1.
</event>
<event>
 4    1  0.6132688E+000  0.1000000E+03  0.7546771E-02  0.1280296E+00
         21   -1    0    0  503  502  0.00000000000E+00  0.00000000000E+00  0.11410563734E+04  0.11410563734E+04  0.00000000000E+00 0. -1.
         21   -1    0    0  501  503 -0.00000000000E+00 -0.00000000000E+00 -0.27345181516E+02  0.27345181516E+02  0.00000000000E+00 0.  1.
          6    1    1    2  501    0  0.27095613784E+02  0.17051038948E+02  0.50472209443E+03  0.53450753299E+03  0.17300000000E+03 0. -1.
         -6    1    1    2    0  502 -0.27095613784E+02 -0.17051038948E+02  0.60898909743E+03  0.63389402190E+03  0.17300000000E+03 0.  1.
</event>
<event>
 4    1  0.6132688E+000  0.1000000E+03  0.7546771E-02  0.1280296E+00
         21   -1    0    0  503  502  0.00000000000E+00  0.00000000000E+00  0.46725456665E+03  0.46725456665E+03  0.00000000000E+00 0.  1.
         21   -1    0    0  501  503 -0.00000000000E+00 -0.00000000000E+00 -0.91831392763E+02  0.91831392763E+02  0.00000000000E+00 0. -1.
          6    1    1    2  501    0 -0.71570350787E+01 -0.33225521420E+02  0.40965260504E+02  0.18100362149E+03  0.17300000000E+03 0. -1.
         -6    1    1    2    0  502  0.71570350787E+01  0.33225521420E+02  0.33445791338E+03  0.37808233792E+03  0.17300000000E+03 0.  1.
</event>
<event>
 4    1  0.6132688E+000  0.1000000E+03  0.7546771E-02  0.1280296E+00
         21   -1    0    0  503  502  0.00000000000E+00  0.00000000000E+00  0.38893115973E+03  0.38893115973E+03  0.00000000000E+00 0.  1.
         21   -1    0    0  501  503 -0.00000000000E+00 -0.00000000000E+00 -0.12849538729E+03  0.12849538729E+03  0.00000000000E+00 0. -1.
          6    1    1    2  501    0  0.21277791636E+02  0.11936822884E+03  0.45606988637E+02  0.21612615734E+03  0.17300000000E+03 0. -1.
         -6    1    1    2    0  502 -0.21277791636E+02 -0.11936822884E+03  0.21482878380E+03  0.30130038968E+03  0.17300000000E+03 0.  1.
</event>
<event>
 4    1  0.6132688E+000  0.1000000E+03  0.7546771E-02  0.1280296E+00
         21   -1    0    0  503  502  0.00000000000E+00  0.00000000000E+00  0.24405270441E+03  0.24405270441E+03  0.00000000000E+00 0. -1.
         21   -1    0    0  501  503 -0.00000000000E+00 -0.00000000000E+00 -0.14909987681E+03  0.14909987681E+03  0.00000000000E+00 0. -1.
          6    1    1    2  501    0  0.53210545661E+02  0.60168807809E+02  0.44639139700E+02  0.19589104215E+03  0.17300000000E+03 0. -1.
         -6    1    1    2    0  502 -0.53210545661E+02 -0.60168807809E+02  0.50313687904E+02  0.19726153906E+03  0.17300000000E+03 0. -1.
</event>
<event>
 4    1  0.6132688E+000  0.1000000E+03  0.7546771E-02  0.1280296E+00
         21   -1    0    0  503  502  0.00000000000E+00  0.00000000000E+00  0.33701277446E+03  0.33701277446E+03  0.00000000000E+00 0. -1.
         21   -1    0    0  501  503 -0.00000000000E+00 -0.00000000000E+00 -0.19733850637E+03  0.19733850637E+03  0.00000000000E+00 0. -1.
          6    1    1    2  501    0  0.12409713560E+03 -0.67960341390E+02 -0.63475178430E+02  0.23232908845E+03  0.17300000000E+03 0. -1.
         -6    1    1    2    0  502 -0.12409713560E+03  0.67960341390E+02  0.20314944651E+03  0.30202219237E+03  0.17300000000E+03 0. -1.
</event>
<event>
 4    1  0.6132688E+000  0.1000000E+03  0.7546771E-02  0.1280296E+00
         21   -1    0    0  503  502  0.00000000000E+00  0.00000000000E+00  0.28392218574E+04  0.28392218574E+04  0.00000000000E+00 0. -1.
         21   -1    0    0  501  503 -0.00000000000E+00 -0.00000000000E+00 -0.11719786627E+02  0.11719786627E+02  0.00000000000E+00 0. -1.
          6    1    1    2  501    0  0.30648051453E+02  0.11833124854E+02  0.10417017465E+04  0.10564804090E+04  0.17300000000E+03 0. -1.
         -6    1    1    2    0  502 -0.30648051453E+02 -0.11833124854E+02  0.17858003243E+04  0.17944612351E+04  0.17300000000E+03 0. -1.
</event>
<event>
 4    1  0.6132688E+000  0.1000000E+03  0.7546771E-02  0.1280296E+00
         21   -1    0    0  501  502  0.00000000000E+00  0.00000000000E+00  0.40967951213E+03  0.40967951213E+03  0.00000000000E+00 0. -1.
         21   -1    0    0  502  503 -0.00000000000E+00 -0.00000000000E+00 -0.85335850532E+02  0.85335850532E+02  0.00000000000E+00 0. -1.
          6    1    1    2  501    0  0.79984222303E+01  0.28325694634E+02  0.24760172308E+03  0.30348300283E+03  0.17300000000E+03 0. -1.
         -6    1    1    2    0  503 -0.79984222303E+01 -0.28325694634E+02  0.76741938515E+02  0.19153235983E+03  0.17300000000E+03 0. -1.
</event>
<event>
 4    1  0.6132688E+000  0.1000000E+03  0.7546771E-02  0.1280296E+00
         21   -1    0    0  501  502  0.00000000000E+00  0.00000000000E+00  0.54205699041E+03  0.54205699041E+03  0.00000000000E+00 0.  1.
         21   -1    0    0  502  503 -0.00000000000E+00 -0.00000000000E+00 -0.12531325816E+03  0.12531325816E+03  0.00000000000E+00 0. -1.
          6    1    1    2  501    0 -0.11454422609E+03  0.10465004269E+03  0.35945909388E+03  0.42803253537E+03  0.17300000000E+03 0. -1.
         -6    1    1    2    0  503  0.11454422609E+03 -0.10465004269E+03  0.57284638375E+02  0.23933771320E+03  0.17300000000E+03 0.  1.
</event>
<event>
 4    1  0.6132688E+000  0.1000000E+03  0.7546771E-02  0.1280296E+00
         21   -1    0    0  501  502  0.00000000000E+00  0.00000000000E+00  0.67444845307E+02  0.67444845307E+02  0.00000000000E+00 0.  1.
         21   -1    0    0  502  503 -0.00000000000E+00 -0.00000000000E+00 -0.16371973956E+04  0.16371973956E+04  0.00000000000E+00 0. -1.
          6    1    1    2  501    0  0.18520445226E+03  0.15135918646E+03 -0.39351186305E+03  0.49192568425E+03  0.17300000000E+03 0. -1.
         -6    1    1    2    0  503 -0.18520445226E+03 -0.15135918646E+03 -0.11762406873E+04  0.12127165567E+04  0.17300000000E+03 0.  1.
</event>
<event>
 4    1  0.6132688E+000  0.1000000E+03  0.7546771E-02  0.1280296E+00
         21   -1    0    0  501  502  0.00000000000E+00  0.00000000000E+00  0.46198348310E+03  0.46198348310E+03  0.00000000000E+00 0.  1.
         21   -1    0    0  502  503 -0.00000000000E+00 -0.00000000000E+00 -0.20269024550E+03  0.20269024550E+03  0.00000000000E+00 0.  1.
          6    1    1    2  501    0 -0.21717266265E+03  0.12779503634E+03  0.11372170537E+03  0.32612445935E+03  0.17300000000E+03 0.  1.
         -6    1    1    2    0  503  0.21717266265E+03 -0.12779503634E+03  0.14557153224E+03  0.33854926925E+03  0.17300000000E+03 0.  1.
</event>
<event>
 4    1  0.6132688E+000  0.1000000E+03  0.7546771E-02  0.1280296E+00
         21   -1    0    0  503  502  0.00000000000E+00  0.00000000000E+00  0.38542529296E+03  0.38542529296E+03  0.00000000000E+00 0. -1.
         21   -1    0    0  501  503 -0.00000000000E+00 -0.00000000000E+00 -0.34185049704E+03  0.34185049704E+03  0.00000000000E+00 0. -1.
          6    1    1    2  501    0  0.24412255738E+03 -0.14632316848E+03 -0.12277246415E+03  0.35497657755E+03  0.17300000000E+03 0. -1.
         -6    1    1    2    0  502 -0.24412255738E+03  0.14632316848E+03  0.16634726006E+03  0.37229921245E+03  0.17300000000E+03 0. -1.
</event>
<event>
 4    1  0.6132688E+000  0.1000000E+03  0.7546771E-02  0.1280296E+00
         21   -1    0    0  503  502  0.00000000000E+00  0.00000000000E+00  0.30906292062E+03  0.30906292062E+03  0.00000000000E+00 0. -1.
         21   -1    0    0  501  503 -0.00000000000E+00 -0.00000000000E+00 -0.12953618690E+03  0.12953618690E+03  0.00000000000E+00 0. -1.
          6    1    1    2  501    0  0.52529940517E+02 -0.40530234172E+02  0.69884954588E+01  0.18541826663E+03  0.17300000000E+03 0. -1.
         -6    1    1    2    0  502 -0.52529940517E+02  0.40530234172E+02  0.17253823826E+03  0.25318084089E+03  0.17300000000E+03 0. -1.
</event>
<event>
 4    1  0.6132688E+000  0.1000000E+03  0.7546771E-02  0.1280296E+00
         21   -1    0    0  501  502  0.00000000000E+00  0.00000000000E+00  0.16240786231E+03  0.16240786231E+03  0.00000000000E+00 0.  1.
         21   -1    0    0  502  503 -0.00000000000E+00 -0.00000000000E+00 -0.98483898028E+03  0.98483898028E+03  0.00000000000E+00 0.  1.
          6    1    1    2  501    0  0.35182926891E+02  0.18318506584E+02  0.10282368105E+03  0.20512219630E+03  0.17300000000E+03 0.  1.
         -6    1    1    2    0  503 -0.35182926891E+02 -0.18318506584E+02 -0.92525479902E+03  0.94212464629E+03  0.17300000000E+03 0.  1.
</event>
<event>
 4    1  0.6132688E+000  0.1000000E+03  0.7546771E-02  0.1280296E+00
         21   -1    0    0  501  502  0.00000000000E+00  0.00000000000E+00  0.12972890841E+03  0.12972890841E+03  0.00000000000E+00 0.  1.
         21   -1    0    0  502  503 -0.00000000000E+00 -0.00000000000E+00 -0.24065358240E+03  0.24065358240E+03  0.00000000000E+00 0.  1.
          6    1    1    2  501    0 -0.17093365303E+02 -0.26934117586E+02 -0.38141688488E+02  0.18000393948E+03  0.17300000000E+03 0.  1.
         -6    1    1    2    0  503  0.17093365303E+02  0.26934117586E+02 -0.72782985500E+02  0.19037855133E+03  0.17300000000E+03 0.  1.
</event>
<event>
 4    1  0.6132688E+000  0.1000000E+03  0.7546771E-02  0.1280296E+00
         21   -1    0    0  501  502  0.00000000000E+00  0.00000000000E+00  0.20075501425E+03  0.20075501425E+03  0.00000000000E+00 0.  1.
         21   -1    0    0  502  503 -0.00000000000E+00 -0.00000000000E+00 -0.26360490284E+03  0.26360490284E+03  0.00000000000E+00 0.  1.
          6    1    1    2  501    0 -0.14829195230E+03  0.14427919959E+02 -0.30150224382E+01  0.22833475064E+03  0.17300000000E+03 0.  1.
         -6    1    1    2    0  503  0.14829195230E+03 -0.14427919959E+02 -0.59834866155E+02  0.23602516645E+03  0.17300000000E+03 0.  1.
</event>
<event>
 4    1  0.6132688E+000  0.1000000E+03  0.7546771E-02  0.1280296E+00
         21   -1    0    0  501  502  0.00000000000E+00  0.00000000000E+00  0.13237339952E+03  0.13237339952E+03  0.00000000000E+00 0.  1.
         21   -1    0    0  502  503 -0.00000000000E+00 -0.00000000000E+00 -0.34401500769E+03  0.34401500769E+03  0.00000000000E+00 0.  1.
          6    1    1    2  501    0  0.11316381130E+03 -0.18302530499E+02 -0.50364571386E+02  0.21355706699E+03  0.17300000000E+03 0.  1.
         -6    1    1    2    0  503 -0.11316381130E+03  0.18302530499E+02 -0.16127703678E+03  0.26283134022E+03  0.17300000000E+03 0.  1.
</event>
<event>
 4    1  0.6132688E+000  0.1000000E+03  0.7546771E-02  0.1280296E+00
         21   -1    0    0  503  502  0.00000000000E+00  0.00000000000E+00  0.23633505207E+02  0.23633505207E+02  0.00000000000E+00 0.  1.
         21   -1    0    0  501  503 -0.00000000000E+00 -0.00000000000E+00 -0.14586688749E+04  0.14586688749E+04  0.00000000000E+00 0.  1.
          6    1    1    2  501    0  0.40730909199E+01  0.32357575733E+02 -0.48200874847E+03  0.51315205970E+03  0.17300000000E+03 0.  1.
         -6    1    1    2    0  502 -0.40730909199E+01 -0.32357575733E+02 -0.95302662121E+03  0.96915032039E+03  0.17300000000E+03 0.  1.
</event>
<event>
 4    1  0.6132688E+000  0.1000000E+03  0.7546771E-02  0.1280296E+00
         21   -1    0    0  503  502  0.00000000000E+00  0.00000000000E+00  0.17041280087E+03  0.17041280087E+03  0.00000000000E+00 0.  1.
         21   -1    0    0  501  503 -0.00000000000E+00 -0.00000000000E+00 -0.91650524111E+03  0.91650524111E+03  0.00000000000E+00 0.  1.
          6    1    1    2  501    0  0.25007445209E+03  0.46108503057E+01 -0.72010800786E+03  0.78169241682E+03  0.17300000000E+03 0.  1.
         -6    1    1    2    0  502 -0.25007445209E+03 -0.46108503057E+01 -0.25984432376E+02  0.30522562516E+03  0.17300000000E+03 0.  1.
</event>
<event>
 4    1  0.6132688E+000  0.1000000E+03  0.7546771E-02  0.1280296E+00
         21   -1    0    0  503  502  0.00000000000E+00  0.00000000000E+00  0.29961541198E+03  0.29961541198E+03  0.00000000000E+00 0.  1.
         21   -1    0    0  501  503 -0.00000000000E+00 -0.00000000000E+00 -0.16215426280E+03  0.16215426280E+03  0.00000000000E+00 0.  1.
          6    1    1    2  501    0  0.19090669386E+01  0.83864999886E+01 -0.74054553091E+02  0.18838008056E+03  0.17300000000E+03 0.  1.
         -6    1    1    2    0  502 -0.19090669386E+01 -0.83864999886E+01  0.21151570227E+03  0.27338959422E+03  0.17300000000E+03 0.  1.
</event>
<event>
 4    1  0.6132688E+000  0.1000000E+03  0.7546771E-02  0.1280296E+00
         21   -1    0    0  503  502  0.00000000000E+00  0.00000000000E+00  0.36620832758E+02  0.36620832758E+02  0.00000000000E+00 0. -1.
         21   -1    0    0  501  503 -0.00000000000E+00 -0.00000000000E+00 -0.29986010555E+04  0.29986010555E+04  0.00000000000E+00 0. -1.
          6    1    1    2  501    0 -0.14618569138E+03 -0.65085295317E+02 -0.25479315350E+04  0.25588064521E+04  0.17300000000E+03 0. -1.
         -6    1    1    2    0  502  0.14618569138E+03  0.65085295317E+02 -0.41404868774E+03  0.47641543621E+03  0.17300000000E+03 0. -1.
</event>
<event>
 4    1  0.6132688E+000  0.1000000E+03  0.7546771E-02  0.1280296E+00
         21   -1    0    0  503  502  0.00000000000E+00  0.00000000000E+00  0.28725039125E+03  0.28725039125E+03  0.00000000000E+00 0. -1.
         21   -1    0    0  501  503 -0.00000000000E+00 -0.00000000000E+00 -0.30628048751E+03  0.30628048751E+03  0.00000000000E+00 0. -1.
          6    1    1    2  501    0 -0.80874583624E+01  0.96041843798E+02 -0.23044699470E+03  0.30384907456E+03  0.17300000000E+03 0. -1.
         -6    1    1    2    0  502  0.80874583624E+01 -0.96041843798E+02  0.21141689844E+03  0.28968180421E+03  0.17300000000E+03 0. -1.
</event>
<event>
 4    1  0.6132688E+000  0.1000000E+03  0.7546771E-02  0.1280296E+00
         21   -1    0    0  503  502  0.00000000000E+00  0.00000000000E+00  0.16024021648E+04  0.16024021648E+04  0.00000000000E+00 0. -1.
         21   -1    0    0  501  503 -0.00000000000E+00 -0.00000000000E+00 -0.60415478933E+02  0.60415478933E+02  0.00000000000E+00 0. -1.
          6    1    1    2  501    0  0.44938511374E+02  0.12639540731E+03  0.18018673580E+03  0.28353399893E+03  0.17300000000E+03 0. -1.
         -6    1    1    2    0  502 -0.44938511374E+02 -0.12639540731E+03  0.13617999500E+04  0.13792836448E+04  0.17300000000E+03 0. -1.
</event>
<event>
 4    1  0.6132688E+000  0.1000000E+03  0.7546771E-02  0.1280296E+00
         21   -1    0    0  503  502  0.00000000000E+00  0.00000000000E+00  0.47087333426E+03  0.47087333426E+03  0.00000000000E+00 0.  1.
         21   -1    0    0  501  503 -0.00000000000E+00 -0.00000000000E+00 -0.38936408782E+03  0.38936408782E+03  0.00000000000E+00 0.  1.
          6    1    1    2  501    0  0.27418141650E+02  0.35174269873E+03 -0.13012439397E+03  0.41392757640E+03  0.17300000000E+03 0.  1.
         -6    1    1    2    0  502 -0.27418141650E+02 -0.35174269873E+03  0.21163364041E+03  0.44630984568E+03  0.17300000000E+03 0.  1.
</event>
<event>
 4    1  0.6132688E+000  0.1000000E+03  0.7546771E-02  0.1280296E+00
         21   -1    0    0  503  502  0.00000000000E+00  0.00000000000E+00  0.42919617731E+03  0.42919617731E+03  0.00000000000E+00 0.  1.
         21   -1    0    0  501  503 -0.00000000000E+00 -0.00000000000E+00 -0.10840642469E+03  0.10840642469E+03  0.00000000000E+00 0.  1.
          6    1    1    2  501    0 -0.49401004791E+02  0.61419302058E+01  0.12313631838E+02  0.18044059441E+03  0.17300000000E+03 0.  1.
         -6    1    1    2    0  502  0.49401004791E+02 -0.61419302058E+01  0.30847612078E+03  0.35716200760E+03  0.17300000000E+03 0.  1.
</event>
<event>
 4    1  0.6132688E+000  0.1000000E+03  0.7546771E-02  0.1280296E+00
         21   -1    0    0  503  502  0.00000000000E+00  0.00000000000E+00  0.12058625048E+04  0.12058625048E+04  0.00000000000E+00 0. -1.
         21   -1    0    0  501  503 -0.00000000000E+00 -0.00000000000E+00 -0.14732251470E+03  0.14732251470E+03  0.00000000000E+00 0. -1.
          6    1    1    2  501    0 -0.72488361289E+02  0.44771603665E+01 -0.76587545700E+02  0.20265551965E+03  0.17300000000E+03 0. -1.
         -6    1    1    2    0  502  0.72488361289E+02 -0.44771603665E+01  0.11351275358E+04  0.11505294999E+04  0.17300000000E+03 0. -1.
</event>
<event>
 4    1  0.6132688E+000  0.1000000E+03  0.7546771E-02  0.1280296E+00
         21   -1    0    0  501  502  0.00000000000E+00  0.00000000000E+00  0.74631937882E+02  0.74631937882E+02  0.00000000000E+00 0.  1.
         21   -1    0    0  502  503 -0.00000000000E+00 -0.00000000000E+00 -0.45891905039E+03  0.45891905039E+03  0.00000000000E+00 0.  1.
          6    1    1    2  501    0 -0.14368873878E+02  0.61684303553E+02 -0.16677964874E+03  0.24850728173E+03  0.17300000000E+03 0. -1.
         -6    1    1    2    0  503  0.14368873878E+02 -0.61684303553E+02 -0.21750746377E+03  0.28504370654E+03  0.17300000000E+03 0. -1.
</event>
<event>
 4    1  0.6132688E+000  0.1000000E+03  0.7546771E-02  0.1280296E+00
         21   -1    0    0  501  502  0.00000000000E+00  0.00000000000E+00  0.77366418055E+02  0.77366418055E+02  0.00000000000E+00 0. -1.
         21   -1    0    0  502  503 -0.00000000000E+00 -0.00000000000E+00 -0.58230399039E+03  0.58230399039E+03  0.00000000000E+00 0.  1.
          6    1    1    2  501    0 -0.60958292769E+02 -0.58128669239E+02 -0.39169477165E+03  0.43640422751E+03  0.17300000000E+03 0. -1.
         -6    1    1    2    0  503  0.60958292769E+02  0.58128669239E+02 -0.11324280068E+03  0.22326618094E+03  0.17300000000E+03 0.  1.
</event>
<event>
 4    1  0.6132688E+000  0.1000000E+03  0.7546771E-02  0.1280296E+00
         21   -1    0    0  501  502  0.00000000000E+00  0.00000000000E+00  0.18762415839E+03  0.18762415839E+03  0.00000000000E+00 0. -1.
         21   -1    0    0  502  503 -0.00000000000E+00 -0.00000000000E+00 -0.25255357252E+03  0.25255357252E+03  0.00000000000E+00 0.  1.
          6    1    1    2  501    0  0.70383249629E+02 -0.11001334468E+03 -0.52671081163E+02  0.22306945248E+03  0.17300000000E+03 0. -1.
         -6    1    1    2    0  503 -0.70383249629E+02  0.11001334468E+03 -0.12258332969E+02  0.21710827843E+03  0.17300000000E+03 0.  1.
</event>
<event>
 4    1  0.6132688E+000  0.1000000E+03  0.7546771E-02  0.1280296E+00
         21   -1    0    0  501  502  0.00000000000E+00  0.00000000000E+00  0.17944062191E+03  0.17944062191E+03  0.00000000000E+00 0.  1.
         21   -1    0    0  502  503 -0.00000000000E+00 -0.00000000000E+00 -0.17981935607E+03  0.17981935607E+03  0.00000000000E+00 0.  1.
          6    1    1    2  501    0 -0.54828316556E+01  0.47799001058E+02  0.46159595980E+01  0.17962492318E+03  0.17300000000E+03 0.  1.
         -6    1    1    2    0  503  0.54828316556E+01 -0.47799001058E+02 -0.49946937623E+01  0.17963505479E+03  0.17300000000E+03 0.  1.
</event>
<event>
 4    1  0.6132688E+000  0.1000000E+03  0.7546771E-02  0.1280296E+00
         21   -1    0    0  501  502  0.00000000000E+00  0.00000000000E+00  0.54111187233E+03  0.54111187233E+03  0.00000000000E+00 0.  1.
         21   -1    0    0  502  503 -0.00000000000E+00 -0.00000000000E+00 -0.11818048431E+03  0.11818048431E+03  0.00000000000E+00 0.  1.
          6    1    1    2  501    0  0.45192119592E+02  0.10014177527E+02  0.44420624978E+03  0.47894760023E+03  0.17300000000E+03 0.  1.
         -6    1    1    2    0  503 -0.45192119592E+02 -0.10014177527E+02 -0.21274861759E+02  0.18034475642E+03  0.17300000000E+03 0.  1.
</event>
<event>
 4    1  0.6132688E+000  0.1000000E+03  0.7546771E-02  0.1280296E+00
         21   -1    0    0  503  502  0.00000000000E+00  0.00000000000E+00  0.26542994880E+03  0.26542994880E+03  0.00000000000E+00 0. -1.
         21   -1    0    0  501  503 -0.00000000000E+00 -0.00000000000E+00 -0.17433568227E+03  0.17433568227E+03  0.00000000000E+00 0.  1.
          6    1    1    2  501    0  0.57041952011E+02 -0.99943557603E+02 -0.11387029191E+02  0.20808931599E+03  0.17300000000E+03 0. -1.
         -6    1    1    2    0  502 -0.57041952011E+02  0.99943557603E+02  0.10248129573E+03  0.23167631508E+03  0.17300000000E+03 0. -1.
</event>
<event>
 4    1  0.6132688E+000  0.1000000E+03  0.7546771E-02  0.1280296E+00
         21   -1    0    0  503  502  0.00000000000E+00  0.00000000000E+00  0.26521988129E+02  0.26521988129E+02  0.00000000000E+00 0.  1.
         21   -1    0    0  501  503 -0.00000000000E+00 -0.00000000000E+00 -0.15347266508E+04  0.15347266508E+04  0.00000000000E+00 0. -1.
          6    1    1    2  501    0  0.94364815019E+01  0.29175806180E+02 -0.11378137114E+04  0.11512989693E+04  0.17300000000E+03 0. -1.
         -6    1    1    2    0  502 -0.94364815019E+01 -0.29175806180E+02 -0.37039095126E+03  0.40994966962E+03  0.17300000000E+03 0.  1.
</event>
<event>
 4    1  0.6132688E+000  0.1000000E+03  0.7546771E-02  0.1280296E+00
         21   -1    0    0  503  502  0.00000000000E+00  0.00000000000E+00  0.20198015376E+03  0.20198015376E+03  0.00000000000E+00 0. -1.
         21   -1    0    0  501  503 -0.00000000000E+00 -0.00000000000E+00 -0.15348781552E+03  0.15348781552E+03  0.00000000000E+00 0.  1.
          6    1    1    2  501    0  0.20589893402E+02  0.30640828005E+01 -0.12740300877E+01  0.17425256229E+03  0.17300000000E+03 0.  1.
         -6    1    1    2    0  502 -0.20589893402E+02 -0.30640828005E+01  0.49766368328E+02  0.18121540699E+03  0.17300000000E+03 0. -1.
</event>
<event>
 4    1  0.6132688E+000  0.1000000E+03  0.7546771E-02  0.1280296E+00
         21   -1    0    0  503  502  0.00000000000E+00  0.00000000000E+00  0.20257009579E+03  0.20257009579E+03  0.00000000000E+00 0.  1.
         21   -1    0    0  501  503 -0.00000000000E+00 -0.00000000000E+00 -0.26900142920E+03  0.26900142920E+03  0.00000000000E+00 0.  1.
          6    1    1    2  501    0  0.84303119701E+02  0.29435192099E+02 -0.16331207965E+03  0.25411273460E+03  0.17300000000E+03 0.  1.
         -6    1    1    2    0  502 -0.84303119701E+02 -0.29435192099E+02  0.96880746238E+02  0.21745879039E+03  0.17300000000E+03 0.  1.
</event>
<event>
 4    1  0.6132688E+000  0.1000000E+03  0.7546771E-02  0.1280296E+00
         21   -1    0    0  503  502  0.00000000000E+00  0.00000000000E+00  0.83045031005E+02  0.83045031005E+02  0.00000000000E+00 0.  1.
         21   -1    0    0  501  503 -0.00000000000E+00 -0.00000000000E+00 -0.10800914726E+04  0.10800914726E+04  0.00000000000E+00 0.  1.
          6    1    1    2  501    0  0.10539547054E+03  0.54154445915E+02 -0.91376087045E+03  0.93751204663E+03  0.17300000000E+03 0.  1.
         -6    1    1    2    0  502 -0.10539547054E+03 -0.54154445915E+02 -0.83285571147E+02  0.22562445697E+03  0.17300000000E+03 0.  1.
</event>
<event>
 4    1  0.6132688E+000  0.1000000E+03  0.7546771E-02  0.1280296E+00
         21   -1    0    0  503  502  0.00000000000E+00  0.00000000000E+00  0.91766446551E+03  0.91766446551E+03  0.00000000000E+00 0.  1.
         21   -1    0    0  501  503 -0.00000000000E+00 -0.00000000000E+00 -0.18092374189E+03  0.18092374189E+03  0.00000000000E+00 0.  1.
          6    1    1    2  501    0 -0.21400533216E+03  0.11909881108E+03 -0.35514887022E+01  0.29987401032E+03  0.17300000000E+03 0.  1.
         -6    1    1    2    0  502  0.21400533216E+03 -0.11909881108E+03  0.74029221232E+03  0.79871419708E+03  0.17300000000E+03 0.  1.
</event>
<event>
 4    1  0.6132688E+000  0.1000000E+03  0.7546771E-02  0.1280296E+00
         21   -1    0    0  503  502  0.00000000000E+00  0.00000000000E+00  0.58384278178E+02  0.58384278178E+02  0.00000000000E+00 0.  1.
         21   -1    0    0  501  503 -0.00000000000E+00 -0.00000000000E+00 -0.95052864016E+03  0.95052864016E+03  0.00000000000E+00 0.  1.
          6    1    1    2  501    0 -0.38548113385E+02 -0.96049224877E+01 -0.77773488427E+03  0.79773351553E+03  0.17300000000E+03 0.  1.
         -6    1    1    2    0  502  0.38548113385E+02  0.96049224877E+01 -0.11440947771E+03  0.21117940281E+03  0.17300000000E+03 0.  1.
</event>
<event>
 4    1  0.6132688E+000  0.1000000E+03  0.7546771E-02  0.1280296E+00
         21   -1    0    0  501  502  0.00000000000E+00  0.00000000000E+00  0.31728033306E+03  0.31728033306E+03  0.00000000000E+00 0. -1.
         21   -1    0    0  502  503 -0.00000000000E+00 -0.00000000000E+00 -0.10038951357E+03  0.10038951357E+03  0.00000000000E+00 0. -1.
          6    1    1    2  501    0  0.64701285616E+01 -0.36739202785E+02  0.13540909221E+03  0.22283683232E+03  0.17300000000E+03 0. -1.
         -6    1    1    2    0  503 -0.64701285616E+01  0.36739202785E+02  0.81481727275E+02  0.19483301431E+03  0.17300000000E+03 0. -1.
</event>
<event>
 4    1  0.6132688E+000  0.1000000E+03  0.7546771E-02  0.1280296E+00
         21   -1    0    0  501  502  0.00000000000E+00  0.00000000000E+00  0.65155165691E+02  0.65155165691E+02  0.00000000000E+00 0. -1.
         21   -1    0    0  502  503 -0.00000000000E+00 -0.00000000000E+00 -0.15798135078E+04  0.15798135078E+04  0.00000000000E+00 0. -1.
          6    1    1    2  501    0 -0.38546428471E+02  0.23754434801E+03 -0.44240399148E+03  0.53250674746E+03  0.17300000000E+03 0. -1.
         -6    1    1    2    0  503  0.38546428471E+02 -0.23754434801E+03 -0.10722543507E+04  0.11124619261E+04  0.17300000000E+03 0. -1.
</event>
<event>
 4    1  0.6132688E+000  0.1000000E+03  0.7546771E-02  0.1280296E+00
         21   -1    0    0  503  502  0.00000000000E+00  0.00000000000E+00  0.24812818606E+03  0.24812818606E+03  0.00000000000E+00 0. -1.
         21   -1    0    0  501  503 -0.00000000000E+00 -0.00000000000E+00 -0.32806459360E+03  0.32806459360E+03  0.00000000000E+00 0.  1.
          6    1    1    2  501    0 -0.56051491749E+02 -0.74813110697E+02 -0.24870950607E+03  0.31705549935E+03  0.17300000000E+03 0. -1.
         -6    1    1    2    0  502  0.56051491749E+02  0.74813110697E+02  0.16877309853E+03  0.25913728031E+03  0.17300000000E+03 0. -1.
</event>
<event>
 4    1  0.6132688E+000  0.1000000E+03  0.7546771E-02  0.1280296E+00
         21   -1    0    0  503  502  0.00000000000E+00  0.00000000000E+00  0.95314485275E+02  0.95314485275E+02  0.00000000000E+00 0. -1.
         21   -1    0    0  501  503 -0.00000000000E+00 -0.00000000000E+00 -0.55207916700E+03  0.55207916700E+03  0.00000000000E+00 0.  1.
          6    1    1    2  501    0 -0.89620605438E+02  0.10923170502E+03 -0.30209431805E+03  0.37570386649E+03  0.17300000000E+03 0. -1.
         -6    1    1    2    0  502  0.89620605438E+02 -0.10923170502E+03 -0.15467036368E+03  0.27168978578E+03  0.17300000000E+03 0. -1.
</event>
<event>
 4    1  0.6132688E+000  0.1000000E+03  0.7546771E-02  0.1280296E+00
         21   -1    0    0  501  502  0.00000000000E+00  0.00000000000E+00  0.45392490724E+03  0.45392490724E+03  0.00000000000E+00 0. -1.
         21   -1    0    0  502  503 -0.00000000000E+00 -0.00000000000E+00 -0.52019554213E+03  0.52019554213E+03  0.00000000000E+00 0. -1.
          6    1    1    2  501    0 -0.53255985560E+02  0.16499002303E+03  0.38753299530E+03  0.45844163221E+03  0.17300000000E+03 0. -1.
         -6    1    1    2    0  503  0.53255985560E+02 -0.16499002303E+03 -0.45380363019E+03  0.51567881717E+03  0.17300000000E+03 0. -1.
</event>
<event>
 4    1  0.6132688E+000  0.1000000E+03  0.7546771E-02  0.1280296E+00
         21   -1    0    0  501  502  0.00000000000E+00  0.00000000000E+00  0.21421638738E+04  0.21421638738E+04  0.00000000000E+00 0. -1.
         21   -1    0    0  502  503 -0.00000000000E+00 -0.00000000000E+00 -0.70669662339E+02  0.70669662339E+02  0.00000000000E+00 0. -1.
          6    1    1    2  501    0 -0.18339605805E+03  0.14065224594E+03  0.17774970168E+04  0.18007892195E+04  0.17300000000E+03 0.  1.
         -6    1    1    2    0  503  0.18339605805E+03 -0.14065224594E+03  0.29399719469E+03  0.41204431665E+03  0.17300000000E+03 0.  1.
</event>
<event>
 4    1  0.6132688E+000  0.1000000E+03  0.7546771E-02  0.1280296E+00
         21   -1    0    0  501  502  0.00000000000E+00  0.00000000000E+00  0.18809977273E+03  0.18809977273E+03  0.00000000000E+00 0. -1.
         21   -1    0    0  502  503 -0.00000000000E+00 -0.00000000000E+00 -0.47392625874E+03  0.47392625874E+03  0.00000000000E+00 0. -1.
          6    1    1    2  501    0  0.39532177946E+02  0.12884779114E+03  0.81713804793E+02  0.23403139163E+03  0.17300000000E+03 0.  1.
         -6    1    1    2    0  503 -0.39532177946E+02 -0.12884779114E+03 -0.36754029079E+03  0.42799463984E+03  0.17300000000E+03 0.  1.
</event>
<event>
 4    1  0.6132688E+000  0.1000000E+03  0.7546771E-02  0.1280296E+00
         21   -1    0    0  503  502  0.00000000000E+00  0.00000000000E+00  0.62524602856E+02  0.62524602856E+02  0.00000000000E+00 0. -1.
         21   -1    0    0  501  503 -0.00000000000E+00 -0.00000000000E+00 -0.59219160436E+03  0.59219160436E+03  0.00000000000E+00 0. -1.
          6    1    1    2  501    0 -0.38810711733E+02 -0.59100847169E+02 -0.18690311013E+03  0.26431222835E+03  0.17300000000E+03 0. -1.
         -6    1    1    2    0  502  0.38810711733E+02  0.59100847169E+02 -0.34276389138E+03  0.39040397886E+03  0.17300000000E+03 0. -1.
</event>
<event>
 4    1  0.6132688E+000  0.1000000E+03  0.7546771E-02  0.1280296E+00
         21   -1    0    0  501  502  0.00000000000E+00  0.00000000000E+00  0.35590888705E+03  0.35590888705E+03  0.00000000000E+00 0. -1.
         21   -1    0    0  502  503 -0.00000000000E+00 -0.00000000000E+00 -0.34190226458E+03  0.34190226458E+03  0.00000000000E+00 0. -1.
          6    1    1    2  501    0  0.36591706907E+02 -0.19436643077E+03  0.23648317714E+03  0.35351174732E+03  0.17300000000E+03 0. -1.
         -6    1    1    2    0  503 -0.36591706907E+02  0.19436643077E+03 -0.22247655468E+03  0.34429940431E+03  0.17300000000E+03 0. -1.
</event>
<event>
 4    1  0.6132688E+000  0.1000000E+03  0.7546771E-02  0.1280296E+00
         21   -1    0    0  503  502  0.00000000000E+00  0.00000000000E+00  0.15964959064E+03  0.15964959064E+03  0.00000000000E+00 0. -1.
         21   -1    0    0  501  503 -0.00000000000E+00 -0.00000000000E+00 -0.15829306861E+04  0.15829306861E+04  0.00000000000E+00 0. -1.
          6    1    1    2  501    0 -0.77702809881E+02 -0.35758682567E+02 -0.15161667027E+04  0.15284001048E+04  0.17300000000E+03 0. -1.
         -6    1    1    2    0  502  0.77702809881E+02  0.35758682567E+02  0.92885607185E+02  0.21418017197E+03  0.17300000000E+03 0. -1.
</event>
<event>
 4    1  0.6132688E+000  0.1000000E+03  0.7546771E-02  0.1280296E+00
         21   -1    0    0  501  502  0.00000000000E+00  0.00000000000E+00  0.47652247322E+03  0.47652247322E+03  0.00000000000E+00 0. -1.
         21   -1    0    0  502  503 -0.00000000000E+00 -0.00000000000E+00 -0.73435032436E+02  0.73435032436E+02  0.00000000000E+00 0. -1.
          6    1    1    2  501    0 -0.63706480979E+02  0.27677509413E+02  0.17877673323E+03  0.25829185157E+03  0.17300000000E+03 0. -1.
         -6    1    1    2    0  503  0.63706480979E+02 -0.27677509413E+02  0.22431070756E+03  0.29166565408E+03  0.17300000000E+03 0. -1.
</event>
<event>
 4    1  0.6132688E+000  0.1000000E+03  0.7546771E-02  0.1280296E+00
         21   -1    0    0  501  502  0.00000000000E+00  0.00000000000E+00  0.59854598161E+03  0.59854598161E+03  0.00000000000E+00 0. -1.
         21   -1    0    0  502  503 -0.00000000000E+00 -0.00000000000E+00 -0.71965643666E+02  0.71965643666E+02  0.00000000000E+00 0. -1.
          6    1    1    2  501    0  0.64029243755E+01  0.90470802997E+02  0.37659226179E+03  0.42423660295E+03  0.17300000000E+03 0. -1.
         -6    1    1    2    0  503 -0.64029243755E+01 -0.90470802997E+02  0.14998807615E+03  0.24627502233E+03  0.17300000000E+03 0. -1.
</event>
<event>
 4    1  0.6132688E+000  0.1000000E+03  0.7546771E-02  0.1280296E+00
         21   -1    0    0  501  502  0.00000000000E+00  0.00000000000E+00  0.21869599604E+03  0.21869599604E+03  0.00000000000E+00 0. -1.
         21   -1    0    0  502  503 -0.00000000000E+00 -0.00000000000E+00 -0.60208659591E+03  0.60208659591E+03  0.00000000000E+00 0. -1.
          6    1    1    2  501    0 -0.86153899641E+02  0.36524720499E+02  0.15318039012E+03  0.24929857911E+03  0.17300000000E+03 0. -1.
         -6    1    1    2    0  503  0.86153899641E+02 -0.36524720499E+02 -0.53657098998E+03  0.57148401283E+03  0.17300000000E+03 0. -1.
</event>
<event>
 4    1  0.6132688E+000  0.1000000E+03  0.7546771E-02  0.1280296E+00
         21   -1    0    0  501  502  0.00000000000E+00  0.00000000000E+00  0.26266338421E+03  0.26266338421E+03  0.00000000000E+00 0. -1.
         21   -1    0    0  502  503 -0.00000000000E+00 -0.00000000000E+00 -0.28707524063E+03  0.28707524063E+03  0.00000000000E+00 0. -1.
          6    1    1    2  501    0  0.18192408323E+03 -0.53547603145E+02  0.85416964633E+02  0.27053424129E+03  0.17300000000E+03 0. -1.
         -6    1    1    2    0  503 -0.18192408323E+03  0.53547603145E+02 -0.10982882105E+03  0.27920438355E+03  0.17300000000E+03 0. -1.
</event>
<event>
 4    1  0.6132688E+000  0.1000000E+03  0.7546771E-02  0.1280296E+00
         21   -1    0    0  501  502  0.00000000000E+00  0.00000000000E+00  0.31115739124E+03  0.31115739124E+03  0.00000000000E+00 0. -1.
         21   -1    0    0  502  503 -0.00000000000E+00 -0.00000000000E+00 -0.78241511228E+03  0.78241511228E+03  0.00000000000E+00 0. -1.
          6    1    1    2  501    0 -0.44188576956E+02  0.21713023196E+03  0.21373234798E+03  0.35314116800E+03  0.17300000000E+03 0. -1.
         -6    1    1    2    0  503  0.44188576956E+02 -0.21713023196E+03 -0.68499006902E+03  0.74043133552E+03  0.17300000000E+03 0. -1.
</event>
<event>
 4    1  0.6132688E+000  0.1000000E+03  0.7546771E-02  0.1280296E+00
         21   -1    0    0  503  502  0.00000000000E+00  0.00000000000E+00  0.11879137509E+04  0.11879137509E+04  0.00000000000E+00 0.  1.
         21   -1    0    0  501  503 -0.00000000000E+00 -0.00000000000E+00 -0.69094706992E+02  0.69094706992E+02  0.00000000000E+00 0.  1.
          6    1    1    2  501    0 -0.34389488127E+02 -0.10314747415E+03  0.11886065741E+03  0.23638717012E+03  0.17300000000E+03 0.  1.
         -6    1    1    2    0  502  0.34389488127E+02  0.10314747415E+03  0.99995838648E+03  0.10206212877E+04  0.17300000000E+03 0.  1.
</event>
<event>
 4    1  0.6132688E+000  0.1000000E+03  0.7546771E-02  0.1280296E+00
         21   -1    0    0  503  502  0.00000000000E+00  0.00000000000E+00  0.86213890798E+02  0.86213890798E+02  0.00000000000E+00 0.  1.
         21   -1    0    0  501  503 -0.00000000000E+00 -0.00000000000E+00 -0.61200116007E+03  0.61200116007E+03  0.00000000000E+00 0.  1.
          6    1    1    2  501    0  0.11769611595E+03  0.80598752845E+02 -0.33866383287E+03  0.40616588528E+03  0.17300000000E+03 0.  1.
         -6    1    1    2    0  502 -0.11769611595E+03 -0.80598752845E+02 -0.18712343640E+03  0.29204916559E+03  0.17300000000E+03 0.  1.
</event>
<event>
 4    1  0.6132688E+000  0.1000000E+03  0.7546771E-02  0.1280296E+00
         21   -1    0    0  503  502  0.00000000000E+00  0.00000000000E+00  0.34401689312E+03  0.34401689312E+03  0.00000000000E+00 0.  1.
         21   -1    0    0  501  503 -0.00000000000E+00 -0.00000000000E+00 -0.11296375906E+03  0.11296375906E+03  0.00000000000E+00 0.  1.
          6    1    1    2  501    0 -0.20601506350E+02  0.52553305422E+02  0.27665276218E+02  0.18406694294E+03  0.17300000000E+03 0.  1.
         -6    1    1    2    0  502  0.20601506350E+02 -0.52553305422E+02  0.20338785784E+03  0.27291370924E+03  0.17300000000E+03 0.  1.
</event>
<event>
 4    1  0.6132688E+000  0.1000000E+03  0.7546771E-02  0.1280296E+00
         21   -1    0    0  503  502  0.00000000000E+00  0.00000000000E+00  0.22117571732E+03  0.22117571732E+03  0.00000000000E+00 0.  1.
         21   -1    0    0  501  503 -0.00000000000E+00 -0.00000000000E+00 -0.78945935653E+03  0.78945935653E+03  0.00000000000E+00 0.  1.
          6    1    1    2  501    0 -0.50821517140E+02  0.56080274547E+02 -0.73492095984E+03  0.75879222519E+03  0.17300000000E+03 0.  1.
         -6    1    1    2    0  502  0.50821517140E+02 -0.56080274547E+02  0.16663732062E+03  0.25184284866E+03  0.17300000000E+03 0.  1.
</event>
<event>
 4    1  0.6132688E+000  0.1000000E+03  0.7546771E-02  0.1280296E+00
         21   -1    0    0  503  502  0.00000000000E+00  0.00000000000E+00  0.24188638240E+03  0.24188638240E+03  0.00000000000E+00 0. -1.
         21   -1    0    0  501  503 -0.00000000000E+00 -0.00000000000E+00 -0.20647687850E+03  0.20647687850E+03  0.00000000000E+00 0.  1.
          6    1    1    2  501    0  0.14030227221E+03 -0.20058430522E+01 -0.41268326760E+00  0.22275080539E+03  0.17300000000E+03 0.  1.
         -6    1    1    2    0  502 -0.14030227221E+03  0.20058430522E+01  0.35822187167E+02  0.22561245552E+03  0.17300000000E+03 0. -1.
</event>
<event>
 4    1  0.6132688E+000  0.1000000E+03  0.7546771E-02  0.1280296E+00
         21   -1    0    0  503  502  0.00000000000E+00  0.00000000000E+00  0.12982607301E+03  0.12982607301E+03  0.00000000000E+00 0. -1.
         21   -1    0    0  501  503 -0.00000000000E+00 -0.00000000000E+00 -0.61658191777E+03  0.61658191777E+03  0.00000000000E+00 0.  1.
          6    1    1    2  501    0 -0.38404239598E+02  0.13524214512E+03 -0.47319299537E+03  0.52307354579E+03  0.17300000000E+03 0.  1.
         -6    1    1    2    0  502  0.38404239598E+02 -0.13524214512E+03 -0.13562849393E+02  0.22333444499E+03  0.17300000000E+03 0. -1.
</event>
<event>
 4    1  0.6132688E+000  0.1000000E+03  0.7546771E-02  0.1280296E+00
         21   -1    0    0  503  502  0.00000000000E+00  0.00000000000E+00  0.19375554941E+03  0.19375554941E+03  0.00000000000E+00 0. -1.
         21   -1    0    0  501  503 -0.00000000000E+00 -0.00000000000E+00 -0.16514259910E+03  0.16514259910E+03  0.00000000000E+00 0.  1.
          6    1    1    2  501    0  0.35751023553E+02 -0.28081476349E+02  0.13041488138E+02  0.17934822389E+03  0.17300000000E+03 0.  1.
         -6    1    1    2    0  502 -0.35751023553E+02  0.28081476349E+02  0.15571462176E+02  0.17954992463E+03  0.17300000000E+03 0. -1.
</event>
<event>
 4    1  0.6132688E+000  0.1000000E+03  0.7546771E-02  0.1280296E+00
         21   -1    0    0  503  502  0.00000000000E+00  0.00000000000E+00  0.41674309209E+03  0.41674309209E+03  0.00000000000E+00 0.  1.
         21   -1    0    0  501  503 -0.00000000000E+00 -0.00000000000E+00 -0.16011795199E+03  0.16011795199E+03  0.00000000000E+00 0.  1.
          6    1    1    2  501    0 -0.24857596126E+02 -0.19019820070E+03  0.12562471838E+03  0.28723479160E+03  0.17300000000E+03 0.  1.
         -6    1    1    2    0  502  0.24857596126E+02  0.19019820070E+03  0.13100042172E+03  0.28962625248E+03  0.17300000000E+03 0.  1.
</event>
<event>
 4    1  0.6132688E+000  0.1000000E+03  0.7546771E-02  0.1280296E+00
         21   -1    0    0  503  502  0.00000000000E+00  0.00000000000E+00  0.67778377533E+03  0.67778377533E+03  0.00000000000E+00 0. -1.
         21   -1    0    0  501  503 -0.00000000000E+00 -0.00000000000E+00 -0.15588689544E+03  0.15588689544E+03  0.00000000000E+00 0. -1.
          6    1    1    2  501    0 -0.17829735808E+03 -0.62771890016E+02  0.44792621381E+01  0.25627977264E+03  0.17300000000E+03 0. -1.
         -6    1    1    2    0  502  0.17829735808E+03  0.62771890016E+02  0.51741761775E+03  0.57739089813E+03  0.17300000000E+03 0. -1.
</event>
<event>
 4    1  0.6132688E+000  0.1000000E+03  0.7546771E-02  0.1280296E+00
         21   -1    0    0  503  502  0.00000000000E+00  0.00000000000E+00  0.11780894248E+03  0.11780894248E+03  0.00000000000E+00 0. -1.
         21   -1    0    0  501  503 -0.00000000000E+00 -0.00000000000E+00 -0.36338010441E+03  0.36338010441E+03  0.00000000000E+00 0. -1.
          6    1    1    2  501    0  0.34633540788E+02 -0.10233752347E+03 -0.82370355866E+02  0.21996892140E+03  0.17300000000E+03 0. -1.
         -6    1    1    2    0  502 -0.34633540788E+02  0.10233752347E+03 -0.16320080607E+03  0.26122012548E+03  0.17300000000E+03 0. -1.
</event>
<event>
 4    1  0.6132688E+000  0.1000000E+03  0.7546771E-02  0.1280296E+00
         21   -1    0    0  503  502  0.00000000000E+00  0.00000000000E+00  0.10738496432E+03  0.10738496432E+03  0.00000000000E+00 0. -1.
         21   -1    0    0  501  503 -0.00000000000E+00 -0.00000000000E+00 -0.19860565516E+04  0.19860565516E+04  0.00000000000E+00 0. -1.
          6    1    1    2  501    0  0.15424177476E+03  0.95203585545E+02 -0.18185935267E+04  0.18357738595E+04  0.17300000000E+03 0. -1.
         -6    1    1    2    0  502 -0.15424177476E+03 -0.95203585545E+02 -0.60078060492E+02  0.25766765636E+03  0.17300000000E+03 0. -1.
</event>
<event>
 4    1  0.6132688E+000  0.1000000E+03  0.7546771E-02  0.1280296E+00
         21   -1    0    0  501  502  0.00000000000E+00  0.00000000000E+00  0.26965897980E+03  0.26965897980E+03  0.00000000000E+00 0. -1.
         21   -1    0    0  502  503 -0.00000000000E+00 -0.00000000000E+00 -0.24384793199E+03  0.24384793199E+03  0.00000000000E+00 0.  1.
          6    1    1    2  501    0 -0.54970696913E+02  0.49563624238E+02  0.18733408713E+03  0.26552097953E+03  0.17300000000E+03 0. -1.
         -6    1    1    2    0  503  0.54970696913E+02 -0.49563624238E+02 -0.16152303932E+03  0.24798593226E+03  0.17300000000E+03 0.  1.
</event>
<event>
 4    1  0.6132688E+000  0.1000000E+03  0.7546771E-02  0.1280296E+00
         21   -1    0    0  501  502  0.00000000000E+00  0.00000000000E+00  0.33079642126E+03  0.33079642126E+03  0.00000000000E+00 0. -1.
         21   -1    0    0  502  503 -0.00000000000E+00 -0.00000000000E+00 -0.50722927197E+03  0.50722927197E+03  0.00000000000E+00 0.  1.
          6    1    1    2  501    0  0.36927910905E+02  0.35321138218E+02  0.28797805180E+03  0.33981114127E+03  0.17300000000E+03 0. -1.
         -6    1    1    2    0  503 -0.36927910905E+02 -0.35321138218E+02 -0.46441090252E+03  0.49821455196E+03  0.17300000000E+03 0.  1.
</event>
<event>
 4    1  0.6132688E+000  0.1000000E+03  0.7546771E-02  0.1280296E+00
         21   -1    0    0  503  502  0.00000000000E+00  0.00000000000E+00  0.85416945577E+03  0.85416945577E+03  0.00000000000E+00 0.  1.
         21   -1    0    0  501  503 -0.00000000000E+00 -0.00000000000E+00 -0.63190466111E+02  0.63190466111E+02  0.00000000000E+00 0.  1.
          6    1    1    2  501    0 -0.10077827640E+03  0.11687598468E+03  0.36554072315E+03  0.43285710929E+03  0.17300000000E+03 0.  1.
         -6    1    1    2    0  502  0.10077827640E+03 -0.11687598468E+03  0.42543826651E+03  0.48450281259E+03  0.17300000000E+03 0.  1.
</event>
<event>
 4    1  0.6132688E+000  0.1000000E+03  0.7546771E-02  0.1280296E+00
         21   -1    0    0  501  502  0.00000000000E+00  0.00000000000E+00  0.30445505021E+03  0.30445505021E+03  0.00000000000E+00 0.  1.
         21   -1    0    0  502  503 -0.00000000000E+00 -0.00000000000E+00 -0.11408029065E+03  0.11408029065E+03  0.00000000000E+00 0.  1.
          6    1    1    2  501    0  0.60209493861E+02  0.31774160902E+02  0.80609748919E+02  0.20263689712E+03  0.17300000000E+03 0.  1.
         -6    1    1    2    0  503 -0.60209493861E+02 -0.31774160902E+02  0.10976501064E+03  0.21589844375E+03  0.17300000000E+03 0.  1.
</event>
<event>
 4    1  0.6132688E+000  0.1000000E+03  0.7546771E-02  0.1280296E+00
         21   -1    0    0  503  502  0.00000000000E+00  0.00000000000E+00  0.58773284759E+03  0.58773284759E+03  0.00000000000E+00 0.  1.
         21   -1    0    0  501  503 -0.00000000000E+00 -0.00000000000E+00 -0.18957800603E+03  0.18957800603E+03  0.00000000000E+00 0.  1.
          6    1    1    2  501    0  0.14673535564E+03  0.11450900024E+03 -0.52939266638E+02  0.25956721997E+03  0.17300000000E+03 0.  1.
         -6    1    1    2    0  502 -0.14673535564E+03 -0.11450900024E+03  0.45109410820E+03  0.51774363365E+03  0.17300000000E+03 0.  1.
</event>
<event>
 4    1  0.6132688E+000  0.1000000E+03  0.7546771E-02  0.1280296E+00
         21   -1    0    0  503  502  0.00000000000E+00  0.00000000000E+00  0.90815040134E+03  0.90815040134E+03  0.00000000000E+00 0.  1.
         21   -1    0    0  501  503 -0.00000000000E+00 -0.00000000000E+00 -0.68510990272E+03  0.68510990272E+03  0.00000000000E+00 0.  1.
          6    1    1    2  501    0  0.97737906246E+01 -0.25028719589E+03 -0.62339406805E+03  0.69374950197E+03  0.17300000000E+03 0.  1.
         -6    1    1    2    0  502 -0.97737906246E+01  0.25028719589E+03  0.84643456667E+03  0.89951080208E+03  0.17300000000E+03 0.  1.
</event>
<event>
 4    1  0.6132688E+000  0.1000000E+03  0.7546771E-02  0.1280296E+00
         21   -1    0    0  503  502  0.00000000000E+00  0.00000000000E+00  0.48366880512E+03  0.48366880512E+03  0.00000000000E+00 0.  1.
         21   -1    0    0  501  503 -0.00000000000E+00 -0.00000000000E+00 -0.11421371494E+03  0.11421371494E+03  0.00000000000E+00 0.  1.
          6    1    1    2  501    0 -0.24344115074E+02 -0.11056035994E+03  0.42545473518E+02  0.21108137399E+03  0.17300000000E+03 0.  1.
         -6    1    1    2    0  502  0.24344115074E+02  0.11056035994E+03  0.32690961666E+03  0.38680114606E+03  0.17300000000E+03 0.  1.
</event>
<event>
 4    1  0.6132688E+000  0.1000000E+03  0.7546771E-02  0.1280296E+00
         21   -1    0    0  503  502  0.00000000000E+00  0.00000000000E+00  0.49868095409E+03  0.49868095409E+03  0.00000000000E+00 0.  1.
         21   -1    0    0  501  503 -0.00000000000E+00 -0.00000000000E+00 -0.23036791805E+03  0.23036791805E+03  0.00000000000E+00 0. -1.
          6    1    1    2  501    0  0.19459665679E+03  0.81557186475E+02 -0.82097926351E+02  0.28493596300E+03  0.17300000000E+03 0. -1.
         -6    1    1    2    0  502 -0.19459665679E+03 -0.81557186475E+02  0.35041096239E+03  0.44411290914E+03  0.17300000000E+03 0.  1.
</event>
<event>
 4    1  0.6132688E+000  0.1000000E+03  0.7546771E-02  0.1280296E+00
         21   -1    0    0  503  502  0.00000000000E+00  0.00000000000E+00  0.14631611512E+03  0.14631611512E+03  0.00000000000E+00 0.  1.
         21   -1    0    0  501  503 -0.00000000000E+00 -0.00000000000E+00 -0.14907921767E+04  0.14907921767E+04  0.00000000000E+00 0. -1.
          6    1    1    2  501    0  0.74631471979E+02 -0.16176600464E+03 -0.13654949237E+04  0.13878917405E+04  0.17300000000E+03 0. -1.
         -6    1    1    2    0  502 -0.74631471979E+02  0.16176600464E+03  0.21018862096E+02  0.24921655128E+03  0.17300000000E+03 0.  1.
</event>
<event>
 4    1  0.6132688E+000  0.1000000E+03  0.7546771E-02  0.1280296E+00
         21   -1    0    0  501  502  0.00000000000E+00  0.00000000000E+00  0.55499750797E+03  0.55499750797E+03  0.00000000000E+00 0.  1.
         21   -1    0    0  502  503 -0.00000000000E+00 -0.00000000000E+00 -0.10112651500E+03  0.10112651500E+03  0.00000000000E+00 0. -1.
          6    1    1    2  501    0  0.37607900931E+02 -0.20351512610E+02  0.44309917896E+03  0.47759231638E+03  0.17300000000E+03 0. -1.
         -6    1    1    2    0  503 -0.37607900931E+02  0.20351512610E+02  0.10771814019E+02  0.17853170658E+03  0.17300000000E+03 0.  1.
</event>
<event>
 4    1  0.6132688E+000  0.1000000E+03  0.7546771E-02  0.1280296E+00
         21   -1    0    0  501  502  0.00000000000E+00  0.00000000000E+00  0.28242632522E+04  0.28242632522E+04  0.00000000000E+00 0.  1.
         21   -1    0    0  502  503 -0.00000000000E+00 -0.00000000000E+00 -0.24123549897E+02  0.24123549897E+02  0.00000000000E+00 0. -1.
          6    1    1    2  501    0 -0.10566937172E+02 -0.60382194542E+02  0.24127125998E+04  0.24196836072E+04  0.17300000000E+03 0. -1.
         -6    1    1    2    0  503  0.10566937172E+02  0.60382194542E+02  0.38742710242E+03  0.42870319484E+03  0.17300000000E+03 0.  1.
</event>
<event>
 4    1  0.6132688E+000  0.1000000E+03  0.7546771E-02  0.1280296E+00
         21   -1    0    0  501  502  0.00000000000E+00  0.00000000000E+00  0.61382743962E+03  0.61382743962E+03  0.00000000000E+00 0.  1.
         21   -1    0    0  502  503 -0.00000000000E+00 -0.00000000000E+00 -0.52268662193E+03  0.52268662193E+03  0.00000000000E+00 0. -1.
          6    1    1    2  501    0 -0.58469050996E+02 -0.40781426696E+03 -0.30366250563E+03  0.54025088948E+03  0.17300000000E+03 0. -1.
         -6    1    1    2    0  503  0.58469050996E+02  0.40781426696E+03  0.39480332332E+03  0.59626317207E+03  0.17300000000E+03 0.  1.
</event>
<event>
 4    1  0.6132688E+000  0.1000000E+03  0.7546771E-02  0.1280296E+00
         21   -1    0    0  501  502  0.00000000000E+00  0.00000000000E+00  0.16922882911E+04  0.16922882911E+04  0.00000000000E+00 0.  1.
         21   -1    0    0  502  503 -0.00000000000E+00 -0.00000000000E+00 -0.20323085800E+02  0.20323085800E+02  0.00000000000E+00 0. -1.
          6    1    1    2  501    0  0.50728081402E+02 -0.28460734589E+02  0.98773745263E+03  0.10044588727E+04  0.17300000000E+03 0. -1.
         -6    1    1    2    0  503 -0.50728081402E+02  0.28460734589E+02  0.68422775269E+03  0.70815250421E+03  0.17300000000E+03 0.  1.
</event>
<event>
 4    1  0.6132688E+000  0.1000000E+03  0.7546771E-02  0.1280296E+00
         21   -1    0    0  503  502  0.00000000000E+00  0.00000000000E+00  0.14828122176E+03  0.14828122176E+03  0.00000000000E+00 0. -1.
         21   -1    0    0  501  503 -0.00000000000E+00 -0.00000000000E+00 -0.31029542770E+03  0.31029542770E+03  0.00000000000E+00 0. -1.
          6    1    1    2  501    0  0.15818140510E+02 -0.23555056083E+02 -0.21312730594E+03  0.27596612614E+03  0.17300000000E+03 0. -1.
         -6    1    1    2    0  502 -0.15818140510E+02  0.23555056083E+02  0.51113100001E+02  0.18261052332E+03  0.17300000000E+03 0. -1.
</event>
<event>
 4    1  0.6132688E+000  0.1000000E+03  0.7546771E-02  0.1280296E+00
         21   -1    0    0  501  502  0.00000000000E+00  0.00000000000E+00  0.64550613790E+03  0.64550613790E+03  0.00000000000E+00 0. -1.
         21   -1    0    0  502  503 -0.00000000000E+00 -0.00000000000E+00 -0.82596741099E+02  0.82596741099E+02  0.00000000000E+00 0. -1.
          6    1    1    2  501    0 -0.54179725986E+02  0.27854068993E+02  0.50261341267E+03  0.53503320875E+03  0.17300000000E+03 0. -1.
         -6    1    1    2    0  503  0.54179725986E+02 -0.27854068993E+02  0.60295984127E+02  0.19306967025E+03  0.17300000000E+03 0. -1.
</event>
<event>
 4    1  0.6132688E+000  0.1000000E+03  0.7546771E-02  0.1280296E+00
         21   -1    0    0  501  502  0.00000000000E+00  0.00000000000E+00  0.24162677199E+03  0.24162677199E+03  0.00000000000E+00 0. -1.
         21   -1    0    0  502  503 -0.00000000000E+00 -0.00000000000E+00 -0.17475865695E+03  0.17475865695E+03  0.00000000000E+00 0. -1.
          6    1    1    2  501    0  0.56562601462E+02  0.62562860301E+02  0.10638035434E+03  0.21990729675E+03  0.17300000000E+03 0. -1.
         -6    1    1    2    0  503 -0.56562601462E+02 -0.62562860301E+02 -0.39512239297E+02  0.19647813219E+03  0.17300000000E+03 0. -1.
</event>
<event>
 4    1  0.6132688E+000  0.1000000E+03  0.7546771E-02  0.1280296E+00
         21   -1    0    0  501  502  0.00000000000E+00  0.00000000000E+00  0.58327395031E+03  0.58327395031E+03  0.00000000000E+00 0. -1.
         21   -1    0    0  502  503 -0.00000000000E+00 -0.00000000000E+00 -0.80250824769E+02  0.80250824769E+02  0.00000000000E+00 0. -1.
          6    1    1    2  501    0  0.11797300762E+03  0.22089094141E+02  0.32777841858E+03  0.38958086490E+03  0.17300000000E+03 0.  1.
         -6    1    1    2    0  503 -0.11797300762E+03 -0.22089094141E+02  0.17524470696E+03  0.27394391018E+03  0.17300000000E+03 0.  1.
</event>
<event>
 4    1  0.6132688E+000  0.1000000E+03  0.7546771E-02  0.1280296E+00
         21   -1    0    0  501  502  0.00000000000E+00  0.00000000000E+00  0.21698224022E+03  0.21698224022E+03  0.00000000000E+00 0. -1.
         21   -1    0    0  502  503 -0.00000000000E+00 -0.00000000000E+00 -0.55526700881E+03  0.55526700881E+03  0.00000000000E+00 0. -1.
          6    1    1    2  501    0  0.55772995040E+02 -0.11320759630E+03  0.13474585613E+03  0.25300599317E+03  0.17300000000E+03 0.  1.
         -6    1    1    2    0  503 -0.55772995040E+02  0.11320759630E+03 -0.47303062472E+03  0.51924325586E+03  0.17300000000E+03 0.  1.
</event>
<event>
 4    1  0.6132688E+000  0.1000000E+03  0.7546771E-02  0.1280296E+00
         21   -1    0    0  501  502  0.00000000000E+00  0.00000000000E+00  0.34989313305E+03  0.34989313305E+03  0.00000000000E+00 0. -1.
         21   -1    0    0  502  503 -0.00000000000E+00 -0.00000000000E+00 -0.57115980394E+03  0.57115980394E+03  0.00000000000E+00 0. -1.
          6    1    1    2  501    0 -0.63098245452E+02 -0.22690736685E+03  0.23787351686E+03  0.37680386375E+03  0.17300000000E+03 0. -1.
         -6    1    1    2    0  503  0.63098245452E+02  0.22690736685E+03 -0.45914018775E+03  0.54424907324E+03  0.17300000000E+03 0. -1.
</event>
<event>
 4    1  0.6132688E+000  0.1000000E+03  0.7546771E-02  0.1280296E+00
         21   -1    0    0  501  502  0.00000000000E+00  0.00000000000E+00  0.74864842767E+03  0.74864842767E+03  0.00000000000E+00 0. -1.
         21   -1    0    0  502  503 -0.00000000000E+00 -0.00000000000E+00 -0.10513237373E+03  0.10513237373E+03  0.00000000000E+00 0.  1.
          6    1    1    2  501    0  0.19047339796E+03 -0.11016462492E+03  0.35070207733E+03  0.44870625910E+03  0.17300000000E+03 0. -1.
         -6    1    1    2    0  503 -0.19047339796E+03  0.11016462492E+03  0.29281397661E+03  0.40507454229E+03  0.17300000000E+03 0.  1.
</event>
<event>
 4    1  0.6132688E+000  0.1000000E+03  0.7546771E-02  0.1280296E+00
         21   -1    0    0  501  502  0.00000000000E+00  0.00000000000E+00  0.10277743587E+04  0.10277743587E+04  0.00000000000E+00 0. -1.
         21   -1    0    0  502  503 -0.00000000000E+00 -0.00000000000E+00 -0.43620324897E+02  0.43620324897E+02  0.00000000000E+00 0.  1.
          6    1    1    2  501    0  0.84402115068E+02  0.21490802899E+01  0.71515814470E+03  0.74061360202E+03  0.17300000000E+03 0. -1.
         -6    1    1    2    0  503 -0.84402115068E+02 -0.21490802899E+01  0.26899588912E+03  0.33078108159E+03  0.17300000000E+03 0.  1.
</event>
<event>
 4    1  0.6132688E+000  0.1000000E+03  0.7546771E-02  0.1280296E+00
         21   -1    0    0  501  502  0.00000000000E+00  0.00000000000E+00  0.54525535717E+03  0.54525535717E+03  0.00000000000E+00 0.  1.
         21   -1    0    0  502  503 -0.00000000000E+00 -0.00000000000E+00 -0.91812618591E+02  0.91812618591E+02  0.00000000000E+00 0.  1.
          6    1    1    2  501    0  0.10507365692E+03  0.86797432306E+02  0.28291614534E+03  0.35853146714E+03  0.17300000000E+03 0.  1.
         -6    1    1    2    0  503 -0.10507365692E+03 -0.86797432306E+02  0.17052659324E+03  0.27853650862E+03  0.17300000000E+03 0.  1.
</event>
<event>
 4    1  0.6132688E+000  0.1000000E+03  0.7546771E-02  0.1280296E+00
         21   -1    0    0  503  502  0.00000000000E+00  0.00000000000E+00  0.45597536168E+03  0.45597536168E+03  0.00000000000E+00 0.  1.
         21   -1    0    0  501  503 -0.00000000000E+00 -0.00000000000E+00 -0.88897898096E+02  0.88897898096E+02  0.00000000000E+00 0.  1.
          6    1    1    2  501    0  0.51865224083E+02  0.43496796896E+02  0.28856588225E+03  0.34319271730E+03  0.17300000000E+03 0. -1.
         -6    1    1    2    0  502 -0.51865224083E+02 -0.43496796896E+02  0.78511581331E+02  0.20168054247E+03  0.17300000000E+03 0. -1.
</event>
<event>
 4    1  0.6132688E+000  0.1000000E+03  0.7546771E-02  0.1280296E+00
         21   -1    0    0  501  502  0.00000000000E+00  0.00000000000E+00  0.23273484579E+03  0.23273484579E+03  0.00000000000E+00 0. -1.
         21   -1    0    0  502  503 -0.00000000000E+00 -0.00000000000E+00 -0.21724348248E+03  0.21724348248E+03  0.00000000000E+00 0. -1.
          6    1    1    2  501    0 -0.68437089286E+02  0.33255570158E+02  0.12964388315E+03  0.22918574252E+03  0.17300000000E+03 0. -1.
         -6    1    1    2    0  503  0.68437089286E+02 -0.33255570158E+02 -0.11415251984E+03  0.22079258575E+03  0.17300000000E+03 0. -1.
</event>
<event>
 4    1  0.6132688E+000  0.1000000E+03  0.7546771E-02  0.1280296E+00
         21   -1    0    0  501  502  0.00000000000E+00  0.00000000000E+00  0.14312593302E+04  0.14312593302E+04  0.00000000000E+00 0. -1.
         21   -1    0    0  502  503 -0.00000000000E+00 -0.00000000000E+00 -0.11457601717E+04  0.11457601717E+04  0.00000000000E+00 0. -1.
          6    1    1    2  501    0 -0.47168364953E+03 -0.92834462374E+03  0.87225177170E+03  0.13693287987E+04  0.17300000000E+03 0. -1.
         -6    1    1    2    0  503  0.47168364953E+03  0.92834462374E+03 -0.58675261320E+03  0.12076907033E+04  0.17300000000E+03 0. -1.
</event>
<event>
 4    1  0.6132688E+000  0.1000000E+03  0.7546771E-02  0.1280296E+00
         21   -1    0    0  501  502  0.00000000000E+00  0.00000000000E+00  0.84985218192E+03  0.84985218192E+03  0.00000000000E+00 0.  1.
         21   -1    0    0  502  503 -0.00000000000E+00 -0.00000000000E+00 -0.46578133163E+03  0.46578133163E+03  0.00000000000E+00 0.  1.
          6    1    1    2  501    0 -0.40826679716E+02  0.78417622538E+02  0.81770414266E+03  0.84046725470E+03  0.17300000000E+03 0.  1.
         -6    1    1    2    0  503  0.40826679716E+02 -0.78417622538E+02 -0.43363329237E+03  0.47516625885E+03  0.17300000000E+03 0.  1.
</event>
<event>
 4    1  0.6132688E+000  0.1000000E+03  0.7546771E-02  0.1280296E+00
         21   -1    0    0  501  502  0.00000000000E+00  0.00000000000E+00  0.34957131088E+03  0.34957131088E+03  0.00000000000E+00 0.  1.
         21   -1    0    0  502  503 -0.00000000000E+00 -0.00000000000E+00 -0.16303644740E+03  0.16303644740E+03  0.00000000000E+00 0.  1.
          6    1    1    2  501    0  0.85526502158E+02  0.10800704996E+03  0.18979386263E+03  0.29142926364E+03  0.17300000000E+03 0.  1.
         -6    1    1    2    0  503 -0.85526502158E+02 -0.10800704996E+03 -0.32589991503E+01  0.22117849463E+03  0.17300000000E+03 0.  1.
</event>
<event>
 4    1  0.6132688E+000  0.1000000E+03  0.7546771E-02  0.1280296E+00
         21   -1    0    0  501  502  0.00000000000E+00  0.00000000000E+00  0.29551729620E+03  0.29551729620E+03  0.00000000000E+00 0.  1.
         21   -1    0    0  502  503 -0.00000000000E+00 -0.00000000000E+00 -0.13048906003E+03  0.13048906003E+03  0.00000000000E+00 0.  1.
          6    1    1    2  501    0  0.44649310050E+02  0.79857288193E+02  0.10007233730E+03  0.21980495913E+03  0.17300000000E+03 0.  1.
         -6    1    1    2    0  503 -0.44649310050E+02 -0.79857288193E+02  0.64955898872E+02  0.20620139709E+03  0.17300000000E+03 0.  1.
</event>
<event>
 4    1  0.6132688E+000  0.1000000E+03  0.7546771E-02  0.1280296E+00
         21   -1    0    0  503  502  0.00000000000E+00  0.00000000000E+00  0.26067165853E+03  0.26067165853E+03  0.00000000000E+00 0. -1.
         21   -1    0    0  501  503 -0.00000000000E+00 -0.00000000000E+00 -0.23100689650E+03  0.23100689650E+03  0.00000000000E+00 0.  1.
          6    1    1    2  501    0 -0.11454954402E+03  0.25309679541E+02 -0.11395484268E+03  0.23806907419E+03  0.17300000000E+03 0.  1.
         -6    1    1    2    0  502  0.11454954402E+03 -0.25309679541E+02  0.14361960471E+03  0.25360948084E+03  0.17300000000E+03 0. -1.
</event>
<event>
 4    1  0.6132688E+000  0.1000000E+03  0.7546771E-02  0.1280296E+00
         21   -1    0    0  503  502  0.00000000000E+00  0.00000000000E+00  0.22550071946E+03  0.22550071946E+03  0.00000000000E+00 0. -1.
         21   -1    0    0  501  503 -0.00000000000E+00 -0.00000000000E+00 -0.30884375192E+03  0.30884375192E+03  0.00000000000E+00 0.  1.
          6    1    1    2  501    0 -0.10978691702E+03 -0.13613290275E+03 -0.13840726506E+03  0.28226035035E+03  0.17300000000E+03 0.  1.
         -6    1    1    2    0  502  0.10978691702E+03  0.13613290275E+03  0.55064232603E+02  0.25208412103E+03  0.17300000000E+03 0. -1.
</event>
<event>
 4    1  0.6132688E+000  0.1000000E+03  0.7546771E-02  0.1280296E+00
         21   -1    0    0  503  502  0.00000000000E+00  0.00000000000E+00  0.10544803275E+03  0.10544803275E+03  0.00000000000E+00 0. -1.
         21   -1    0    0  501  503 -0.00000000000E+00 -0.00000000000E+00 -0.41940346912E+03  0.41940346912E+03  0.00000000000E+00 0.  1.
          6    1    1    2  501    0  0.57296612719E+02 -0.72862653928E+02 -0.25122661646E+03  0.31880351470E+03  0.17300000000E+03 0. -1.
         -6    1    1    2    0  502 -0.57296612719E+02  0.72862653928E+02 -0.62728819910E+02  0.20604798716E+03  0.17300000000E+03 0. -1.
</event>
<event>
 4    1  0.6132688E+000  0.1000000E+03  0.7546771E-02  0.1280296E+00
         21   -1    0    0  501  502  0.00000000000E+00  0.00000000000E+00  0.89499327050E+03  0.89499327050E+03  0.00000000000E+00 0.  1.
         21   -1    0    0  502  503 -0.00000000000E+00 -0.00000000000E+00 -0.90447569509E+02  0.90447569509E+02  0.00000000000E+00 0.  1.
          6    1    1    2  501    0  0.13002989043E+03 -0.14255289172E+01  0.72211852340E+03  0.75385274847E+03  0.17300000000E+03 0.  1.
         -6    1    1    2    0  503 -0.13002989043E+03  0.14255289172E+01  0.82427177589E+02  0.23158809154E+03  0.17300000000E+03 0.  1.
</event>
<event>
 4    1  0.6132688E+000  0.1000000E+03  0.7546771E-02  0.1280296E+00
         21   -1    0    0  501  502  0.00000000000E+00  0.00000000000E+00  0.17502653837E+04  0.17502653837E+04  0.00000000000E+00 0.  1.
         21   -1    0    0  502  503 -0.00000000000E+00 -0.00000000000E+00 -0.44836389679E+02  0.44836389679E+02  0.00000000000E+00 0. -1.
          6    1    1    2  501    0 -0.39726537304E+02 -0.64358209691E+02  0.15157665363E+04  0.15274807264E+04  0.17300000000E+03 0.  1.
         -6    1    1    2    0  503  0.39726537304E+02  0.64358209691E+02  0.18966245770E+03  0.26762104697E+03  0.17300000000E+03 0. -1.
</event>
<event>
 4    1  0.6132688E+000  0.1000000E+03  0.7546771E-02  0.1280296E+00
         21   -1    0    0  501  502  0.00000000000E+00  0.00000000000E+00  0.24976312655E+03  0.24976312655E+03  0.00000000000E+00 0.  1.
         21   -1    0    0  502  503 -0.00000000000E+00 -0.00000000000E+00 -0.23008036619E+03  0.23008036619E+03  0.00000000000E+00 0. -1.
          6    1    1    2  501    0  0.47309248647E+02 -0.13598597784E+03  0.92410815852E+02  0.24330867240E+03  0.17300000000E+03 0.  1.
         -6    1    1    2    0  503 -0.47309248647E+02  0.13598597784E+03 -0.72728055490E+02  0.23653482034E+03  0.17300000000E+03 0. -1.
</event>
<event>
 4    1  0.6132688E+000  0.1000000E+03  0.7546771E-02  0.1280296E+00
         21   -1    0    0  503  502  0.00000000000E+00  0.00000000000E+00  0.75814780862E+03  0.75814780862E+03  0.00000000000E+00 0. -1.
         21   -1    0    0  501  503 -0.00000000000E+00 -0.00000000000E+00 -0.33421199922E+03  0.33421199922E+03  0.00000000000E+00 0. -1.
          6    1    1    2  501    0  0.36483312867E+03 -0.26731079306E+03  0.62819308854E+02  0.48829656708E+03  0.17300000000E+03 0. -1.
         -6    1    1    2    0  502 -0.36483312867E+03  0.26731079306E+03  0.36111650055E+03  0.60406324075E+03  0.17300000000E+03 0. -1.
</event>
<event>
 4    1  0.6132688E+000  0.1000000E+03  0.7546771E-02  0.1280296E+00
         21   -1    0    0  503  502  0.00000000000E+00  0.00000000000E+00  0.53240443539E+03  0.53240443539E+03  0.00000000000E+00 0. -1.
         21   -1    0    0  501  503 -0.00000000000E+00 -0.00000000000E+00 -0.18851282807E+03  0.18851282807E+03  0.00000000000E+00 0. -1.
          6    1    1    2  501    0 -0.20898477879E+03  0.66070396309E+00 -0.14183710196E+02  0.27167122028E+03  0.17300000000E+03 0. -1.
         -6    1    1    2    0  502  0.20898477879E+03 -0.66070396309E+00  0.35807531752E+03  0.44924604318E+03  0.17300000000E+03 0. -1.
</event>
<event>
 4    1  0.6132688E+000  0.1000000E+03  0.7546771E-02  0.1280296E+00
         21   -1    0    0  501  502  0.00000000000E+00  0.00000000000E+00  0.14407844224E+03  0.14407844224E+03  0.00000000000E+00 0.  1.
         21   -1    0    0  502  503 -0.00000000000E+00 -0.00000000000E+00 -0.28773982304E+03  0.28773982304E+03  0.00000000000E+00 0.  1.
          6    1    1    2  501    0  0.39575330285E+02 -0.98988662012E+02 -0.58286395082E+02  0.21140308850E+03  0.17300000000E+03 0.  1.
         -6    1    1    2    0  503 -0.39575330285E+02  0.98988662012E+02 -0.85374985716E+02  0.22041517679E+03  0.17300000000E+03 0.  1.
</event>
<event>
 4    1  0.6132688E+000  0.1000000E+03  0.7546771E-02  0.1280296E+00
         21   -1    0    0  501  502  0.00000000000E+00  0.00000000000E+00  0.30371838299E+02  0.30371838299E+02  0.00000000000E+00 0.  1.
         21   -1    0    0  502  503 -0.00000000000E+00 -0.00000000000E+00 -0.13571732855E+04  0.13571732855E+04  0.00000000000E+00 0.  1.
          6    1    1    2  501    0 -0.34859180029E+02  0.33325487246E+02 -0.33985070695E+03  0.38438685402E+03  0.17300000000E+03 0.  1.
         -6    1    1    2    0  503  0.34859180029E+02 -0.33325487246E+02 -0.98695074022E+03  0.10031582697E+04  0.17300000000E+03 0.  1.
</event>
<event>
 4    1  0.6132688E+000  0.1000000E+03  0.7546771E-02  0.1280296E+00
         21   -1    0    0  501  502  0.00000000000E+00  0.00000000000E+00  0.11943944693E+03  0.11943944693E+03  0.00000000000E+00 0.  1.
         21   -1    0    0  502  503 -0.00000000000E+00 -0.00000000000E+00 -0.43701874641E+03  0.43701874641E+03  0.00000000000E+00 0.  1.
          6    1    1    2  501    0 -0.86642911119E+02  0.41885818414E+02 -0.19901600205E+02  0.19896353817E+03  0.17300000000E+03 0.  1.
         -6    1    1    2    0  503  0.86642911119E+02 -0.41885818414E+02 -0.29767769927E+03  0.35749465517E+03  0.17300000000E+03 0.  1.
</event>
<event>
 4    1  0.6132688E+000  0.1000000E+03  0.7546771E-02  0.1280296E+00
         21   -1    0    0  501  502  0.00000000000E+00  0.00000000000E+00  0.15123931525E+03  0.15123931525E+03  0.00000000000E+00 0.  1.
         21   -1    0    0  502  503 -0.00000000000E+00 -0.00000000000E+00 -0.25629563117E+03  0.25629563117E+03  0.00000000000E+00 0.  1.
          6    1    1    2  501    0 -0.79048264654E+02  0.46801265065E+02 -0.31984675399E+02  0.19847167560E+03  0.17300000000E+03 0.  1.
         -6    1    1    2    0  503  0.79048264654E+02 -0.46801265065E+02 -0.73071640518E+02  0.20906327082E+03  0.17300000000E+03 0.  1.
</event>
<event>
 4    1  0.6132688E+000  0.1000000E+03  0.7546771E-02  0.1280296E+00
         21   -1    0    0  503  502  0.00000000000E+00  0.00000000000E+00  0.25083199072E+03  0.25083199072E+03  0.00000000000E+00 0. -1.
         21   -1    0    0  501  503 -0.00000000000E+00 -0.00000000000E+00 -0.19904112750E+03  0.19904112750E+03  0.00000000000E+00 0.  1.
          6    1    1    2  501    0 -0.13040447528E+03 -0.53575982807E+02  0.36976794577E+02  0.22621228182E+03  0.17300000000E+03 0.  1.
         -6    1    1    2    0  502  0.13040447528E+03  0.53575982807E+02  0.14814068645E+02  0.22366083640E+03  0.17300000000E+03 0. -1.
</event>
<event>
 4    1  0.6132688E+000  0.1000000E+03  0.7546771E-02  0.1280296E+00
         21   -1    0    0  503  502  0.00000000000E+00  0.00000000000E+00  0.29453491940E+03  0.29453491940E+03  0.00000000000E+00 0. -1.
         21   -1    0    0  501  503 -0.00000000000E+00 -0.00000000000E+00 -0.15300822649E+03  0.15300822649E+03  0.00000000000E+00 0.  1.
          6    1    1    2  501    0 -0.46491150523E+02  0.11168061936E+03  0.47115966344E+02  0.21629355539E+03  0.17300000000E+03 0.  1.
         -6    1    1    2    0  502  0.46491150523E+02 -0.11168061936E+03  0.94410726557E+02  0.23124959050E+03  0.17300000000E+03 0. -1.
</event>
<event>
 4    1  0.6132688E+000  0.1000000E+03  0.7546771E-02  0.1280296E+00
         21   -1    0    0  503  502  0.00000000000E+00  0.00000000000E+00  0.32213368995E+03  0.32213368995E+03  0.00000000000E+00 0. -1.
         21   -1    0    0  501  503 -0.00000000000E+00 -0.00000000000E+00 -0.21428862601E+03  0.21428862601E+03  0.00000000000E+00 0.  1.
          6    1    1    2  501    0  0.93143931468E+00 -0.19773382864E+02 -0.14692369495E+03  0.22783201353E+03  0.17300000000E+03 0.  1.
         -6    1    1    2    0  502 -0.93143931468E+00  0.19773382864E+02  0.25476875889E+03  0.30859030243E+03  0.17300000000E+03 0. -1.
</event>
<event>
 4    1  0.6132688E+000  0.1000000E+03  0.7546771E-02  0.1280296E+00
         21   -1    0    0  503  502  0.00000000000E+00  0.00000000000E+00  0.68745510881E+03  0.68745510881E+03  0.00000000000E+00 0.  1.
         21   -1    0    0  501  503 -0.00000000000E+00 -0.00000000000E+00 -0.13298677020E+03  0.13298677020E+03  0.00000000000E+00 0. -1.
          6    1    1    2  501    0 -0.71531073500E+02  0.16269008970E+03  0.42600669204E+02  0.25165169735E+03  0.17300000000E+03 0. -1.
         -6    1    1    2    0  502  0.71531073500E+02 -0.16269008970E+03  0.51186766941E+03  0.56879018166E+03  0.17300000000E+03 0.  1.
</event>
<event>
 4    1  0.6132688E+000  0.1000000E+03  0.7546771E-02  0.1280296E+00
         21   -1    0    0  503  502  0.00000000000E+00  0.00000000000E+00  0.41192073905E+03  0.41192073905E+03  0.00000000000E+00 0.  1.
         21   -1    0    0  501  503 -0.00000000000E+00 -0.00000000000E+00 -0.15574046274E+03  0.15574046274E+03  0.00000000000E+00 0. -1.
          6    1    1    2  501    0  0.11364059682E+03 -0.73056494732E+02 -0.13533337538E+02  0.21991722964E+03  0.17300000000E+03 0. -1.
         -6    1    1    2    0  502 -0.11364059682E+03  0.73056494732E+02  0.26971361384E+03  0.34774397214E+03  0.17300000000E+03 0.  1.
</event>
<event>
 4    1  0.6132688E+000  0.1000000E+03  0.7546771E-02  0.1280296E+00
         21   -1    0    0  503  502  0.00000000000E+00  0.00000000000E+00  0.26967756958E+03  0.26967756958E+03  0.00000000000E+00 0.  1.
         21   -1    0    0  501  503 -0.00000000000E+00 -0.00000000000E+00 -0.15355332567E+03  0.15355332567E+03  0.00000000000E+00 0. -1.
          6    1    1    2  501    0  0.14528231617E+02 -0.10537788883E+03  0.44691354643E+02  0.20794683491E+03  0.17300000000E+03 0. -1.
         -6    1    1    2    0  502 -0.14528231617E+02  0.10537788883E+03  0.71432889262E+02  0.21528406034E+03  0.17300000000E+03 0.  1.
</event>
<event>
 4    1  0.6132688E+000  0.1000000E+03  0.7546771E-02  0.1280296E+00
         21   -1    0    0  503  502  0.00000000000E+00  0.00000000000E+00  0.69248264068E+03  0.69248264068E+03  0.00000000000E+00 0. -1.
         21   -1    0    0  501  503 -0.00000000000E+00 -0.00000000000E+00 -0.10663829768E+03  0.10663829768E+03  0.00000000000E+00 0. -1.
          6    1    1    2  501    0  0.13370551857E+03  0.14460536156E+03  0.18762713210E+03  0.32236751850E+03  0.17300000000E+03 0. -1.
         -6    1    1    2    0  502 -0.13370551857E+03 -0.14460536156E+03  0.39821721091E+03  0.47675341986E+03  0.17300000000E+03 0. -1.
</event>
<event>
 4    1  0.6132688E+000  0.1000000E+03  0.7546771E-02  0.1280296E+00
         21   -1    0    0  501  502  0.00000000000E+00  0.00000000000E+00  0.15386319436E+04  0.15386319436E+04  0.00000000000E+00 0. -1.
         21   -1    0    0  502  503 -0.00000000000E+00 -0.00000000000E+00 -0.86171415147E+02  0.86171415147E+02  0.00000000000E+00 0.  1.
          6    1    1    2  501    0 -0.31987968127E+03  0.17891822996E+02  0.73456763589E+03  0.81985470635E+03  0.17300000000E+03 0.  1.
         -6    1    1    2    0  503  0.31987968127E+03 -0.17891822996E+02  0.71789289258E+03  0.80494865242E+03  0.17300000000E+03 0. -1.
</event>
<event>
 4    1  0.6132688E+000  0.1000000E+03  0.7546771E-02  0.1280296E+00
         21   -1    0    0  501  502  0.00000000000E+00  0.00000000000E+00  0.47768978357E+03  0.47768978357E+03  0.00000000000E+00 0. -1.
         21   -1    0    0  502  503 -0.00000000000E+00 -0.00000000000E+00 -0.94370241381E+02  0.94370241381E+02  0.00000000000E+00 0.  1.
          6    1    1    2  501    0 -0.38911710297E+02  0.33157230964E+02  0.34250131696E+03  0.38710421760E+03  0.17300000000E+03 0.  1.
         -6    1    1    2    0  503  0.38911710297E+02 -0.33157230964E+02  0.40818225233E+02  0.18495580736E+03  0.17300000000E+03 0. -1.
</event>
<event>
 4    1  0.6132688E+000  0.1000000E+03  0.7546771E-02  0.1280296E+00
         21   -1    0    0  501  502  0.00000000000E+00  0.00000000000E+00  0.82079336530E+02  0.82079336530E+02  0.00000000000E+00 0. -1.
         21   -1    0    0  502  503 -0.00000000000E+00 -0.00000000000E+00 -0.38016151853E+03  0.38016151853E+03  0.00000000000E+00 0.  1.
          6    1    1    2  501    0 -0.15851295425E+01  0.32280003902E+02 -0.12920294479E+03  0.21832753429E+03  0.17300000000E+03 0.  1.
         -6    1    1    2    0  503  0.15851295425E+01 -0.32280003902E+02 -0.16887923721E+03  0.24391332077E+03  0.17300000000E+03 0. -1.
</event>
<event>
 4    1  0.6132688E+000  0.1000000E+03  0.7546771E-02  0.1280296E+00
         21   -1    0    0  501  502  0.00000000000E+00  0.00000000000E+00  0.16549911159E+02  0.16549911159E+02  0.00000000000E+00 0.  1.
         21   -1    0    0  502  503 -0.00000000000E+00 -0.00000000000E+00 -0.30075864871E+04  0.30075864871E+04  0.00000000000E+00 0.  1.
          6    1    1    2  501    0  0.12822316100E+03  0.70796305052E+01 -0.18880818926E+04  0.19003351108E+04  0.17300000000E+03 0.  1.
         -6    1    1    2    0  503 -0.12822316100E+03 -0.70796305052E+01 -0.11029546833E+04  0.11238012874E+04  0.17300000000E+03 0.  1.
</event>
<event>
 4    1  0.6132688E+000  0.1000000E+03  0.7546771E-02  0.1280296E+00
         21   -1    0    0  501  502  0.00000000000E+00  0.00000000000E+00  0.32874615107E+02  0.32874615107E+02  0.00000000000E+00 0.  1.
         21   -1    0    0  502  503 -0.00000000000E+00 -0.00000000000E+00 -0.14106351277E+04  0.14106351277E+04  0.00000000000E+00 0.  1.
          6    1    1    2  501    0 -0.10519444631E+03 -0.14102079826E+02 -0.93011033078E+03  0.95199735694E+03  0.17300000000E+03 0.  1.
         -6    1    1    2    0  503  0.10519444631E+03  0.14102079826E+02 -0.44765018184E+03  0.49151238590E+03  0.17300000000E+03 0.  1.
</event>
<event>
 4    1  0.6132688E+000  0.1000000E+03  0.7546771E-02  0.1280296E+00
         21   -1    0    0  501  502  0.00000000000E+00  0.00000000000E+00  0.10373610785E+03  0.10373610785E+03  0.00000000000E+00 0.  1.
         21   -1    0    0  502  503 -0.00000000000E+00 -0.00000000000E+00 -0.33624004550E+03  0.33624004550E+03  0.00000000000E+00 0.  1.
          6    1    1    2  501    0 -0.12109646060E+02 -0.52546630932E+02 -0.63005529251E+02  0.19185017244E+03  0.17300000000E+03 0.  1.
         -6    1    1    2    0  503  0.12109646060E+02  0.52546630932E+02 -0.16949840840E+03  0.24812598090E+03  0.17300000000E+03 0.  1.
</event>
<event>
 4    1  0.6132688E+000  0.1000000E+03  0.7546771E-02  0.1280296E+00
         21   -1    0    0  501  502  0.00000000000E+00  0.00000000000E+00  0.14961053650E+03  0.14961053650E+03  0.00000000000E+00 0.  1.
         21   -1    0    0  502  503 -0.00000000000E+00 -0.00000000000E+00 -0.29367739916E+03  0.29367739916E+03  0.00000000000E+00 0.  1.
          6    1    1    2  501    0  0.74807419074E+02 -0.84266147291E+02 -0.11032388811E+03  0.23408821802E+03  0.17300000000E+03 0.  1.
         -6    1    1    2    0  503 -0.74807419074E+02  0.84266147291E+02 -0.33742974539E+02  0.20919971764E+03  0.17300000000E+03 0.  1.
</event>
<event>
 4    1  0.6132688E+000  0.1000000E+03  0.7546771E-02  0.1280296E+00
         21   -1    0    0  501  502  0.00000000000E+00  0.00000000000E+00  0.45560886088E+03  0.45560886088E+03  0.00000000000E+00 0.  1.
         21   -1    0    0  502  503 -0.00000000000E+00 -0.00000000000E+00 -0.16029977985E+03  0.16029977985E+03  0.00000000000E+00 0.  1.
          6    1    1    2  501    0 -0.13979227883E+03 -0.15293343334E+03  0.13260229243E+03  0.30073723450E+03  0.17300000000E+03 0.  1.
         -6    1    1    2    0  503  0.13979227883E+03  0.15293343334E+03  0.16270678859E+03  0.31517140624E+03  0.17300000000E+03 0.  1.
</event>
<event>
 4    1  0.6132688E+000  0.1000000E+03  0.7546771E-02  0.1280296E+00
         21   -1    0    0  501  502  0.00000000000E+00  0.00000000000E+00  0.21552622473E+03  0.21552622473E+03  0.00000000000E+00 0.  1.
         21   -1    0    0  502  503 -0.00000000000E+00 -0.00000000000E+00 -0.96046312293E+03  0.96046312293E+03  0.00000000000E+00 0.  1.
          6    1    1    2  501    0 -0.32523918243E+01  0.39478873744E+02  0.16894619295E+03  0.24503260117E+03  0.17300000000E+03 0.  1.
         -6    1    1    2    0  503  0.32523918243E+01 -0.39478873744E+02 -0.91388309116E+03  0.93095674648E+03  0.17300000000E+03 0.  1.
</event>
<event>
 4    1  0.6132688E+000  0.1000000E+03  0.7546771E-02  0.1280296E+00
         21   -1    0    0  503  502  0.00000000000E+00  0.00000000000E+00  0.38421681630E+03  0.38421681630E+03  0.00000000000E+00 0.  1.
         21   -1    0    0  501  503 -0.00000000000E+00 -0.00000000000E+00 -0.80542005900E+02  0.80542005900E+02  0.00000000000E+00 0. -1.
          6    1    1    2  501    0 -0.48497178469E+01 -0.14792568722E+02  0.11508043085E+03  0.20836229365E+03  0.17300000000E+03 0. -1.
         -6    1    1    2    0  502  0.48497178469E+01  0.14792568722E+02  0.18859437956E+03  0.25639652855E+03  0.17300000000E+03 0.  1.
</event>
<event>
 4    1  0.6132688E+000  0.1000000E+03  0.7546771E-02  0.1280296E+00
         21   -1    0    0  503  502  0.00000000000E+00  0.00000000000E+00  0.32223049252E+03  0.32223049252E+03  0.00000000000E+00 0.  1.
         21   -1    0    0  501  503 -0.00000000000E+00 -0.00000000000E+00 -0.12283052771E+03  0.12283052771E+03  0.00000000000E+00 0. -1.
          6    1    1    2  501    0  0.57723635649E+02  0.77854078791E+02  0.81752116580E+02  0.21448935699E+03  0.17300000000E+03 0. -1.
         -6    1    1    2    0  502 -0.57723635649E+02 -0.77854078791E+02  0.11764784823E+03  0.23057166324E+03  0.17300000000E+03 0.  1.
</event>
<event>
 4    1  0.6132688E+000  0.1000000E+03  0.7546771E-02  0.1280296E+00
         21   -1    0    0  503  502  0.00000000000E+00  0.00000000000E+00  0.96850483036E+02  0.96850483036E+02  0.00000000000E+00 0.  1.
         21   -1    0    0  501  503 -0.00000000000E+00 -0.00000000000E+00 -0.59165322690E+03  0.59165322690E+03  0.00000000000E+00 0. -1.
          6    1    1    2  501    0 -0.15605522877E+03  0.37768541553E+02 -0.30480342448E+03  0.38550463646E+03  0.17300000000E+03 0. -1.
         -6    1    1    2    0  502  0.15605522877E+03 -0.37768541553E+02 -0.18999931938E+03  0.30299907347E+03  0.17300000000E+03 0.  1.
</event>
<event>
 4    1  0.6132688E+000  0.1000000E+03  0.7546771E-02  0.1280296E+00
         21   -1    0    0  503  502  0.00000000000E+00  0.00000000000E+00  0.85628084169E+03  0.85628084169E+03  0.00000000000E+00 0.  1.
         21   -1    0    0  501  503 -0.00000000000E+00 -0.00000000000E+00 -0.45736770942E+02  0.45736770942E+02  0.00000000000E+00 0. -1.
          6    1    1    2  501    0 -0.60236233149E+02 -0.16885894612E+02  0.23903028063E+03  0.30162561608E+03  0.17300000000E+03 0. -1.
         -6    1    1    2    0  502  0.60236233149E+02  0.16885894612E+02  0.57151379012E+03  0.60039199655E+03  0.17300000000E+03 0.  1.
</event>
<event>
 4    1  0.6132688E+000  0.1000000E+03  0.7546771E-02  0.1280296E+00
         21   -1    0    0  503  502  0.00000000000E+00  0.00000000000E+00  0.25242611500E+03  0.25242611500E+03  0.00000000000E+00 0.  1.
         21   -1    0    0  501  503 -0.00000000000E+00 -0.00000000000E+00 -0.38708116798E+03  0.38708116798E+03  0.00000000000E+00 0. -1.
          6    1    1    2  501    0 -0.38077536957E+02 -0.22264477344E+03 -0.19975612132E+03  0.34763788914E+03  0.17300000000E+03 0. -1.
         -6    1    1    2    0  502  0.38077536957E+02  0.22264477344E+03  0.65101068336E+02  0.29186939384E+03  0.17300000000E+03 0.  1.
</event>
<event>
 4    1  0.6132688E+000  0.1000000E+03  0.7546771E-02  0.1280296E+00
         21   -1    0    0  503  502  0.00000000000E+00  0.00000000000E+00  0.13891543917E+04  0.13891543917E+04  0.00000000000E+00 0. -1.
         21   -1    0    0  501  503 -0.00000000000E+00 -0.00000000000E+00 -0.35302724482E+02  0.35302724482E+02  0.00000000000E+00 0. -1.
          6    1    1    2  501    0  0.83662433951E+02  0.10982515713E+03  0.65396521807E+03  0.69040602144E+03  0.17300000000E+03 0. -1.
         -6    1    1    2    0  502 -0.83662433951E+02 -0.10982515713E+03  0.69988644912E+03  0.73405109471E+03  0.17300000000E+03 0. -1.
</event>
<event>
 4    1  0.6132688E+000  0.1000000E+03  0.7546771E-02  0.1280296E+00
         21   -1    0    0  501  502  0.00000000000E+00  0.00000000000E+00  0.51902159934E+03  0.51902159934E+03  0.00000000000E+00 0. -1.
         21   -1    0    0  502  503 -0.00000000000E+00 -0.00000000000E+00 -0.64260430394E+02  0.64260430394E+02  0.00000000000E+00 0. -1.
          6    1    1    2  501    0 -0.41425583169E+00  0.54885166574E+02  0.25975515762E+03  0.31688214691E+03  0.17300000000E+03 0. -1.
         -6    1    1    2    0  503  0.41425583169E+00 -0.54885166574E+02  0.19500601133E+03  0.26639988283E+03  0.17300000000E+03 0. -1.
</event>
<event>
 4    1  0.6132688E+000  0.1000000E+03  0.7546771E-02  0.1280296E+00
         21   -1    0    0  501  502  0.00000000000E+00  0.00000000000E+00  0.93035473996E+03  0.93035473996E+03  0.00000000000E+00 0. -1.
         21   -1    0    0  502  503 -0.00000000000E+00 -0.00000000000E+00 -0.61187260003E+02  0.61187260003E+02  0.00000000000E+00 0. -1.
          6    1    1    2  501    0  0.26110226857E+02 -0.16179417427E+03  0.41019520674E+03  0.47439246032E+03  0.17300000000E+03 0. -1.
         -6    1    1    2    0  503 -0.26110226857E+02  0.16179417427E+03  0.45897227322E+03  0.51714953965E+03  0.17300000000E+03 0. -1.
</event>
<event>
 4    1  0.6132688E+000  0.1000000E+03  0.7546771E-02  0.1280296E+00
         21   -1    0    0  501  502  0.00000000000E+00  0.00000000000E+00  0.36559224170E+03  0.36559224170E+03  0.00000000000E+00 0. -1.
         21   -1    0    0  502  503 -0.00000000000E+00 -0.00000000000E+00 -0.14341611834E+03  0.14341611834E+03  0.00000000000E+00 0. -1.
          6    1    1    2  501    0 -0.13774221477E+03  0.50977952851E+02  0.14500428303E+03  0.26930820913E+03  0.17300000000E+03 0. -1.
         -6    1    1    2    0  503  0.13774221477E+03 -0.50977952851E+02  0.77171840323E+02  0.23970015091E+03  0.17300000000E+03 0. -1.
</event>
<event>
 4    1  0.6132688E+000  0.1000000E+03  0.7546771E-02  0.1280296E+00
         21   -1    0    0  503  502  0.00000000000E+00  0.00000000000E+00  0.98733008295E+02  0.98733008295E+02  0.00000000000E+00 0.  1.
         21   -1    0    0  501  503 -0.00000000000E+00 -0.00000000000E+00 -0.55417546388E+03  0.55417546388E+03  0.00000000000E+00 0. -1.
          6    1    1    2  501    0 -0.12071241679E+03 -0.41956655355E+02 -0.99395706253E+02  0.23693955963E+03  0.17300000000E+03 0.  1.
         -6    1    1    2    0  502  0.12071241679E+03  0.41956655355E+02 -0.35604674934E+03  0.41596891255E+03  0.17300000000E+03 0.  1.
</event>
<event>
 4    1  0.6132688E+000  0.1000000E+03  0.7546771E-02  0.1280296E+00
         21   -1    0    0  503  502  0.00000000000E+00  0.00000000000E+00  0.21558487472E+03  0.21558487472E+03  0.00000000000E+00 0.  1.
         21   -1    0    0  501  503 -0.00000000000E+00 -0.00000000000E+00 -0.12831234039E+04  0.12831234039E+04  0.00000000000E+00 0. -1.
          6    1    1    2  501    0 -0.18204948452E+03  0.14955044567E+03 -0.11567453806E+04  0.11931036109E+04  0.17300000000E+03 0.  1.
         -6    1    1    2    0  502  0.18204948452E+03 -0.14955044567E+03  0.89206851463E+02  0.30560466777E+03  0.17300000000E+03 0.  1.
</event>
<event>
 4    1  0.6132688E+000  0.1000000E+03  0.7546771E-02  0.1280296E+00
         21   -1    0    0  503  502  0.00000000000E+00  0.00000000000E+00  0.85815439459E+03  0.85815439459E+03  0.00000000000E+00 0.  1.
         21   -1    0    0  501  503 -0.00000000000E+00 -0.00000000000E+00 -0.55344223669E+02  0.55344223669E+02  0.00000000000E+00 0. -1.
          6    1    1    2  501    0 -0.13085499747E+03 -0.19213355911E+02  0.41927581224E+03  0.47245464347E+03  0.17300000000E+03 0.  1.
         -6    1    1    2    0  502  0.13085499747E+03  0.19213355911E+02  0.38353435869E+03  0.44104397479E+03  0.17300000000E+03 0.  1.
</event>
<event>
 4    1  0.6132688E+000  0.1000000E+03  0.7546771E-02  0.1280296E+00
         21   -1    0    0  503  502  0.00000000000E+00  0.00000000000E+00  0.30156098543E+03  0.30156098543E+03  0.00000000000E+00 0.  1.
         21   -1    0    0  501  503 -0.00000000000E+00 -0.00000000000E+00 -0.21661006303E+03  0.21661006303E+03  0.00000000000E+00 0. -1.
          6    1    1    2  501    0  0.97115081542E+02  0.27296460131E+02 -0.11849709584E+03  0.23269507412E+03  0.17300000000E+03 0.  1.
         -6    1    1    2    0  502 -0.97115081542E+02 -0.27296460131E+02  0.20344801824E+03  0.28547597434E+03  0.17300000000E+03 0.  1.
</event>
<event>
 4    1  0.6132688E+000  0.1000000E+03  0.7546771E-02  0.1280296E+00
         21   -1    0    0  503  502  0.00000000000E+00  0.00000000000E+00  0.12380339028E+03  0.12380339028E+03  0.00000000000E+00 0. -1.
         21   -1    0    0  501  503 -0.00000000000E+00 -0.00000000000E+00 -0.10337262220E+04  0.10337262220E+04  0.00000000000E+00 0.  1.
          6    1    1    2  501    0 -0.40101582240E+02 -0.25527045427E+03 -0.16883548903E+03  0.35384398268E+03  0.17300000000E+03 0. -1.
         -6    1    1    2    0  502  0.40101582240E+02  0.25527045427E+03 -0.74108734265E+03  0.80368562956E+03  0.17300000000E+03 0.  1.
</event>
<event>
 4    1  0.6132688E+000  0.1000000E+03  0.7546771E-02  0.1280296E+00
         21   -1    0    0  503  502  0.00000000000E+00  0.00000000000E+00  0.30730036243E+03  0.30730036243E+03  0.00000000000E+00 0. -1.
         21   -1    0    0  501  503 -0.00000000000E+00 -0.00000000000E+00 -0.18136934126E+03  0.18136934126E+03  0.00000000000E+00 0. -1.
          6    1    1    2  501    0 -0.46544083782E+02 -0.54310962177E+02 -0.85902171605E+02  0.20597139470E+03  0.17300000000E+03 0. -1.
         -6    1    1    2    0  502  0.46544083782E+02  0.54310962177E+02  0.21183319278E+03  0.28269830900E+03  0.17300000000E+03 0. -1.
</event>
<event>
 4    1  0.6132688E+000  0.1000000E+03  0.7546771E-02  0.1280296E+00
         21   -1    0    0  503  502  0.00000000000E+00  0.00000000000E+00  0.83150422379E+02  0.83150422379E+02  0.00000000000E+00 0. -1.
         21   -1    0    0  501  503 -0.00000000000E+00 -0.00000000000E+00 -0.44896185229E+03  0.44896185229E+03  0.00000000000E+00 0. -1.
          6    1    1    2  501    0  0.82829675084E+02 -0.22293502574E+02 -0.19210308642E+03  0.27237905783E+03  0.17300000000E+03 0. -1.
         -6    1    1    2    0  502 -0.82829675084E+02  0.22293502574E+02 -0.17370834349E+03  0.25973321684E+03  0.17300000000E+03 0. -1.
</event>
<event>
 4    1  0.6132688E+000  0.1000000E+03  0.7546771E-02  0.1280296E+00
         21   -1    0    0  503  502  0.00000000000E+00  0.00000000000E+00  0.10513338896E+04  0.10513338896E+04  0.00000000000E+00 0. -1.
         21   -1    0    0  501  503 -0.00000000000E+00 -0.00000000000E+00 -0.18049810853E+03  0.18049810853E+03  0.00000000000E+00 0. -1.
          6    1    1    2  501    0  0.33205249246E+03  0.11527557902E+03  0.16608268761E+03  0.42551119373E+03  0.17300000000E+03 0. -1.
         -6    1    1    2    0  502 -0.33205249246E+03 -0.11527557902E+03  0.70475309351E+03  0.80632080444E+03  0.17300000000E+03 0. -1.
</event>
<event>
 4    1  0.6132688E+000  0.1000000E+03  0.7546771E-02  0.1280296E+00
         21   -1    0    0  503  502  0.00000000000E+00  0.00000000000E+00  0.31510823678E+03  0.31510823678E+03  0.00000000000E+00 0. -1.
         21   -1    0    0  501  503 -0.00000000000E+00 -0.00000000000E+00 -0.22082313305E+03  0.22082313305E+03  0.00000000000E+00 0. -1.
          6    1    1    2  501    0  0.15479888554E+03 -0.10270990344E+03 -0.25702522099E+02  0.25515022805E+03  0.17300000000E+03 0. -1.
         -6    1    1    2    0  502 -0.15479888554E+03  0.10270990344E+03  0.11998762583E+03  0.28078114179E+03  0.17300000000E+03 0. -1.
</event>
<event>
 4    1  0.6132688E+000  0.1000000E+03  0.7546771E-02  0.1280296E+00
         21   -1    0    0  501  502  0.00000000000E+00  0.00000000000E+00  0.16363125911E+04  0.16363125911E+04  0.00000000000E+00 0.  1.
         21   -1    0    0  502  503 -0.00000000000E+00 -0.00000000000E+00 -0.27978661411E+02  0.27978661411E+02  0.00000000000E+00 0.  1.
          6    1    1    2  501    0 -0.11192882463E+03 -0.27856973576E+02  0.10005108931E+04  0.10218880173E+04  0.17300000000E+03 0.  1.
         -6    1    1    2    0  503  0.11192882463E+03  0.27856973576E+02  0.60782303659E+03  0.64240323518E+03  0.17300000000E+03 0.  1.
</event>
<event>
 4    1  0.6132688E+000  0.1000000E+03  0.7546771E-02  0.1280296E+00
         21   -1    0    0  501  502  0.00000000000E+00  0.00000000000E+00  0.72102829954E+02  0.72102829954E+02  0.00000000000E+00 0.  1.
         21   -1    0    0  502  503 -0.00000000000E+00 -0.00000000000E+00 -0.98122090810E+03  0.98122090810E+03  0.00000000000E+00 0.  1.
          6    1    1    2  501    0 -0.19507933517E+03  0.20059203344E+02 -0.35833912209E+03  0.44361497390E+03  0.17300000000E+03 0.  1.
         -6    1    1    2    0  503  0.19507933517E+03 -0.20059203344E+02 -0.55077895606E+03  0.60970876415E+03  0.17300000000E+03 0.  1.
</event>
<event>
 4    1  0.6132688E+000  0.1000000E+03  0.7546771E-02  0.1280296E+00
         21   -1    0    0  501  502  0.00000000000E+00  0.00000000000E+00  0.13694848213E+03  0.13694848213E+03  0.00000000000E+00 0.  1.
         21   -1    0    0  502  503 -0.00000000000E+00 -0.00000000000E+00 -0.33137026583E+03  0.33137026583E+03  0.00000000000E+00 0.  1.
          6    1    1    2  501    0  0.38788260158E+02 -0.78983843503E+02 -0.70226670046E+00  0.19409397167E+03  0.17300000000E+03 0.  1.
         -6    1    1    2    0  503 -0.38788260158E+02  0.78983843503E+02 -0.19371951700E+03  0.27422477628E+03  0.17300000000E+03 0.  1.
</event>
<event>
 4    1  0.6132688E+000  0.1000000E+03  0.7546771E-02  0.1280296E+00
         21   -1    0    0  501  502  0.00000000000E+00  0.00000000000E+00  0.12792336113E+04  0.12792336113E+04  0.00000000000E+00 0. -1.
         21   -1    0    0  502  503 -0.00000000000E+00 -0.00000000000E+00 -0.32998625547E+02  0.32998625547E+02  0.00000000000E+00 0. -1.
          6    1    1    2  501    0 -0.82678270165E+01 -0.10075559075E+03  0.76819587083E+03  0.79389794180E+03  0.17300000000E+03 0. -1.
         -6    1    1    2    0  503  0.82678270165E+01  0.10075559075E+03  0.47803911497E+03  0.51833429509E+03  0.17300000000E+03 0. -1.
</event>
<event>
 4    1  0.6132688E+000  0.1000000E+03  0.7546771E-02  0.1280296E+00
         21   -1    0    0  501  502  0.00000000000E+00  0.00000000000E+00  0.78733947334E+03  0.78733947334E+03  0.00000000000E+00 0. -1.
         21   -1    0    0  502  503 -0.00000000000E+00 -0.00000000000E+00 -0.12198110918E+03  0.12198110918E+03  0.00000000000E+00 0.  1.
          6    1    1    2  501    0  0.91595535823E+02  0.37691550147E+02  0.68079066225E+03  0.70937671300E+03  0.17300000000E+03 0. -1.
         -6    1    1    2    0  503 -0.91595535823E+02 -0.37691550147E+02 -0.15432298093E+02  0.19994386952E+03  0.17300000000E+03 0.  1.
</event>
<event>
 4    1  0.6132688E+000  0.1000000E+03  0.7546771E-02  0.1280296E+00
         21   -1    0    0  501  502  0.00000000000E+00  0.00000000000E+00  0.18566657618E+03  0.18566657618E+03  0.00000000000E+00 0. -1.
         21   -1    0    0  502  503 -0.00000000000E+00 -0.00000000000E+00 -0.29104261786E+03  0.29104261786E+03  0.00000000000E+00 0.  1.
          6    1    1    2  501    0  0.15510604585E+03 -0.67327343376E+01 -0.50471902180E+02  0.23786472643E+03  0.17300000000E+03 0. -1.
         -6    1    1    2    0  503 -0.15510604585E+03  0.67327343376E+01 -0.54904139497E+02  0.23884446761E+03  0.17300000000E+03 0.  1.
</event>
<event>
 4    1  0.6132688E+000  0.1000000E+03  0.7546771E-02  0.1280296E+00
         21   -1    0    0  501  502  0.00000000000E+00  0.00000000000E+00  0.10734058556E+03  0.10734058556E+03  0.00000000000E+00 0. -1.
         21   -1    0    0  502  503 -0.00000000000E+00 -0.00000000000E+00 -0.97586271896E+03  0.97586271896E+03  0.00000000000E+00 0.  1.
          6    1    1    2  501    0 -0.63369594006E+02  0.21341118800E+03 -0.16829528242E+03  0.32834789887E+03  0.17300000000E+03 0. -1.
         -6    1    1    2    0  503  0.63369594006E+02 -0.21341118800E+03 -0.70022685098E+03  0.75485540565E+03  0.17300000000E+03 0.  1.
</event>
<event>
 4    1  0.6132688E+000  0.1000000E+03  0.7546771E-02  0.1280296E+00
         21   -1    0    0  501  502  0.00000000000E+00  0.00000000000E+00  0.11624242974E+03  0.11624242974E+03  0.00000000000E+00 0. -1.
         21   -1    0    0  502  503 -0.00000000000E+00 -0.00000000000E+00 -0.34741454032E+03  0.34741454032E+03  0.00000000000E+00 0.  1.
          6    1    1    2  501    0  0.55881027575E+02 -0.71085796000E+02 -0.60508626880E+02  0.20436774100E+03  0.17300000000E+03 0. -1.
         -6    1    1    2    0  503 -0.55881027575E+02  0.71085796000E+02 -0.17066348370E+03  0.25928922905E+03  0.17300000000E+03 0.  1.
</event>
<event>
 4    1  0.6132688E+000  0.1000000E+03  0.7546771E-02  0.1280296E+00
         21   -1    0    0  501  502  0.00000000000E+00  0.00000000000E+00  0.35739267162E+02  0.35739267162E+02  0.00000000000E+00 0. -1.
         21   -1    0    0  502  503 -0.00000000000E+00 -0.00000000000E+00 -0.11134599360E+04  0.11134599360E+04  0.00000000000E+00 0.  1.
          6    1    1    2  501    0 -0.41676103043E+02 -0.40721771925E+02 -0.30716884095E+03  0.35731898511E+03  0.17300000000E+03 0. -1.
         -6    1    1    2    0  503  0.41676103043E+02  0.40721771925E+02 -0.77055182791E+03  0.79188021807E+03  0.17300000000E+03 0.  1.
</event>
<event>
 4    1  0.6132688E+000  0.1000000E+03  0.7546771E-02  0.1280296E+00
         21   -1    0    0  503  502  0.00000000000E+00  0.00000000000E+00  0.11837041292E+03  0.11837041292E+03  0.00000000000E+00 0. -1.
         21   -1    0    0  501  503 -0.00000000000E+00 -0.00000000000E+00 -0.58604287225E+03  0.58604287225E+03  0.00000000000E+00 0. -1.
          6    1    1    2  501    0 -0.45093835428E+02  0.13201519204E+02 -0.49187064311E+03  0.52352026098E+03  0.17300000000E+03 0. -1.
         -6    1    1    2    0  502  0.45093835428E+02 -0.13201519204E+02  0.24198183784E+02  0.18089302419E+03  0.17300000000E+03 0. -1.
</event>
<event>
 4    1  0.6132688E+000  0.1000000E+03  0.7546771E-02  0.1280296E+00
         21   -1    0    0  503  502  0.00000000000E+00  0.00000000000E+00  0.12116977794E+04  0.12116977794E+04  0.00000000000E+00 0. -1.
         21   -1    0    0  501  503 -0.00000000000E+00 -0.00000000000E+00 -0.13610680118E+03  0.13610680118E+03  0.00000000000E+00 0. -1.
          6    1    1    2  501    0 -0.24305548819E+03 -0.82290662231E+02  0.10144465503E+03  0.32568042843E+03  0.17300000000E+03 0. -1.
         -6    1    1    2    0  502  0.24305548819E+03  0.82290662231E+02  0.97414632318E+03  0.10221241521E+04  0.17300000000E+03 0. -1.
</event>
<event>
 4    1  0.6132688E+000  0.1000000E+03  0.7546771E-02  0.1280296E+00
         21   -1    0    0  503  502  0.00000000000E+00  0.00000000000E+00  0.14638887621E+03  0.14638887621E+03  0.00000000000E+00 0. -1.
         21   -1    0    0  501  503 -0.00000000000E+00 -0.00000000000E+00 -0.36061239856E+03  0.36061239856E+03  0.00000000000E+00 0. -1.
          6    1    1    2  501    0 -0.96325869632E+02 -0.84409561619E+02 -0.19577017682E+03  0.29096152561E+03  0.17300000000E+03 0. -1.
         -6    1    1    2    0  502  0.96325869632E+02  0.84409561619E+02 -0.18453345524E+02  0.21603974915E+03  0.17300000000E+03 0. -1.
</event>
<event>
 4    1  0.6132688E+000  0.1000000E+03  0.7546771E-02  0.1280296E+00
         21   -1    0    0  503  502  0.00000000000E+00  0.00000000000E+00  0.14062868464E+03  0.14062868464E+03  0.00000000000E+00 0. -1.
         21   -1    0    0  501  503 -0.00000000000E+00 -0.00000000000E+00 -0.49540523817E+03  0.49540523817E+03  0.00000000000E+00 0.  1.
          6    1    1    2  501    0 -0.19328796177E+03 -0.24184467155E+02 -0.12635519443E+03  0.28955096231E+03  0.17300000000E+03 0.  1.
         -6    1    1    2    0  502  0.19328796177E+03  0.24184467155E+02 -0.22842135910E+03  0.34648296049E+03  0.17300000000E+03 0. -1.
</event>
<event>
 4    1  0.6132688E+000  0.1000000E+03  0.7546771E-02  0.1280296E+00
         21   -1    0    0  503  502  0.00000000000E+00  0.00000000000E+00  0.14992402894E+03  0.14992402894E+03  0.00000000000E+00 0. -1.
         21   -1    0    0  501  503 -0.00000000000E+00 -0.00000000000E+00 -0.57260381560E+03  0.57260381560E+03  0.00000000000E+00 0.  1.
          6    1    1    2  501    0  0.13741865594E+03 -0.11303261160E+03 -0.40337811305E+03  0.47360654596E+03  0.17300000000E+03 0.  1.
         -6    1    1    2    0  502 -0.13741865594E+03  0.11303261160E+03 -0.19301673617E+02  0.24892129859E+03  0.17300000000E+03 0. -1.
</event>
<event>
 4    1  0.6132688E+000  0.1000000E+03  0.7546771E-02  0.1280296E+00
         21   -1    0    0  503  502  0.00000000000E+00  0.00000000000E+00  0.19684538884E+03  0.19684538884E+03  0.00000000000E+00 0.  1.
         21   -1    0    0  501  503 -0.00000000000E+00 -0.00000000000E+00 -0.17426552263E+03  0.17426552263E+03  0.00000000000E+00 0.  1.
          6    1    1    2  501    0  0.17982948470E+02 -0.16353358391E+01 -0.52454449181E+02  0.18167699358E+03  0.17300000000E+03 0.  1.
         -6    1    1    2    0  502 -0.17982948470E+02  0.16353358391E+01  0.75034315395E+02  0.18943391789E+03  0.17300000000E+03 0.  1.
</event>
<event>
 4    1  0.6132688E+000  0.1000000E+03  0.7546771E-02  0.1280296E+00
         21   -1    0    0  503  502  0.00000000000E+00  0.00000000000E+00  0.36895189721E+03  0.36895189721E+03  0.00000000000E+00 0.  1.
         21   -1    0    0  501  503 -0.00000000000E+00 -0.00000000000E+00 -0.53698648743E+03  0.53698648743E+03  0.00000000000E+00 0.  1.
          6    1    1    2  501    0  0.93939848633E+02 -0.85491963060E+02 -0.48085145754E+03  0.52657449153E+03  0.17300000000E+03 0.  1.
         -6    1    1    2    0  502 -0.93939848633E+02  0.85491963060E+02  0.31281686732E+03  0.37936389310E+03  0.17300000000E+03 0.  1.
</event>
<event>
 4    1  0.6132688E+000  0.1000000E+03  0.7546771E-02  0.1280296E+00
         21   -1    0    0  503  502  0.00000000000E+00  0.00000000000E+00  0.84298591719E+03  0.84298591719E+03  0.00000000000E+00 0.  1.
         21   -1    0    0  501  503 -0.00000000000E+00 -0.00000000000E+00 -0.48810851608E+02  0.48810851608E+02  0.00000000000E+00 0.  1.
          6    1    1    2  501    0 -0.55175328394E+02 -0.78365623832E+02  0.29798854524E+03  0.35764739753E+03  0.17300000000E+03 0.  1.
         -6    1    1    2    0  502  0.55175328394E+02  0.78365623832E+02  0.49618652034E+03  0.53414937127E+03  0.17300000000E+03 0.  1.
</event>
<event>
 4    1  0.6132688E+000  0.1000000E+03  0.7546771E-02  0.1280296E+00
         21   -1    0    0  503  502  0.00000000000E+00  0.00000000000E+00  0.16937672355E+03  0.16937672355E+03  0.00000000000E+00 0.  1.
         21   -1    0    0  501  503 -0.00000000000E+00 -0.00000000000E+00 -0.61592058391E+03  0.61592058391E+03  0.00000000000E+00 0.  1.
          6    1    1    2  501    0 -0.88122246352E+00 -0.50376887535E+01 -0.55478934815E+03  0.58115950967E+03  0.17300000000E+03 0.  1.
         -6    1    1    2    0  502  0.88122246352E+00  0.50376887535E+01  0.10824548779E+03  0.20413779779E+03  0.17300000000E+03 0.  1.
</event>
<event>
 4    1  0.6132688E+000  0.1000000E+03  0.7546771E-02  0.1280296E+00
         21   -1    0    0  503  502  0.00000000000E+00  0.00000000000E+00  0.70507001449E+03  0.70507001449E+03  0.00000000000E+00 0. -1.
         21   -1    0    0  501  503 -0.00000000000E+00 -0.00000000000E+00 -0.85748470967E+02  0.85748470967E+02  0.00000000000E+00 0.  1.
          6    1    1    2  501    0 -0.30841594756E+02 -0.11027390533E+03  0.97425110304E+02  0.22919901894E+03  0.17300000000E+03 0.  1.
         -6    1    1    2    0  502  0.30841594756E+02  0.11027390533E+03  0.52189643322E+03  0.56161946651E+03  0.17300000000E+03 0. -1.
</event>
<event>
 4    1  0.6132688E+000  0.1000000E+03  0.7546771E-02  0.1280296E+00
         21   -1    0    0  503  502  0.00000000000E+00  0.00000000000E+00  0.23167226169E+04  0.23167226169E+04  0.00000000000E+00 0. -1.
         21   -1    0    0  501  503 -0.00000000000E+00 -0.00000000000E+00 -0.26480455777E+02  0.26480455777E+02  0.00000000000E+00 0.  1.
          6    1    1    2  501    0 -0.86780563252E+02 -0.11447629094E+03  0.65392636895E+03  0.69150877316E+03  0.17300000000E+03 0.  1.
         -6    1    1    2    0  502  0.86780563252E+02  0.11447629094E+03  0.16363157922E+04  0.16516942996E+04  0.17300000000E+03 0. -1.
</event>
<event>
 4    1  0.6132688E+000  0.1000000E+03  0.7546771E-02  0.1280296E+00
         21   -1    0    0  503  502  0.00000000000E+00  0.00000000000E+00  0.54788790640E+03  0.54788790640E+03  0.00000000000E+00 0. -1.
         21   -1    0    0  501  503 -0.00000000000E+00 -0.00000000000E+00 -0.64735494679E+02  0.64735494679E+02  0.00000000000E+00 0.  1.
          6    1    1    2  501    0 -0.63541652142E+02 -0.26286883071E+02  0.28787362512E+03  0.34282468671E+03  0.17300000000E+03 0.  1.
         -6    1    1    2    0  502  0.63541652142E+02  0.26286883071E+02  0.19527878661E+03  0.26979871437E+03  0.17300000000E+03 0. -1.
</event>
<event>
 4    1  0.6132688E+000  0.1000000E+03  0.7546771E-02  0.1280296E+00
         21   -1    0    0  503  502  0.00000000000E+00  0.00000000000E+00  0.48738983308E+03  0.48738983308E+03  0.00000000000E+00 0. -1.
         21   -1    0    0  501  503 -0.00000000000E+00 -0.00000000000E+00 -0.19033273615E+03  0.19033273615E+03  0.00000000000E+00 0.  1.
          6    1    1    2  501    0  0.56627503763E+02 -0.22701980787E+03  0.48443249309E+02  0.29499222999E+03  0.17300000000E+03 0.  1.
         -6    1    1    2    0  502 -0.56627503763E+02  0.22701980787E+03  0.24861384762E+03  0.38273033925E+03  0.17300000000E+03 0. -1.
</event>
<event>
 4    1  0.6132688E+000  0.1000000E+03  0.7546771E-02  0.1280296E+00
         21   -1    0    0  503  502  0.00000000000E+00  0.00000000000E+00  0.41874488109E+02  0.41874488109E+02  0.00000000000E+00 0.  1.
         21   -1    0    0  501  503 -0.00000000000E+00 -0.00000000000E+00 -0.12896125821E+04  0.12896125821E+04  0.00000000000E+00 0.  1.
          6    1    1    2  501    0 -0.65748963994E+02 -0.22159943128E+02 -0.10214431205E+04  0.10383106654E+04  0.17300000000E+03 0.  1.
         -6    1    1    2    0  502  0.65748963994E+02  0.22159943128E+02 -0.22629497350E+03  0.29317640488E+03  0.17300000000E+03 0.  1.
</event>
<event>
 4    1  0.6132688E+000  0.1000000E+03  0.7546771E-02  0.1280296E+00
         21   -1    0    0  503  502  0.00000000000E+00  0.00000000000E+00  0.74082035466E+03  0.74082035466E+03  0.00000000000E+00 0.  1.
         21   -1    0    0  501  503 -0.00000000000E+00 -0.00000000000E+00 -0.48418858017E+02  0.48418858017E+02  0.00000000000E+00 0.  1.
          6    1    1    2  501    0 -0.61579662901E+02  0.11942005365E+02  0.25287931636E+03  0.31274848524E+03  0.17300000000E+03 0.  1.
         -6    1    1    2    0  502  0.61579662901E+02 -0.11942005365E+02  0.43952218028E+03  0.47649072744E+03  0.17300000000E+03 0.  1.
</event>
<event>
 4    1  0.6132688E+000  0.1000000E+03  0.7546771E-02  0.1280296E+00
         21   -1    0    0  503  502  0.00000000000E+00  0.00000000000E+00  0.15811137841E+03  0.15811137841E+03  0.00000000000E+00 0. -1.
         21   -1    0    0  501  503 -0.00000000000E+00 -0.00000000000E+00 -0.47124899516E+03  0.47124899516E+03  0.00000000000E+00 0. -1.
          6    1    1    2  501    0 -0.69321451388E+02 -0.63926705213E+02 -0.37435394244E+03  0.42303895977E+03  0.17300000000E+03 0. -1.
         -6    1    1    2    0  502  0.69321451388E+02  0.63926705213E+02  0.61216325693E+02  0.20632141380E+03  0.17300000000E+03 0. -1.
</event>
<event>
 4    1  0.6132688E+000  0.1000000E+03  0.7546771E-02  0.1280296E+00
         21   -1    0    0  503  502  0.00000000000E+00  0.00000000000E+00  0.28246184841E+03  0.28246184841E+03  0.00000000000E+00 0. -1.
         21   -1    0    0  501  503 -0.00000000000E+00 -0.00000000000E+00 -0.13374630309E+03  0.13374630309E+03  0.00000000000E+00 0. -1.
          6    1    1    2  501    0  0.56027584770E+02 -0.75952379348E+01  0.14738766427E+03  0.23419842330E+03  0.17300000000E+03 0. -1.
         -6    1    1    2    0  502 -0.56027584770E+02  0.75952379348E+01  0.13278810463E+01  0.18200972821E+03  0.17300000000E+03 0. -1.
</event>
<event>
 4    1  0.6132688E+000  0.1000000E+03  0.7546771E-02  0.1280296E+00
         21   -1    0    0  503  502  0.00000000000E+00  0.00000000000E+00  0.53949271750E+03  0.53949271750E+03  0.00000000000E+00 0. -1.
         21   -1    0    0  501  503 -0.00000000000E+00 -0.00000000000E+00 -0.74227295562E+02  0.74227295562E+02  0.00000000000E+00 0. -1.
          6    1    1    2  501    0 -0.43124596784E+02 -0.51486597537E+02  0.11782468006E+03  0.21982323763E+03  0.17300000000E+03 0. -1.
         -6    1    1    2    0  502  0.43124596784E+02  0.51486597537E+02  0.34744074188E+03  0.39389677543E+03  0.17300000000E+03 0. -1.
</event>
<event>
 4    1  0.6132688E+000  0.1000000E+03  0.7546771E-02  0.1280296E+00
         21   -1    0    0  503  502  0.00000000000E+00  0.00000000000E+00  0.15452673423E+04  0.15452673423E+04  0.00000000000E+00 0. -1.
         21   -1    0    0  501  503 -0.00000000000E+00 -0.00000000000E+00 -0.41253247906E+02  0.41253247906E+02  0.00000000000E+00 0. -1.
          6    1    1    2  501    0  0.59549863217E+02 -0.61278888782E+02  0.24038754211E+03  0.30824739873E+03  0.17300000000E+03 0. -1.
         -6    1    1    2    0  502 -0.59549863217E+02  0.61278888782E+02  0.12636265523E+04  0.12782731915E+04  0.17300000000E+03 0. -1.
</event>
<event>
 4    1  0.6132688E+000  0.1000000E+03  0.7546771E-02  0.1280296E+00
         21   -1    0    0  501  502  0.00000000000E+00  0.00000000000E+00  0.34097311856E+03  0.34097311856E+03  0.00000000000E+00 0.  1.
         21   -1    0    0  502  503 -0.00000000000E+00 -0.00000000000E+00 -0.14423745453E+03  0.14423745453E+03  0.00000000000E+00 0.  1.
          6    1    1    2  501    0 -0.67197365289E+02  0.11924085314E+03  0.12327139500E+03  0.25270279734E+03  0.17300000000E+03 0.  1.
         -6    1    1    2    0  503  0.67197365289E+02 -0.11924085314E+03  0.73464269033E+02  0.23250777575E+03  0.17300000000E+03 0.  1.
</event>
<event>
 4    1  0.6132688E+000  0.1000000E+03  0.7546771E-02  0.1280296E+00
         21   -1    0    0  503  502  0.00000000000E+00  0.00000000000E+00  0.33129601665E+03  0.33129601665E+03  0.00000000000E+00 0.  1.
         21   -1    0    0  501  503 -0.00000000000E+00 -0.00000000000E+00 -0.12383825412E+03  0.12383825412E+03  0.00000000000E+00 0.  1.
          6    1    1    2  501    0 -0.94517647210E+02 -0.33453985147E+02  0.67403672794E+02  0.21100950183E+03  0.17300000000E+03 0.  1.
         -6    1    1    2    0  502  0.94517647210E+02  0.33453985147E+02  0.14005408974E+03  0.24412476894E+03  0.17300000000E+03 0.  1.
</event>
<event>
 4    1  0.6132688E+000  0.1000000E+03  0.7546771E-02  0.1280296E+00
         21   -1    0    0  503  502  0.00000000000E+00  0.00000000000E+00  0.15566507266E+03  0.15566507266E+03  0.00000000000E+00 0.  1.
         21   -1    0    0  501  503 -0.00000000000E+00 -0.00000000000E+00 -0.78868940431E+03  0.78868940431E+03  0.00000000000E+00 0.  1.
          6    1    1    2  501    0  0.12382353981E+03  0.42781004604E+02 -0.68723279970E+03  0.72068051475E+03  0.17300000000E+03 0.  1.
         -6    1    1    2    0  502 -0.12382353981E+03 -0.42781004604E+02  0.54208468041E+02  0.22367396222E+03  0.17300000000E+03 0.  1.
</event>
<event>
 4    1  0.6132688E+000  0.1000000E+03  0.7546771E-02  0.1280296E+00
         21   -1    0    0  503  502  0.00000000000E+00  0.00000000000E+00  0.25368387736E+02  0.25368387736E+02  0.00000000000E+00 0.  1.
         21   -1    0    0  501  503 -0.00000000000E+00 -0.00000000000E+00 -0.19477393386E+04  0.19477393386E+04  0.00000000000E+00 0.  1.
          6    1    1    2  501    0  0.11089537147E+03  0.65939205423E+02 -0.11975491786E+04  0.12168396761E+04  0.17300000000E+03 0.  1.
         -6    1    1    2    0  502 -0.11089537147E+03 -0.65939205423E+02 -0.72482177234E+03  0.75626805028E+03  0.17300000000E+03 0.  1.
</event>
<event>
 4    1  0.6132688E+000  0.1000000E+03  0.7546771E-02  0.1280296E+00
         21   -1    0    0  503  502  0.00000000000E+00  0.00000000000E+00  0.15246085459E+03  0.15246085459E+03  0.00000000000E+00 0. -1.
         21   -1    0    0  501  503 -0.00000000000E+00 -0.00000000000E+00 -0.31900736394E+03  0.31900736394E+03  0.00000000000E+00 0. -1.
          6    1    1    2  501    0  0.13536428268E+03 -0.55681072555E+01 -0.63200350411E+02  0.22864334046E+03  0.17300000000E+03 0. -1.
         -6    1    1    2    0  502 -0.13536428268E+03  0.55681072555E+01 -0.10334615894E+03  0.24282487808E+03  0.17300000000E+03 0. -1.
</event>
<event>
 4    1  0.6132688E+000  0.1000000E+03  0.7546771E-02  0.1280296E+00
         21   -1    0    0  503  502  0.00000000000E+00  0.00000000000E+00  0.70584987399E+02  0.70584987399E+02  0.00000000000E+00 0. -1.
         21   -1    0    0  501  503 -0.00000000000E+00 -0.00000000000E+00 -0.71349217536E+03  0.71349217536E+03  0.00000000000E+00 0. -1.
          6    1    1    2  501    0  0.48336931547E+02  0.29138351725E+02 -0.55087768206E+03  0.58015577484E+03  0.17300000000E+03 0. -1.
         -6    1    1    2    0  502 -0.48336931547E+02 -0.29138351725E+02 -0.92029505902E+02  0.20392138792E+03  0.17300000000E+03 0. -1.
</event>
<event>
 4    1  0.6132688E+000  0.1000000E+03  0.7546771E-02  0.1280296E+00
         21   -1    0    0  501  502  0.00000000000E+00  0.00000000000E+00  0.48420311744E+03  0.48420311744E+03  0.00000000000E+00 0. -1.
         21   -1    0    0  502  503 -0.00000000000E+00 -0.00000000000E+00 -0.18695207637E+03  0.18695207637E+03  0.00000000000E+00 0.  1.
          6    1    1    2  501    0  0.16092170895E+02  0.24229652887E+03  0.19361760713E+03  0.35550435111E+03  0.17300000000E+03 0. -1.
         -6    1    1    2    0  503 -0.16092170895E+02 -0.24229652887E+03  0.10363343394E+03  0.31565084270E+03  0.17300000000E+03 0.  1.
</event>
<event>
 4    1  0.6132688E+000  0.1000000E+03  0.7546771E-02  0.1280296E+00
         21   -1    0    0  501  502  0.00000000000E+00  0.00000000000E+00  0.53930528582E+03  0.53930528582E+03  0.00000000000E+00 0. -1.
         21   -1    0    0  502  503 -0.00000000000E+00 -0.00000000000E+00 -0.32410051316E+03  0.32410051316E+03  0.00000000000E+00 0.  1.
          6    1    1    2  501    0 -0.99429984447E+01  0.81727738157E+02  0.49130613338E+03  0.52734144830E+03  0.17300000000E+03 0. -1.
         -6    1    1    2    0  503  0.99429984447E+01 -0.81727738157E+02 -0.27610136072E+03  0.33606435067E+03  0.17300000000E+03 0.  1.
</event>
<event>
 4    1  0.6132688E+000  0.1000000E+03  0.7546771E-02  0.1280296E+00
         21   -1    0    0  501  502  0.00000000000E+00  0.00000000000E+00  0.63382124395E+03  0.63382124395E+03  0.00000000000E+00 0. -1.
         21   -1    0    0  502  503 -0.00000000000E+00 -0.00000000000E+00 -0.64144362192E+02  0.64144362192E+02  0.00000000000E+00 0. -1.
          6    1    1    2  501    0  0.80599118952E+02 -0.17369830174E+02  0.17634846568E+03  0.26043369660E+03  0.17300000000E+03 0. -1.
         -6    1    1    2    0  503 -0.80599118952E+02  0.17369830174E+02  0.39332841608E+03  0.43753190954E+03  0.17300000000E+03 0. -1.
</event>
<event>
 4    1  0.6132688E+000  0.1000000E+03  0.7546771E-02  0.1280296E+00
         21   -1    0    0  501  502  0.00000000000E+00  0.00000000000E+00  0.67430924246E+02  0.67430924246E+02  0.00000000000E+00 0. -1.
         21   -1    0    0  502  503 -0.00000000000E+00 -0.00000000000E+00 -0.58973055059E+03  0.58973055059E+03  0.00000000000E+00 0. -1.
          6    1    1    2  501    0 -0.27262943991E+02 -0.40529301346E+02 -0.11891746971E+03  0.21553713598E+03  0.17300000000E+03 0. -1.
         -6    1    1    2    0  503  0.27262943991E+02  0.40529301346E+02 -0.40338215663E+03  0.44162433886E+03  0.17300000000E+03 0. -1.
</event>
<event>
 4    1  0.6132688E+000  0.1000000E+03  0.7546771E-02  0.1280296E+00
         21   -1    0    0  501  502  0.00000000000E+00  0.00000000000E+00  0.57646225868E+03  0.57646225868E+03  0.00000000000E+00 0. -1.
         21   -1    0    0  502  503 -0.00000000000E+00 -0.00000000000E+00 -0.11477103871E+03  0.11477103871E+03  0.00000000000E+00 0. -1.
          6    1    1    2  501    0 -0.20433711112E+02  0.22321584572E+02  0.48335711196E+03  0.51427510864E+03  0.17300000000E+03 0. -1.
         -6    1    1    2    0  503  0.20433711112E+02 -0.22321584572E+02 -0.21665891987E+02  0.17695818874E+03  0.17300000000E+03 0. -1.
</event>
<event>
 4    1  0.6132688E+000  0.1000000E+03  0.7546771E-02  0.1280296E+00
         21   -1    0    0  503  502  0.00000000000E+00  0.00000000000E+00  0.24922336629E+02  0.24922336629E+02  0.00000000000E+00 0.  1.
         21   -1    0    0  501  503 -0.00000000000E+00 -0.00000000000E+00 -0.24772061371E+04  0.24772061371E+04  0.00000000000E+00 0. -1.
          6    1    1    2  501    0 -0.22067091051E+02  0.15612239177E+03 -0.16458253040E+04  0.16623871658E+04  0.17300000000E+03 0. -1.
         -6    1    1    2    0  502  0.22067091051E+02 -0.15612239177E+03 -0.80645849646E+03  0.83974130793E+03  0.17300000000E+03 0.  1.
</event>
<event>
 4    1  0.6132688E+000  0.1000000E+03  0.7546771E-02  0.1280296E+00
         21   -1    0    0  503  502  0.00000000000E+00  0.00000000000E+00  0.14090727366E+03  0.14090727366E+03  0.00000000000E+00 0.  1.
         21   -1    0    0  501  503 -0.00000000000E+00 -0.00000000000E+00 -0.30803852664E+03  0.30803852664E+03  0.00000000000E+00 0. -1.
          6    1    1    2  501    0  0.24577202307E+02  0.59476737695E+02 -0.18766225927E+03  0.26322546372E+03  0.17300000000E+03 0. -1.
         -6    1    1    2    0  502 -0.24577202307E+02 -0.59476737695E+02  0.20531006283E+02  0.18572033658E+03  0.17300000000E+03 0.  1.
</event>
<event>
 4    1  0.6132688E+000  0.1000000E+03  0.7546771E-02  0.1280296E+00
         21   -1    0    0  503  502  0.00000000000E+00  0.00000000000E+00  0.11034282164E+04  0.11034282164E+04  0.00000000000E+00 0. -1.
         21   -1    0    0  501  503 -0.00000000000E+00 -0.00000000000E+00 -0.82418413685E+02  0.82418413685E+02  0.00000000000E+00 0.  1.
          6    1    1    2  501    0 -0.17824951022E+03  0.53624396059E+02  0.19125480027E+03  0.31805009413E+03  0.17300000000E+03 0.  1.
         -6    1    1    2    0  502  0.17824951022E+03 -0.53624396059E+02  0.82975500244E+03  0.86779653596E+03  0.17300000000E+03 0. -1.
</event>
<event>
 4    1  0.6132688E+000  0.1000000E+03  0.7546771E-02  0.1280296E+00
         21   -1    0    0  503  502  0.00000000000E+00  0.00000000000E+00  0.18066991208E+04  0.18066991208E+04  0.00000000000E+00 0. -1.
         21   -1    0    0  501  503 -0.00000000000E+00 -0.00000000000E+00 -0.21838790559E+02  0.21838790559E+02  0.00000000000E+00 0.  1.
          6    1    1    2  501    0  0.69875210752E+02  0.46624494839E+02  0.66364394765E+03  0.69094766650E+03  0.17300000000E+03 0.  1.
         -6    1    1    2    0  502 -0.69875210752E+02 -0.46624494839E+02  0.11212163826E+04  0.11375902449E+04  0.17300000000E+03 0. -1.
</event>
<event>
 4    1  0.6132688E+000  0.1000000E+03  0.7546771E-02  0.1280296E+00
         21   -1    0    0  503  502  0.00000000000E+00  0.00000000000E+00  0.22816442233E+03  0.22816442233E+03  0.00000000000E+00 0.  1.
         21   -1    0    0  501  503 -0.00000000000E+00 -0.00000000000E+00 -0.25183898808E+03  0.25183898808E+03  0.00000000000E+00 0. -1.
          6    1    1    2  501    0  0.99514684607E+02  0.78337474590E+01 -0.14453994193E+03  0.24654682084E+03  0.17300000000E+03 0. -1.
         -6    1    1    2    0  502 -0.99514684607E+02 -0.78337474590E+01  0.12086537619E+03  0.23345658957E+03  0.17300000000E+03 0.  1.
</event>
<event>
 4    1  0.6132688E+000  0.1000000E+03  0.7546771E-02  0.1280296E+00
         21   -1    0    0  503  502  0.00000000000E+00  0.00000000000E+00  0.89021943155E+03  0.89021943155E+03  0.00000000000E+00 0.  1.
         21   -1    0    0  501  503 -0.00000000000E+00 -0.00000000000E+00 -0.86874115637E+02  0.86874115637E+02  0.00000000000E+00 0. -1.
          6    1    1    2  501    0 -0.40363948841E+02  0.17204589703E+03  0.17821868715E+03  0.30482772101E+03  0.17300000000E+03 0. -1.
         -6    1    1    2    0  502  0.40363948841E+02 -0.17204589703E+03  0.62512662877E+03  0.67226582617E+03  0.17300000000E+03 0.  1.
</event>
<event>
 4    1  0.6132688E+000  0.1000000E+03  0.7546771E-02  0.1280296E+00
         21   -1    0    0  503  502  0.00000000000E+00  0.00000000000E+00  0.27247934884E+03  0.27247934884E+03  0.00000000000E+00 0.  1.
         21   -1    0    0  501  503 -0.00000000000E+00 -0.00000000000E+00 -0.32502683389E+03  0.32502683389E+03  0.00000000000E+00 0. -1.
          6    1    1    2  501    0 -0.57813367748E+02  0.29050842099E+02 -0.26052181396E+03  0.31935396109E+03  0.17300000000E+03 0. -1.
         -6    1    1    2    0  502  0.57813367748E+02 -0.29050842099E+02  0.20797432891E+03  0.27815222164E+03  0.17300000000E+03 0.  1.
</event>
<event>
 4    1  0.6132688E+000  0.1000000E+03  0.7546771E-02  0.1280296E+00
         21   -1    0    0  501  502  0.00000000000E+00  0.00000000000E+00  0.70846550246E+03  0.70846550246E+03  0.00000000000E+00 0.  1.
         21   -1    0    0  502  503 -0.00000000000E+00 -0.00000000000E+00 -0.11362670785E+03  0.11362670785E+03  0.00000000000E+00 0.  1.
          6    1    1    2  501    0  0.76112080026E+02 -0.73986712371E+00  0.60398494691E+03  0.63286682029E+03  0.17300000000E+03 0.  1.
         -6    1    1    2    0  503 -0.76112080026E+02  0.73986712371E+00 -0.91461522998E+01  0.18922539003E+03  0.17300000000E+03 0.  1.
</event>
<event>
 4    1  0.6132688E+000  0.1000000E+03  0.7546771E-02  0.1280296E+00
         21   -1    0    0  501  502  0.00000000000E+00  0.00000000000E+00  0.57918189799E+03  0.57918189799E+03  0.00000000000E+00 0.  1.
         21   -1    0    0  502  503 -0.00000000000E+00 -0.00000000000E+00 -0.83250923702E+02  0.83250923702E+02  0.00000000000E+00 0.  1.
          6    1    1    2  501    0  0.12143384592E+03  0.20197627904E+02  0.16351922197E+03  0.26799563254E+03  0.17300000000E+03 0.  1.
         -6    1    1    2    0  503 -0.12143384592E+03 -0.20197627904E+02  0.33241175231E+03  0.39443718915E+03  0.17300000000E+03 0.  1.
</event>
<event>
 4    1  0.6132688E+000  0.1000000E+03  0.7546771E-02  0.1280296E+00
         21   -1    0    0  501  502  0.00000000000E+00  0.00000000000E+00  0.22216988170E+03  0.22216988170E+03  0.00000000000E+00 0.  1.
         21   -1    0    0  502  503 -0.00000000000E+00 -0.00000000000E+00 -0.29576174660E+03  0.29576174660E+03  0.00000000000E+00 0.  1.
          6    1    1    2  501    0 -0.12214822949E+03  0.11405891610E+03  0.52716581124E+02  0.24624716087E+03  0.17300000000E+03 0.  1.
         -6    1    1    2    0  503  0.12214822949E+03 -0.11405891610E+03 -0.12630844602E+03  0.27168446744E+03  0.17300000000E+03 0.  1.
</event>
<event>
 4    1  0.6132688E+000  0.1000000E+03  0.7546771E-02  0.1280296E+00
         21   -1    0    0  503  502  0.00000000000E+00  0.00000000000E+00  0.31964205049E+03  0.31964205049E+03  0.00000000000E+00 0. -1.
         21   -1    0    0  501  503 -0.00000000000E+00 -0.00000000000E+00 -0.12824027846E+03  0.12824027846E+03  0.00000000000E+00 0.  1.
          6    1    1    2  501    0  0.41267336958E+02  0.67354410447E+02  0.18890441186E+02  0.19111634800E+03  0.17300000000E+03 0.  1.
         -6    1    1    2    0  502 -0.41267336958E+02 -0.67354410447E+02  0.17251133084E+03  0.25676598095E+03  0.17300000000E+03 0. -1.
</event>
<event>
 4    1  0.6132688E+000  0.1000000E+03  0.7546771E-02  0.1280296E+00
         21   -1    0    0  503  502  0.00000000000E+00  0.00000000000E+00  0.11350635082E+04  0.11350635082E+04  0.00000000000E+00 0. -1.
         21   -1    0    0  501  503 -0.00000000000E+00 -0.00000000000E+00 -0.28502988671E+02  0.28502988671E+02  0.00000000000E+00 0.  1.
          6    1    1    2  501    0  0.47924741324E+02 -0.26133413228E+01  0.58872590164E+03  0.61549232135E+03  0.17300000000E+03 0.  1.
         -6    1    1    2    0  502 -0.47924741324E+02  0.26133413228E+01  0.51783461789E+03  0.54807417552E+03  0.17300000000E+03 0. -1.
</event>
<event>
 4    1  0.6132688E+000  0.1000000E+03  0.7546771E-02  0.1280296E+00
         21   -1    0    0  503  502  0.00000000000E+00  0.00000000000E+00  0.10006199019E+03  0.10006199019E+03  0.00000000000E+00 0.  1.
         21   -1    0    0  501  503 -0.00000000000E+00 -0.00000000000E+00 -0.39844466431E+03  0.39844466431E+03  0.00000000000E+00 0. -1.
          6    1    1    2  501    0  0.67538639271E+02 -0.71871742823E+02 -0.13096640349E+03  0.23834473784E+03  0.17300000000E+03 0. -1.
         -6    1    1    2    0  502 -0.67538639271E+02  0.71871742823E+02 -0.16741627062E+03  0.26016191666E+03  0.17300000000E+03 0. -1.
</event>
<event>
 4    1  0.6132688E+000  0.1000000E+03  0.7546771E-02  0.1280296E+00
         21   -1    0    0  503  502  0.00000000000E+00  0.00000000000E+00  0.81042833571E+03  0.81042833571E+03  0.00000000000E+00 0.  1.
         21   -1    0    0  501  503 -0.00000000000E+00 -0.00000000000E+00 -0.46469904075E+02  0.46469904075E+02  0.00000000000E+00 0. -1.
          6    1    1    2  501    0  0.27568039611E+02 -0.83326912397E+02  0.39369417103E+03  0.43889346251E+03  0.17300000000E+03 0. -1.
         -6    1    1    2    0  502 -0.27568039611E+02  0.83326912397E+02  0.37026426061E+03  0.41800477728E+03  0.17300000000E+03 0. -1.
</event>
<event>
 4    1  0.6132688E+000  0.1000000E+03  0.7546771E-02  0.1280296E+00
         21   -1    0    0  501  502  0.00000000000E+00  0.00000000000E+00  0.29936380788E+02  0.29936380788E+02  0.00000000000E+00 0. -1.
         21   -1    0    0  502  503 -0.00000000000E+00 -0.00000000000E+00 -0.12648036583E+04  0.12648036583E+04  0.00000000000E+00 0.  1.
          6    1    1    2  501    0  0.87862784271E+02 -0.10238052643E+02 -0.58254745021E+03  0.61409707565E+03  0.17300000000E+03 0. -1.
         -6    1    1    2    0  503 -0.87862784271E+02  0.10238052643E+02 -0.65231982733E+03  0.68064296346E+03  0.17300000000E+03 0.  1.
</event>
<event>
 4    1  0.6132688E+000  0.1000000E+03  0.7546771E-02  0.1280296E+00
         21   -1    0    0  503  502  0.00000000000E+00  0.00000000000E+00  0.84119680459E+03  0.84119680459E+03  0.00000000000E+00 0.  1.
         21   -1    0    0  501  503 -0.00000000000E+00 -0.00000000000E+00 -0.70311811931E+02  0.70311811931E+02  0.00000000000E+00 0.  1.
          6    1    1    2  501    0 -0.46964178405E+02  0.16129176807E+03  0.44459666409E+03  0.50578242577E+03  0.17300000000E+03 0.  1.
         -6    1    1    2    0  502  0.46964178405E+02 -0.16129176807E+03  0.32628832857E+03  0.40572619075E+03  0.17300000000E+03 0.  1.
</event>
<event>
 4    1  0.6132688E+000  0.1000000E+03  0.7546771E-02  0.1280296E+00
         21   -1    0    0  501  502  0.00000000000E+00  0.00000000000E+00  0.42709650975E+03  0.42709650975E+03  0.00000000000E+00 0.  1.
         21   -1    0    0  502  503 -0.00000000000E+00 -0.00000000000E+00 -0.29366877257E+03  0.29366877257E+03  0.00000000000E+00 0. -1.
          6    1    1    2  501    0  0.31388255701E+02  0.37449737340E+02  0.37721696793E+03  0.41786283194E+03  0.17300000000E+03 0.  1.
         -6    1    1    2    0  503 -0.31388255701E+02 -0.37449737340E+02 -0.24378923074E+03  0.30290245038E+03  0.17300000000E+03 0. -1.
</event>
<event>
 4    1  0.6132688E+000  0.1000000E+03  0.7546771E-02  0.1280296E+00
         21   -1    0    0  501  502  0.00000000000E+00  0.00000000000E+00  0.12057581467E+04  0.12057581467E+04  0.00000000000E+00 0.  1.
         21   -1    0    0  502  503 -0.00000000000E+00 -0.00000000000E+00 -0.34629779333E+02  0.34629779333E+02  0.00000000000E+00 0. -1.
          6    1    1    2  501    0 -0.14210051998E+02 -0.81334968734E+02  0.80036749348E+03  0.82300329728E+03  0.17300000000E+03 0.  1.
         -6    1    1    2    0  503  0.14210051998E+02  0.81334968734E+02  0.37076087394E+03  0.41738462880E+03  0.17300000000E+03 0. -1.
</event>
<event>
 4    1  0.6132688E+000  0.1000000E+03  0.7546771E-02  0.1280296E+00
         21   -1    0    0  501  502  0.00000000000E+00  0.00000000000E+00  0.75294891049E+03  0.75294891049E+03  0.00000000000E+00 0.  1.
         21   -1    0    0  502  503 -0.00000000000E+00 -0.00000000000E+00 -0.88961095047E+02  0.88961095047E+02  0.00000000000E+00 0. -1.
          6    1    1    2  501    0  0.10462441399E+03 -0.51188793823E+02  0.58126514660E+03  0.61754735144E+03  0.17300000000E+03 0.  1.
         -6    1    1    2    0  503 -0.10462441399E+03  0.51188793823E+02  0.82722668848E+02  0.22436265411E+03  0.17300000000E+03 0. -1.
</event>
<event>
 4    1  0.6132688E+000  0.1000000E+03  0.7546771E-02  0.1280296E+00
         21   -1    0    0  501  502  0.00000000000E+00  0.00000000000E+00  0.97157610602E+02  0.97157610602E+02  0.00000000000E+00 0.  1.
         21   -1    0    0  502  503 -0.00000000000E+00 -0.00000000000E+00 -0.19510748896E+04  0.19510748896E+04  0.00000000000E+00 0. -1.
          6    1    1    2  501    0 -0.70512577045E+01  0.39907656108E+03 -0.96909861509E+03  0.10622584185E+04  0.17300000000E+03 0.  1.
         -6    1    1    2    0  503  0.70512577045E+01 -0.39907656108E+03 -0.88481866388E+03  0.98597408170E+03  0.17300000000E+03 0. -1.
</event>
<event>
 4    1  0.6132688E+000  0.1000000E+03  0.7546771E-02  0.1280296E+00
         21   -1    0    0  503  502  0.00000000000E+00  0.00000000000E+00  0.46663131492E+03  0.46663131492E+03  0.00000000000E+00 0.  1.
         21   -1    0    0  501  503 -0.00000000000E+00 -0.00000000000E+00 -0.76653773884E+02  0.76653773884E+02  0.00000000000E+00 0.  1.
          6    1    1    2  501    0 -0.72934587786E+01  0.55175152528E+02  0.11977071665E+03  0.21764998637E+03  0.17300000000E+03 0.  1.
         -6    1    1    2    0  502  0.72934587786E+01 -0.55175152528E+02  0.27020682439E+03  0.32563510244E+03  0.17300000000E+03 0.  1.
</event>
<event>
 4    1  0.6132688E+000  0.1000000E+03  0.7546771E-02  0.1280296E+00
         21   -1    0    0  503  502  0.00000000000E+00  0.00000000000E+00  0.16138150197E+04  0.16138150197E+04  0.00000000000E+00 0.  1.
         21   -1    0    0  501  503 -0.00000000000E+00 -0.00000000000E+00 -0.48652703227E+02  0.48652703227E+02  0.00000000000E+00 0.  1.
          6    1    1    2  501    0  0.25691494922E+02  0.14024339083E+02  0.13448135079E+03  0.22106779211E+03  0.17300000000E+03 0.  1.
         -6    1    1    2    0  502 -0.25691494922E+02 -0.14024339083E+02  0.14306809657E+04  0.14413999309E+04  0.17300000000E+03 0.  1.
</event>
<event>
 4    1  0.6132688E+000  0.1000000E+03  0.7546771E-02  0.1280296E+00
         21   -1    0    0  503  502  0.00000000000E+00  0.00000000000E+00  0.13887741987E+03  0.13887741987E+03  0.00000000000E+00 0. -1.
         21   -1    0    0  501  503 -0.00000000000E+00 -0.00000000000E+00 -0.74252631780E+03  0.74252631780E+03  0.00000000000E+00 0. -1.
          6    1    1    2  501    0 -0.26222015658E+03 -0.66109118238E+02 -0.31257052776E+03  0.44806155923E+03  0.17300000000E+03 0. -1.
         -6    1    1    2    0  502  0.26222015658E+03  0.66109118238E+02 -0.29107837018E+03  0.43334217844E+03  0.17300000000E+03 0. -1.
</event>
<event>
 4    1  0.6132688E+000  0.1000000E+03  0.7546771E-02  0.1280296E+00
         21   -1    0    0  503  502  0.00000000000E+00  0.00000000000E+00  0.71462816667E+02  0.71462816667E+02  0.00000000000E+00 0. -1.
         21   -1    0    0  501  503 -0.00000000000E+00 -0.00000000000E+00 -0.84257681243E+03  0.84257681243E+03  0.00000000000E+00 0. -1.
          6    1    1    2  501    0  0.33757028995E+02  0.10054617020E+03 -0.64251660642E+03  0.67379942036E+03  0.17300000000E+03 0. -1.
         -6    1    1    2    0  502 -0.33757028995E+02 -0.10054617020E+03 -0.12859738934E+03  0.24024020874E+03  0.17300000000E+03 0. -1.
</event>
<event>
 4    1  0.6132688E+000  0.1000000E+03  0.7546771E-02  0.1280296E+00
         21   -1    0    0  503  502  0.00000000000E+00  0.00000000000E+00  0.26486592055E+03  0.26486592055E+03  0.00000000000E+00 0. -1.
         21   -1    0    0  501  503 -0.00000000000E+00 -0.00000000000E+00 -0.39252101874E+03  0.39252101874E+03  0.00000000000E+00 0. -1.
          6    1    1    2  501    0  0.22543837191E+03 -0.12103928447E+03 -0.15816226446E+03  0.34701191596E+03  0.17300000000E+03 0. -1.
         -6    1    1    2    0  502 -0.22543837191E+03  0.12103928447E+03  0.30507166265E+02  0.31037502334E+03  0.17300000000E+03 0. -1.
</event>
<event>
 4    1  0.6132688E+000  0.1000000E+03  0.7546771E-02  0.1280296E+00
         21   -1    0    0  501  502  0.00000000000E+00  0.00000000000E+00  0.28976710640E+02  0.28976710640E+02  0.00000000000E+00 0.  1.
         21   -1    0    0  502  503 -0.00000000000E+00 -0.00000000000E+00 -0.12112431053E+04  0.12112431053E+04  0.00000000000E+00 0. -1.
          6    1    1    2  501    0  0.12759471214E+02 -0.48067858964E+02 -0.41928318327E+03  0.45629016091E+03  0.17300000000E+03 0.  1.
         -6    1    1    2    0  503 -0.12759471214E+02  0.48067858964E+02 -0.76298321139E+03  0.78392965503E+03  0.17300000000E+03 0. -1.
</event>
<event>
 4    1  0.6132688E+000  0.1000000E+03  0.7546771E-02  0.1280296E+00
         21   -1    0    0  501  502  0.00000000000E+00  0.00000000000E+00  0.82531467825E+02  0.82531467825E+02  0.00000000000E+00 0. -1.
         21   -1    0    0  502  503 -0.00000000000E+00 -0.00000000000E+00 -0.13175587435E+04  0.13175587435E+04  0.00000000000E+00 0. -1.
          6    1    1    2  501    0 -0.47727435150E+02 -0.44259509001E+01 -0.30294163743E+02  0.18205557795E+03  0.17300000000E+03 0. -1.
         -6    1    1    2    0  503  0.47727435150E+02  0.44259509001E+01 -0.12047331120E+04  0.12180346334E+04  0.17300000000E+03 0. -1.
</event>
<event>
 4    1  0.6132688E+000  0.1000000E+03  0.7546771E-02  0.1280296E+00
         21   -1    0    0  501  502  0.00000000000E+00  0.00000000000E+00  0.92991815034E+03  0.92991815034E+03  0.00000000000E+00 0. -1.
         21   -1    0    0  502  503 -0.00000000000E+00 -0.00000000000E+00 -0.37732429074E+02  0.37732429074E+02  0.00000000000E+00 0. -1.
          6    1    1    2  501    0  0.22269155644E+02  0.53361393222E+02  0.55615372253E+03  0.58530275641E+03  0.17300000000E+03 0. -1.
         -6    1    1    2    0  503 -0.22269155644E+02 -0.53361393222E+02  0.33603199874E+03  0.38234782301E+03  0.17300000000E+03 0. -1.
</event>
<event>
 4    1  0.6132688E+000  0.1000000E+03  0.7546771E-02  0.1280296E+00
         21   -1    0    0  501  502  0.00000000000E+00  0.00000000000E+00  0.17693814827E+03  0.17693814827E+03  0.00000000000E+00 0. -1.
         21   -1    0    0  502  503 -0.00000000000E+00 -0.00000000000E+00 -0.30798693120E+03  0.30798693120E+03  0.00000000000E+00 0. -1.
          6    1    1    2  501    0 -0.96128571466E+02  0.24420695619E+02  0.60527097413E+02  0.20839770188E+03  0.17300000000E+03 0. -1.
         -6    1    1    2    0  503  0.96128571466E+02 -0.24420695619E+02 -0.19157588034E+03  0.27652737759E+03  0.17300000000E+03 0. -1.
</event>
<event>
 4    1  0.6132688E+000  0.1000000E+03  0.7546771E-02  0.1280296E+00
         21   -1    0    0  501  502  0.00000000000E+00  0.00000000000E+00  0.11229253053E+03  0.11229253053E+03  0.00000000000E+00 0. -1.
         21   -1    0    0  502  503 -0.00000000000E+00 -0.00000000000E+00 -0.41286958061E+03  0.41286958061E+03  0.00000000000E+00 0. -1.
          6    1    1    2  501    0 -0.46926384943E+02 -0.96937887280E+02 -0.65499294776E+02  0.21405185636E+03  0.17300000000E+03 0. -1.
         -6    1    1    2    0  503  0.46926384943E+02  0.96937887280E+02 -0.23507775530E+03  0.31111025479E+03  0.17300000000E+03 0. -1.
</event>
<event>
 4    1  0.6132688E+000  0.1000000E+03  0.7546771E-02  0.1280296E+00
         21   -1    0    0  503  502  0.00000000000E+00  0.00000000000E+00  0.51835517947E+03  0.51835517947E+03  0.00000000000E+00 0.  1.
         21   -1    0    0  501  503 -0.00000000000E+00 -0.00000000000E+00 -0.86851047359E+02  0.86851047359E+02  0.00000000000E+00 0.  1.
          6    1    1    2  501    0 -0.76669749820E+02 -0.94768588655E+02  0.23744463247E+03  0.31806962984E+03  0.17300000000E+03 0.  1.
         -6    1    1    2    0  502  0.76669749820E+02  0.94768588655E+02  0.19405949963E+03  0.28713659699E+03  0.17300000000E+03 0.  1.
</event>
<event>
 4    1  0.6132688E+000  0.1000000E+03  0.7546771E-02  0.1280296E+00
         21   -1    0    0  503  502  0.00000000000E+00  0.00000000000E+00  0.85389272161E+03  0.85389272161E+03  0.00000000000E+00 0.  1.
         21   -1    0    0  501  503 -0.00000000000E+00 -0.00000000000E+00 -0.12230574204E+03  0.12230574204E+03  0.00000000000E+00 0.  1.
          6    1    1    2  501    0 -0.62902963780E+02  0.32213246138E+02 -0.32418672600E+02  0.18966930804E+03  0.17300000000E+03 0.  1.
         -6    1    1    2    0  502  0.62902963780E+02 -0.32213246138E+02  0.76400565217E+03  0.78652915561E+03  0.17300000000E+03 0.  1.
</event>
<event>
 4    1  0.6132688E+000  0.1000000E+03  0.7546771E-02  0.1280296E+00
         21   -1    0    0  503  502  0.00000000000E+00  0.00000000000E+00  0.10034325321E+04  0.10034325321E+04  0.00000000000E+00 0.  1.
         21   -1    0    0  501  503 -0.00000000000E+00 -0.00000000000E+00 -0.54992032023E+02  0.54992032023E+02  0.00000000000E+00 0.  1.
          6    1    1    2  501    0 -0.86080215753E+01 -0.16480441569E+02  0.11868003786E+03  0.21061731737E+03  0.17300000000E+03 0.  1.
         -6    1    1    2    0  502  0.86080215753E+01  0.16480441569E+02  0.82976046218E+03  0.84780724672E+03  0.17300000000E+03 0.  1.
</event>
<event>
 4    1  0.6132688E+000  0.1000000E+03  0.7546771E-02  0.1280296E+00
         21   -1    0    0  503  502  0.00000000000E+00  0.00000000000E+00  0.70363283241E+03  0.70363283241E+03  0.00000000000E+00 0.  1.
         21   -1    0    0  501  503 -0.00000000000E+00 -0.00000000000E+00 -0.53059713566E+02  0.53059713566E+02  0.00000000000E+00 0.  1.
          6    1    1    2  501    0 -0.24423268509E+02 -0.16930562270E+02  0.16714783639E+03  0.24238510514E+03  0.17300000000E+03 0.  1.
         -6    1    1    2    0  502  0.24423268509E+02  0.16930562270E+02  0.48342528245E+03  0.51430744083E+03  0.17300000000E+03 0.  1.
</event>
<event>
 4    1  0.6132688E+000  0.1000000E+03  0.7546771E-02  0.1280296E+00
         21   -1    0    0  503  502  0.00000000000E+00  0.00000000000E+00  0.13528139294E+03  0.13528139294E+03  0.00000000000E+00 0.  1.
         21   -1    0    0  501  503 -0.00000000000E+00 -0.00000000000E+00 -0.49036726838E+03  0.49036726838E+03  0.00000000000E+00 0.  1.
          6    1    1    2  501    0 -0.98006701849E+02 -0.66405559948E+02 -0.35929622607E+03  0.41597811248E+03  0.17300000000E+03 0.  1.
         -6    1    1    2    0  502  0.98006701849E+02  0.66405559948E+02  0.42103506275E+01  0.20967054884E+03  0.17300000000E+03 0.  1.
</event>
<event>
 4    1  0.6132688E+000  0.1000000E+03  0.7546771E-02  0.1280296E+00
         21   -1    0    0  501  502  0.00000000000E+00  0.00000000000E+00  0.16168256833E+03  0.16168256833E+03  0.00000000000E+00 0. -1.
         21   -1    0    0  502  503 -0.00000000000E+00 -0.00000000000E+00 -0.23857607670E+03  0.23857607670E+03  0.00000000000E+00 0. -1.
          6    1    1    2  501    0  0.23042244902E+02 -0.84663374528E+02 -0.71098325987E+01  0.19410920060E+03  0.17300000000E+03 0. -1.
         -6    1    1    2    0  503 -0.23042244902E+02  0.84663374528E+02 -0.69783675776E+02  0.20614944444E+03  0.17300000000E+03 0. -1.
</event>
<event>
 4    1  0.6132688E+000  0.1000000E+03  0.7546771E-02  0.1280296E+00
         21   -1    0    0  501  502  0.00000000000E+00  0.00000000000E+00  0.98403472974E+02  0.98403472974E+02  0.00000000000E+00 0. -1.
         21   -1    0    0  502  503 -0.00000000000E+00 -0.00000000000E+00 -0.95377742187E+03  0.95377742187E+03  0.00000000000E+00 0. -1.
          6    1    1    2  501    0  0.21409232304E+03  0.54121266386E+02 -0.21624023119E+03  0.35419411605E+03  0.17300000000E+03 0. -1.
         -6    1    1    2    0  503 -0.21409232304E+03 -0.54121266386E+02 -0.63913371771E+03  0.69798677879E+03  0.17300000000E+03 0. -1.
</event>
<event>
 4    1  0.6132688E+000  0.1000000E+03  0.7546771E-02  0.1280296E+00
         21   -1    0    0  501  502  0.00000000000E+00  0.00000000000E+00  0.95248098325E+02  0.95248098325E+02  0.00000000000E+00 0. -1.
         21   -1    0    0  502  503 -0.00000000000E+00 -0.00000000000E+00 -0.60346502707E+03  0.60346502707E+03  0.00000000000E+00 0. -1.
          6    1    1    2  501    0  0.72449577477E+02 -0.24907112662E+02 -0.39547727849E+02  0.19329337370E+03  0.17300000000E+03 0. -1.
         -6    1    1    2    0  503 -0.72449577477E+02  0.24907112662E+02 -0.46866920090E+03  0.50541975170E+03  0.17300000000E+03 0. -1.
</event>
<event>
 4    1  0.6132688E+000  0.1000000E+03  0.7546771E-02  0.1280296E+00
         21   -1    0    0  501  502  0.00000000000E+00  0.00000000000E+00  0.20783444892E+02  0.20783444892E+02  0.00000000000E+00 0. -1.
         21   -1    0    0  502  503 -0.00000000000E+00 -0.00000000000E+00 -0.37961966235E+04  0.37961966235E+04  0.00000000000E+00 0. -1.
          6    1    1    2  501    0  0.48254543705E+02 -0.14113282288E+03 -0.77701925947E+03  0.80989808265E+03  0.17300000000E+03 0. -1.
         -6    1    1    2    0  503 -0.48254543705E+02  0.14113282288E+03 -0.29983939191E+04  0.30070819857E+04  0.17300000000E+03 0. -1.
</event>
<event>
 4    1  0.6132688E+000  0.1000000E+03  0.7546771E-02  0.1280296E+00
         21   -1    0    0  501  502  0.00000000000E+00  0.00000000000E+00  0.13389976309E+03  0.13389976309E+03  0.00000000000E+00 0. -1.
         21   -1    0    0  502  503 -0.00000000000E+00 -0.00000000000E+00 -0.43997482745E+03  0.43997482745E+03  0.00000000000E+00 0. -1.
          6    1    1    2  501    0 -0.13976562380E+02  0.16624172318E+03 -0.11291531001E+03  0.26553817439E+03  0.17300000000E+03 0. -1.
         -6    1    1    2    0  503  0.13976562380E+02 -0.16624172318E+03 -0.19315975435E+03  0.30833641614E+03  0.17300000000E+03 0. -1.
</event>
<event>
 4    1  0.6132688E+000  0.1000000E+03  0.7546771E-02  0.1280296E+00
         21   -1    0    0  503  502  0.00000000000E+00  0.00000000000E+00  0.13773502570E+03  0.13773502570E+03  0.00000000000E+00 0.  1.
         21   -1    0    0  501  503 -0.00000000000E+00 -0.00000000000E+00 -0.67103921209E+03  0.67103921209E+03  0.00000000000E+00 0.  1.
          6    1    1    2  501    0  0.43451594249E+01 -0.18138991642E+03 -0.49540500662E+03  0.55522635273E+03  0.17300000000E+03 0.  1.
         -6    1    1    2    0  502 -0.43451594249E+01  0.18138991642E+03 -0.37899179779E+02  0.25354788506E+03  0.17300000000E+03 0.  1.
</event>
<event>
 4    1  0.6132688E+000  0.1000000E+03  0.7546771E-02  0.1280296E+00
         21   -1    0    0  501  502  0.00000000000E+00  0.00000000000E+00  0.17958354675E+03  0.17958354675E+03  0.00000000000E+00 0.  1.
         21   -1    0    0  502  503 -0.00000000000E+00 -0.00000000000E+00 -0.36943412950E+03  0.36943412950E+03  0.00000000000E+00 0. -1.
          6    1    1    2  501    0 -0.15077428944E+03  0.44210441360E+02  0.20490066180E+02  0.23459815066E+03  0.17300000000E+03 0.  1.
         -6    1    1    2    0  503  0.15077428944E+03 -0.44210441360E+02 -0.21034064893E+03  0.31441952559E+03  0.17300000000E+03 0. -1.
</event>
<event>
 4    1  0.6132688E+000  0.1000000E+03  0.7546771E-02  0.1280296E+00
         21   -1    0    0  501  502  0.00000000000E+00  0.00000000000E+00  0.88576159833E+03  0.88576159833E+03  0.00000000000E+00 0.  1.
         21   -1    0    0  502  503 -0.00000000000E+00 -0.00000000000E+00 -0.15613695642E+03  0.15613695642E+03  0.00000000000E+00 0. -1.
          6    1    1    2  501    0  0.12961882309E+03 -0.11969949841E+03  0.75413636702E+03  0.79358658588E+03  0.17300000000E+03 0.  1.
         -6    1    1    2    0  503 -0.12961882309E+03  0.11969949841E+03 -0.24511725116E+02  0.24831196888E+03  0.17300000000E+03 0. -1.
</event>
<event>
 4    1  0.6132688E+000  0.1000000E+03  0.7546771E-02  0.1280296E+00
         21   -1    0    0  503  502  0.00000000000E+00  0.00000000000E+00  0.27679158176E+03  0.27679158176E+03  0.00000000000E+00 0. -1.
         21   -1    0    0  501  503 -0.00000000000E+00 -0.00000000000E+00 -0.23680195561E+03  0.23680195561E+03  0.00000000000E+00 0.  1.
          6    1    1    2  501    0  0.12896458043E+03 -0.71251515871E+02 -0.98292859257E+02  0.24758660646E+03  0.17300000000E+03 0. -1.
         -6    1    1    2    0  502 -0.12896458043E+03  0.71251515871E+02  0.13828248541E+03  0.26600693091E+03  0.17300000000E+03 0.  1.
</event>
<event>
 4    1  0.6132688E+000  0.1000000E+03  0.7546771E-02  0.1280296E+00
         21   -1    0    0  503  502  0.00000000000E+00  0.00000000000E+00  0.16884493414E+03  0.16884493414E+03  0.00000000000E+00 0. -1.
         21   -1    0    0  501  503 -0.00000000000E+00 -0.00000000000E+00 -0.22175174674E+03  0.22175174674E+03  0.00000000000E+00 0.  1.
          6    1    1    2  501    0  0.61604855422E+01  0.40655629765E+02 -0.10346403488E+03  0.20572952712E+03  0.17300000000E+03 0. -1.
         -6    1    1    2    0  502 -0.61604855422E+01 -0.40655629765E+02  0.50557222279E+02  0.18486715376E+03  0.17300000000E+03 0.  1.
</event>
<event>
 4    1  0.6132688E+000  0.1000000E+03  0.7546771E-02  0.1280296E+00
         21   -1    0    0  503  502  0.00000000000E+00  0.00000000000E+00  0.67608132414E+02  0.67608132414E+02  0.00000000000E+00 0.  1.
         21   -1    0    0  501  503 -0.00000000000E+00 -0.00000000000E+00 -0.57664162352E+03  0.57664162352E+03  0.00000000000E+00 0.  1.
          6    1    1    2  501    0  0.23230215046E+01  0.22933455101E+02 -0.40515221179E+03  0.44114470926E+03  0.17300000000E+03 0.  1.
         -6    1    1    2    0  502 -0.23230215046E+01 -0.22933455101E+02 -0.10388127932E+03  0.20310504668E+03  0.17300000000E+03 0.  1.
</event>
<event>
 4    1  0.6132688E+000  0.1000000E+03  0.7546771E-02  0.1280296E+00
         21   -1    0    0  501  502  0.00000000000E+00  0.00000000000E+00  0.68790993731E+03  0.68790993731E+03  0.00000000000E+00 0. -1.
         21   -1    0    0  502  503 -0.00000000000E+00 -0.00000000000E+00 -0.29229917077E+03  0.29229917077E+03  0.00000000000E+00 0. -1.
          6    1    1    2  501    0 -0.32148127413E+03 -0.12532186674E+03  0.44725874039E+03  0.59078351429E+03  0.17300000000E+03 0. -1.
         -6    1    1    2    0  503  0.32148127413E+03  0.12532186674E+03 -0.51647973851E+02  0.38942559379E+03  0.17300000000E+03 0. -1.
</event>
<event>
 4    1  0.6132688E+000  0.1000000E+03  0.7546771E-02  0.1280296E+00
         21   -1    0    0  501  502  0.00000000000E+00  0.00000000000E+00  0.28396206427E+03  0.28396206427E+03  0.00000000000E+00 0. -1.
         21   -1    0    0  502  503 -0.00000000000E+00 -0.00000000000E+00 -0.32855191599E+03  0.32855191599E+03  0.00000000000E+00 0.  1.
          6    1    1    2  501    0 -0.14795328741E+03 -0.14824611590E+03  0.11771967066E+03  0.29606419405E+03  0.17300000000E+03 0. -1.
         -6    1    1    2    0  503  0.14795328741E+03  0.14824611590E+03 -0.16230952239E+03  0.31644978621E+03  0.17300000000E+03 0.  1.
</event>
<event>
 4    1  0.6132688E+000  0.1000000E+03  0.7546771E-02  0.1280296E+00
         21   -1    0    0  503  502  0.00000000000E+00  0.00000000000E+00  0.33640093821E+03  0.33640093821E+03  0.00000000000E+00 0. -1.
         21   -1    0    0  501  503 -0.00000000000E+00 -0.00000000000E+00 -0.17187487297E+03  0.17187487297E+03  0.00000000000E+00 0.  1.
          6    1    1    2  501    0  0.16508960788E+03 -0.24933167049E+02  0.86164571434E+02  0.25540081210E+03  0.17300000000E+03 0. -1.
         -6    1    1    2    0  502 -0.16508960788E+03  0.24933167049E+02  0.78361493800E+02  0.25287499908E+03  0.17300000000E+03 0. -1.
</event>
<event>
 4    1  0.6132688E+000  0.1000000E+03  0.7546771E-02  0.1280296E+00
         21   -1    0    0  501  502  0.00000000000E+00  0.00000000000E+00  0.15118044822E+04  0.15118044822E+04  0.00000000000E+00 0. -1.
         21   -1    0    0  502  503 -0.00000000000E+00 -0.00000000000E+00 -0.36826518946E+02  0.36826518946E+02  0.00000000000E+00 0.  1.
          6    1    1    2  501    0 -0.11905760106E+03  0.56766318939E+02  0.43764825287E+03  0.48873522543E+03  0.17300000000E+03 0. -1.
         -6    1    1    2    0  503  0.11905760106E+03 -0.56766318939E+02  0.10373297104E+04  0.10598957757E+04  0.17300000000E+03 0.  1.
</event>
<event>
 4    1  0.6132688E+000  0.1000000E+03  0.7546771E-02  0.1280296E+00
         21   -1    0    0  501  502  0.00000000000E+00  0.00000000000E+00  0.97070512547E+03  0.97070512547E+03  0.00000000000E+00 0.  1.
         21   -1    0    0  502  503 -0.00000000000E+00 -0.00000000000E+00 -0.97554778021E+02  0.97554778021E+02  0.00000000000E+00 0. -1.
          6    1    1    2  501    0 -0.20944683371E+03 -0.21775278128E+02  0.68464181542E+03  0.73688910584E+03  0.17300000000E+03 0.  1.
         -6    1    1    2    0  503  0.20944683371E+03  0.21775278128E+02  0.18850853204E+03  0.33137079766E+03  0.17300000000E+03 0. -1.
</event>
<event>
 4    1  0.6132688E+000  0.1000000E+03  0.7546771E-02  0.1280296E+00
         21   -1    0    0  501  502  0.00000000000E+00  0.00000000000E+00  0.12194696276E+03  0.12194696276E+03  0.00000000000E+00 0.  1.
         21   -1    0    0  502  503 -0.00000000000E+00 -0.00000000000E+00 -0.28953426723E+03  0.28953426723E+03  0.00000000000E+00 0. -1.
          6    1    1    2  501    0  0.57423577828E+01 -0.35629645885E+02 -0.13886471586E+02  0.17726894943E+03  0.17300000000E+03 0.  1.
         -6    1    1    2    0  503 -0.57423577828E+01  0.35629645885E+02 -0.15370083288E+03  0.23421228057E+03  0.17300000000E+03 0. -1.
</event>
<event>
 4    1  0.6132688E+000  0.1000000E+03  0.7546771E-02  0.1280296E+00
         21   -1    0    0  501  502  0.00000000000E+00  0.00000000000E+00  0.34798516466E+03  0.34798516466E+03  0.00000000000E+00 0.  1.
         21   -1    0    0  502  503 -0.00000000000E+00 -0.00000000000E+00 -0.17902129122E+03  0.17902129122E+03  0.00000000000E+00 0.  1.
          6    1    1    2  501    0  0.11463116391E+03 -0.98661784403E+02  0.18734557523E+03  0.29648240420E+03  0.17300000000E+03 0.  1.
         -6    1    1    2    0  503 -0.11463116391E+03  0.98661784403E+02 -0.18381701792E+02  0.23052405168E+03  0.17300000000E+03 0.  1.
</event>
<event>
 4    1  0.6132688E+000  0.1000000E+03  0.7546771E-02  0.1280296E+00
         21   -1    0    0  501  502  0.00000000000E+00  0.00000000000E+00  0.56055490018E+03  0.56055490018E+03  0.00000000000E+00 0.  1.
         21   -1    0    0  502  503 -0.00000000000E+00 -0.00000000000E+00 -0.61025849831E+02  0.61025849831E+02  0.00000000000E+00 0.  1.
          6    1    1    2  501    0  0.13740333482E+01  0.46106334344E+02  0.32770949602E+03  0.37343030918E+03  0.17300000000E+03 0.  1.
         -6    1    1    2    0  503 -0.13740333482E+01 -0.46106334344E+02  0.17181955433E+03  0.24815044083E+03  0.17300000000E+03 0.  1.
</event>
<event>
 4    1  0.6132688E+000  0.1000000E+03  0.7546771E-02  0.1280296E+00
         21   -1    0    0  501  502  0.00000000000E+00  0.00000000000E+00  0.11662491488E+03  0.11662491488E+03  0.00000000000E+00 0.  1.
         21   -1    0    0  502  503 -0.00000000000E+00 -0.00000000000E+00 -0.26429508603E+03  0.26429508603E+03  0.00000000000E+00 0.  1.
          6    1    1    2  501    0  0.18916799629E+02  0.67170767860E+00 -0.48717111259E+02  0.18072258694E+03  0.17300000000E+03 0.  1.
         -6    1    1    2    0  503 -0.18916799629E+02 -0.67170767860E+00 -0.98953059888E+02  0.20019741397E+03  0.17300000000E+03 0.  1.
</event>
<event>
 4    1  0.6132688E+000  0.1000000E+03  0.7546771E-02  0.1280296E+00
         21   -1    0    0  501  502  0.00000000000E+00  0.00000000000E+00  0.11797013565E+04  0.11797013565E+04  0.00000000000E+00 0.  1.
         21   -1    0    0  502  503 -0.00000000000E+00 -0.00000000000E+00 -0.50756601838E+02  0.50756601838E+02  0.00000000000E+00 0.  1.
          6    1    1    2  501    0  0.12560822750E+03  0.11883531801E+03  0.58213872080E+03  0.63143784324E+03  0.17300000000E+03 0. -1.
         -6    1    1    2    0  503 -0.12560822750E+03 -0.11883531801E+03  0.54680603385E+03  0.59902011509E+03  0.17300000000E+03 0. -1.
</event>
<event>
 4    1  0.6132688E+000  0.1000000E+03  0.7546771E-02  0.1280296E+00
         21   -1    0    0  503  502  0.00000000000E+00  0.00000000000E+00  0.47454860754E+03  0.47454860754E+03  0.00000000000E+00 0. -1.
         21   -1    0    0  501  503 -0.00000000000E+00 -0.00000000000E+00 -0.81920799028E+03  0.81920799028E+03  0.00000000000E+00 0. -1.
          6    1    1    2  501    0  0.61078241558E+02 -0.97780142011E+02 -0.78218979348E+03  0.80934626754E+03  0.17300000000E+03 0. -1.
         -6    1    1    2    0  502 -0.61078241558E+02  0.97780142011E+02  0.43753041074E+03  0.48441033028E+03  0.17300000000E+03 0. -1.
</event>
<event>
 4    1  0.6132688E+000  0.1000000E+03  0.7546771E-02  0.1280296E+00
         21   -1    0    0  503  502  0.00000000000E+00  0.00000000000E+00  0.31154035050E+03  0.31154035050E+03  0.00000000000E+00 0. -1.
         21   -1    0    0  501  503 -0.00000000000E+00 -0.00000000000E+00 -0.26977536334E+03  0.26977536334E+03  0.00000000000E+00 0. -1.
          6    1    1    2  501    0 -0.38738447917E+02  0.20683286993E+03 -0.78553137685E+02  0.28351384246E+03  0.17300000000E+03 0. -1.
         -6    1    1    2    0  502  0.38738447917E+02 -0.20683286993E+03  0.12031812485E+03  0.29780187138E+03  0.17300000000E+03 0. -1.
</event>
<event>
 4    1  0.6132688E+000  0.1000000E+03  0.7546771E-02  0.1280296E+00
         21   -1    0    0  501  502  0.00000000000E+00  0.00000000000E+00  0.14769746880E+03  0.14769746880E+03  0.00000000000E+00 0.  1.
         21   -1    0    0  502  503 -0.00000000000E+00 -0.00000000000E+00 -0.32223249552E+03  0.32223249552E+03  0.00000000000E+00 0.  1.
          6    1    1    2  501    0  0.84568513787E+02 -0.94530851991E+02 -0.44510120157E+02  0.21908460991E+03  0.17300000000E+03 0.  1.
         -6    1    1    2    0  503 -0.84568513787E+02  0.94530851991E+02 -0.13002490657E+03  0.25084535441E+03  0.17300000000E+03 0.  1.
</event>
<event>
 4    1  0.6132688E+000  0.1000000E+03  0.7546771E-02  0.1280296E+00
         21   -1    0    0  501  502  0.00000000000E+00  0.00000000000E+00  0.21164488565E+03  0.21164488565E+03  0.00000000000E+00 0. -1.
         21   -1    0    0  502  503 -0.00000000000E+00 -0.00000000000E+00 -0.41222780141E+03  0.41222780141E+03  0.00000000000E+00 0. -1.
          6    1    1    2  501    0  0.13418159555E+02 -0.14862755562E+03  0.97413275736E+02  0.24837178500E+03  0.17300000000E+03 0. -1.
         -6    1    1    2    0  503 -0.13418159555E+02  0.14862755562E+03 -0.29799619150E+03  0.37550090206E+03  0.17300000000E+03 0. -1.
</event>
<event>
 4    1  0.6132688E+000  0.1000000E+03  0.7546771E-02  0.1280296E+00
         21   -1    0    0  501  502  0.00000000000E+00  0.00000000000E+00  0.55240743374E+03  0.55240743374E+03  0.00000000000E+00 0. -1.
         21   -1    0    0  502  503 -0.00000000000E+00 -0.00000000000E+00 -0.16867095210E+03  0.16867095210E+03  0.00000000000E+00 0. -1.
          6    1    1    2  501    0  0.11969992066E+03  0.14858291138E+02  0.45251647449E+03  0.49924843466E+03  0.17300000000E+03 0. -1.
         -6    1    1    2    0  503 -0.11969992066E+03 -0.14858291138E+02 -0.68779992856E+02  0.22182995118E+03  0.17300000000E+03 0. -1.
</event>
<event>
 4    1  0.6132688E+000  0.1000000E+03  0.7546771E-02  0.1280296E+00
         21   -1    0    0  501  502  0.00000000000E+00  0.00000000000E+00  0.40553868461E+03  0.40553868461E+03  0.00000000000E+00 0.  1.
         21   -1    0    0  502  503 -0.00000000000E+00 -0.00000000000E+00 -0.22634627712E+03  0.22634627712E+03  0.00000000000E+00 0. -1.
          6    1    1    2  501    0  0.19387611665E+02  0.10332345822E+03  0.32466037849E+03  0.38260289841E+03  0.17300000000E+03 0.  1.
         -6    1    1    2    0  503 -0.19387611665E+02 -0.10332345822E+03 -0.14546797100E+03  0.24928206332E+03  0.17300000000E+03 0. -1.
</event>
<event>
 4    1  0.6132688E+000  0.1000000E+03  0.7546771E-02  0.1280296E+00
         21   -1    0    0  501  502  0.00000000000E+00  0.00000000000E+00  0.18663481318E+03  0.18663481318E+03  0.00000000000E+00 0.  1.
         21   -1    0    0  502  503 -0.00000000000E+00 -0.00000000000E+00 -0.22560377306E+03  0.22560377306E+03  0.00000000000E+00 0.  1.
          6    1    1    2  501    0  0.81995136591E+01 -0.10871017057E+03 -0.36631261086E+02  0.20774018027E+03  0.17300000000E+03 0.  1.
         -6    1    1    2    0  503 -0.81995136591E+01  0.10871017057E+03 -0.23376987977E+01  0.20449840597E+03  0.17300000000E+03 0.  1.
</event>
<event>
 4    1  0.6132688E+000  0.1000000E+03  0.7546771E-02  0.1280296E+00
         21   -1    0    0  501  502  0.00000000000E+00  0.00000000000E+00  0.53424934996E+03  0.53424934996E+03  0.00000000000E+00 0.  1.
         21   -1    0    0  502  503 -0.00000000000E+00 -0.00000000000E+00 -0.77875931181E+03  0.77875931181E+03  0.00000000000E+00 0.  1.
          6    1    1    2  501    0  0.77207018411E+02 -0.95650507013E+02  0.49769744458E+03  0.54105608723E+03  0.17300000000E+03 0.  1.
         -6    1    1    2    0  503 -0.77207018411E+02  0.95650507013E+02 -0.74220740643E+03  0.77195257454E+03  0.17300000000E+03 0.  1.
</event>
<event>
 4    1  0.6132688E+000  0.1000000E+03  0.7546771E-02  0.1280296E+00
         21   -1    0    0  501  502  0.00000000000E+00  0.00000000000E+00  0.81675878024E+03  0.81675878024E+03  0.00000000000E+00 0.  1.
         21   -1    0    0  502  503 -0.00000000000E+00 -0.00000000000E+00 -0.97682474687E+02  0.97682474687E+02  0.00000000000E+00 0.  1.
          6    1    1    2  501    0 -0.99983443413E+02  0.17088344523E+03  0.52663617788E+03  0.58861915078E+03  0.17300000000E+03 0.  1.
         -6    1    1    2    0  503  0.99983443413E+02 -0.17088344523E+03  0.19244012767E+03  0.32582210414E+03  0.17300000000E+03 0.  1.
</event>
<event>
 4    1  0.6132688E+000  0.1000000E+03  0.7546771E-02  0.1280296E+00
         21   -1    0    0  503  502  0.00000000000E+00  0.00000000000E+00  0.43540096016E+03  0.43540096016E+03  0.00000000000E+00 0. -1.
         21   -1    0    0  501  503 -0.00000000000E+00 -0.00000000000E+00 -0.15797859351E+03  0.15797859351E+03  0.00000000000E+00 0. -1.
          6    1    1    2  501    0 -0.12268525178E+03  0.94109996374E+02  0.40838229764E+00  0.23202915592E+03  0.17300000000E+03 0. -1.
         -6    1    1    2    0  502  0.12268525178E+03 -0.94109996374E+02  0.27701398435E+03  0.36135039774E+03  0.17300000000E+03 0. -1.
</event>
<event>
 4    1  0.6132688E+000  0.1000000E+03  0.7546771E-02  0.1280296E+00
         21   -1    0    0  503  502  0.00000000000E+00  0.00000000000E+00  0.10417842926E+03  0.10417842926E+03  0.00000000000E+00 0. -1.
         21   -1    0    0  501  503 -0.00000000000E+00 -0.00000000000E+00 -0.11420722395E+04  0.11420722395E+04  0.00000000000E+00 0. -1.
          6    1    1    2  501    0 -0.44958528546E+02  0.41982121406E+01 -0.10518249057E+04  0.10669130830E+04  0.17300000000E+03 0. -1.
         -6    1    1    2    0  502  0.44958528546E+02 -0.41982121406E+01  0.13931095450E+02  0.17933758584E+03  0.17300000000E+03 0. -1.
</event>
<event>
 4    1  0.6132688E+000  0.1000000E+03  0.7546771E-02  0.1280296E+00
         21   -1    0    0  501  502  0.00000000000E+00  0.00000000000E+00  0.19874243950E+04  0.19874243950E+04  0.00000000000E+00 0. -1.
         21   -1    0    0  502  503 -0.00000000000E+00 -0.00000000000E+00 -0.47102253775E+02  0.47102253775E+02  0.00000000000E+00 0.  1.
          6    1    1    2  501    0 -0.77804591104E+02 -0.71934072529E+02  0.17316456396E+04  0.17434889407E+04  0.17300000000E+03 0. -1.
         -6    1    1    2    0  503  0.77804591104E+02  0.71934072529E+02  0.20867650159E+03  0.29103770804E+03  0.17300000000E+03 0.  1.
</event>
<event>
 4    1  0.6132688E+000  0.1000000E+03  0.7546771E-02  0.1280296E+00
         21   -1    0    0  501  502  0.00000000000E+00  0.00000000000E+00  0.20971456547E+03  0.20971456547E+03  0.00000000000E+00 0. -1.
         21   -1    0    0  502  503 -0.00000000000E+00 -0.00000000000E+00 -0.21779174176E+03  0.21779174176E+03  0.00000000000E+00 0.  1.
          6    1    1    2  501    0  0.11432425709E+03 -0.50075286710E+02 -0.16984251978E+02  0.21399774511E+03  0.17300000000E+03 0. -1.
         -6    1    1    2    0  503 -0.11432425709E+03  0.50075286710E+02  0.89070756829E+01  0.21350856211E+03  0.17300000000E+03 0.  1.
</event>
<event>
 4    1  0.6132688E+000  0.1000000E+03  0.7546771E-02  0.1280296E+00
         21   -1    0    0  503  502  0.00000000000E+00  0.00000000000E+00  0.32105234846E+03  0.32105234846E+03  0.00000000000E+00 0.  1.
         21   -1    0    0  501  503 -0.00000000000E+00 -0.00000000000E+00 -0.15839702198E+03  0.15839702198E+03  0.00000000000E+00 0.  1.
          6    1    1    2  501    0 -0.14176435181E+03 -0.18402626355E+02  0.57821455470E+02  0.23175009992E+03  0.17300000000E+03 0.  1.
         -6    1    1    2    0  502  0.14176435181E+03  0.18402626355E+02  0.10483387101E+03  0.24769927051E+03  0.17300000000E+03 0.  1.
</event>
<event>
 4    1  0.6132688E+000  0.1000000E+03  0.7546771E-02  0.1280296E+00
         21   -1    0    0  501  502  0.00000000000E+00  0.00000000000E+00  0.26689095633E+03  0.26689095633E+03  0.00000000000E+00 0. -1.
         21   -1    0    0  502  503 -0.00000000000E+00 -0.00000000000E+00 -0.12309624207E+03  0.12309624207E+03  0.00000000000E+00 0. -1.
          6    1    1    2  501    0  0.38496135091E+02  0.23416082741E+02  0.10406371084E+03  0.20685386451E+03  0.17300000000E+03 0. -1.
         -6    1    1    2    0  503 -0.38496135091E+02 -0.23416082741E+02  0.39731003420E+02  0.18313333389E+03  0.17300000000E+03 0. -1.
</event>
<event>
 4    1  0.6132688E+000  0.1000000E+03  0.7546771E-02  0.1280296E+00
         21   -1    0    0  501  502  0.00000000000E+00  0.00000000000E+00  0.76378583689E+03  0.76378583689E+03  0.00000000000E+00 0. -1.
         21   -1    0    0  502  503 -0.00000000000E+00 -0.00000000000E+00 -0.10033746351E+03  0.10033746351E+03  0.00000000000E+00 0. -1.
          6    1    1    2  501    0  0.40352661703E+02 -0.47591408241E+02  0.65466396091E+03  0.68000528024E+03  0.17300000000E+03 0. -1.
         -6    1    1    2    0  503 -0.40352661703E+02  0.47591408241E+02  0.87844124675E+01  0.18411802016E+03  0.17300000000E+03 0. -1.
</event>
<event>
 4    1  0.6132688E+000  0.1000000E+03  0.7546771E-02  0.1280296E+00
         21   -1    0    0  501  502  0.00000000000E+00  0.00000000000E+00  0.63078064162E+03  0.63078064162E+03  0.00000000000E+00 0. -1.
         21   -1    0    0  502  503 -0.00000000000E+00 -0.00000000000E+00 -0.80894491557E+02  0.80894491557E+02  0.00000000000E+00 0.  1.
          6    1    1    2  501    0 -0.83187688795E+02  0.11226327789E+03  0.33744836489E+03  0.40413318856E+03  0.17300000000E+03 0.  1.
         -6    1    1    2    0  503  0.83187688795E+02 -0.11226327789E+03  0.21243778517E+03  0.30754194461E+03  0.17300000000E+03 0.  1.
</event>
<event>
 4    1  0.6132688E+000  0.1000000E+03  0.7546771E-02  0.1280296E+00
         21   -1    0    0  501  502  0.00000000000E+00  0.00000000000E+00  0.12216554247E+03  0.12216554247E+03  0.00000000000E+00 0. -1.
         21   -1    0    0  502  503 -0.00000000000E+00 -0.00000000000E+00 -0.55361866373E+03  0.55361866373E+03  0.00000000000E+00 0.  1.
          6    1    1    2  501    0  0.36264529043E+02  0.15223710784E+03 -0.66379417580E+02  0.24254170806E+03  0.17300000000E+03 0.  1.
         -6    1    1    2    0  503 -0.36264529043E+02 -0.15223710784E+03 -0.36507370368E+03  0.43324249814E+03  0.17300000000E+03 0.  1.
</event>
<event>
 4    1  0.6132688E+000  0.1000000E+03  0.7546771E-02  0.1280296E+00
         21   -1    0    0  503  502  0.00000000000E+00  0.00000000000E+00  0.16053000638E+03  0.16053000638E+03  0.00000000000E+00 0.  1.
         21   -1    0    0  501  503 -0.00000000000E+00 -0.00000000000E+00 -0.24294708317E+03  0.24294708317E+03  0.00000000000E+00 0.  1.
          6    1    1    2  501    0 -0.17017849551E+02 -0.49946207735E+02 -0.12220740377E+03  0.21828394445E+03  0.17300000000E+03 0.  1.
         -6    1    1    2    0  502  0.17017849551E+02  0.49946207735E+02  0.39790326970E+02  0.18519314510E+03  0.17300000000E+03 0.  1.
</event>
<event>
 4    1  0.6132688E+000  0.1000000E+03  0.7546771E-02  0.1280296E+00
         21   -1    0    0  501  502  0.00000000000E+00  0.00000000000E+00  0.31724695808E+03  0.31724695808E+03  0.00000000000E+00 0.  1.
         21   -1    0    0  502  503 -0.00000000000E+00 -0.00000000000E+00 -0.11661792094E+03  0.11661792094E+03  0.00000000000E+00 0.  1.
          6    1    1    2  501    0  0.31709641141E+02  0.37554598670E+02  0.17723732225E+03  0.25250330220E+03  0.17300000000E+03 0.  1.
         -6    1    1    2    0  503 -0.31709641141E+02 -0.37554598670E+02  0.23391714889E+02  0.18136157682E+03  0.17300000000E+03 0.  1.
</event>
<event>
 4    1  0.6132688E+000  0.1000000E+03  0.7546771E-02  0.1280296E+00
         21   -1    0    0  501  502  0.00000000000E+00  0.00000000000E+00  0.35002794104E+03  0.35002794104E+03  0.00000000000E+00 0.  1.
         21   -1    0    0  502  503 -0.00000000000E+00 -0.00000000000E+00 -0.20502241133E+03  0.20502241133E+03  0.00000000000E+00 0.  1.
          6    1    1    2  501    0 -0.12816268571E+03  0.28776680737E+02  0.23492608303E+03  0.31995786574E+03  0.17300000000E+03 0.  1.
         -6    1    1    2    0  503  0.12816268571E+03 -0.28776680737E+02 -0.89920553312E+02  0.23509248663E+03  0.17300000000E+03 0.  1.
</event>
<event>
 4    1  0.6132688E+000  0.1000000E+03  0.7546771E-02  0.1280296E+00
         21   -1    0    0  503  502  0.00000000000E+00  0.00000000000E+00  0.54630346613E+02  0.54630346613E+02  0.00000000000E+00 0.  1.
         21   -1    0    0  501  503 -0.00000000000E+00 -0.00000000000E+00 -0.59100886612E+03  0.59100886612E+03  0.00000000000E+00 0.  1.
          6    1    1    2  501    0  0.10841775455E+01 -0.35079813547E+02 -0.20789674255E+03  0.27273031427E+03  0.17300000000E+03 0.  1.
         -6    1    1    2    0  502 -0.10841775455E+01  0.35079813547E+02 -0.32848177696E+03  0.37290889846E+03  0.17300000000E+03 0.  1.
</event>
<event>
 4    1  0.6132688E+000  0.1000000E+03  0.7546771E-02  0.1280296E+00
         21   -1    0    0  503  502  0.00000000000E+00  0.00000000000E+00  0.71100458516E+03  0.71100458516E+03  0.00000000000E+00 0. -1.
         21   -1    0    0  501  503 -0.00000000000E+00 -0.00000000000E+00 -0.87808066290E+02  0.87808066290E+02  0.00000000000E+00 0.  1.
          6    1    1    2  501    0  0.11258206850E+03 -0.13559079017E+03  0.37232749919E+03  0.44678445718E+03  0.17300000000E+03 0.  1.
         -6    1    1    2    0  502 -0.11258206850E+03  0.13559079017E+03  0.25086901968E+03  0.35202819427E+03  0.17300000000E+03 0. -1.
</event>
<event>
 4    1  0.6132688E+000  0.1000000E+03  0.7546771E-02  0.1280296E+00
         21   -1    0    0  503  502  0.00000000000E+00  0.00000000000E+00  0.22135467664E+03  0.22135467664E+03  0.00000000000E+00 0.  1.
         21   -1    0    0  501  503 -0.00000000000E+00 -0.00000000000E+00 -0.21582691819E+03  0.21582691819E+03  0.00000000000E+00 0. -1.
          6    1    1    2  501    0  0.77148811270E+02  0.93320140480E+02 -0.53673867155E+02  0.21787719411E+03  0.17300000000E+03 0. -1.
         -6    1    1    2    0  502 -0.77148811270E+02 -0.93320140480E+02  0.59201625612E+02  0.21930440072E+03  0.17300000000E+03 0.  1.
</event>
<event>
 4    1  0.6132688E+000  0.1000000E+03  0.7546771E-02  0.1280296E+00
         21   -1    0    0  503  502  0.00000000000E+00  0.00000000000E+00  0.58677983093E+03  0.58677983093E+03  0.00000000000E+00 0. -1.
         21   -1    0    0  501  503 -0.00000000000E+00 -0.00000000000E+00 -0.17331561523E+03  0.17331561523E+03  0.00000000000E+00 0.  1.
          6    1    1    2  501    0  0.22516910534E+02 -0.11811624234E+02 -0.11109098959E+03  0.20716354336E+03  0.17300000000E+03 0.  1.
         -6    1    1    2    0  502 -0.22516910534E+02  0.11811624234E+02  0.52455520530E+03  0.55293190280E+03  0.17300000000E+03 0. -1.
</event>
<event>
 4    1  0.6132688E+000  0.1000000E+03  0.7546771E-02  0.1280296E+00
         21   -1    0    0  503  502  0.00000000000E+00  0.00000000000E+00  0.19469907786E+04  0.19469907786E+04  0.00000000000E+00 0. -1.
         21   -1    0    0  501  503 -0.00000000000E+00 -0.00000000000E+00 -0.35322436691E+02  0.35322436691E+02  0.00000000000E+00 0. -1.
          6    1    1    2  501    0 -0.24835953597E+02 -0.40854904835E+02  0.23319198105E+03  0.29426764665E+03  0.17300000000E+03 0. -1.
         -6    1    1    2    0  502  0.24835953597E+02  0.40854904835E+02  0.16784763608E+04  0.16880455686E+04  0.17300000000E+03 0. -1.
</event>
<event>
 4    1  0.6132688E+000  0.1000000E+03  0.7546771E-02  0.1280296E+00
         21   -1    0    0  501  502  0.00000000000E+00  0.00000000000E+00  0.21470352713E+03  0.21470352713E+03  0.00000000000E+00 0. -1.
         21   -1    0    0  502  503 -0.00000000000E+00 -0.00000000000E+00 -0.23330487745E+03  0.23330487745E+03  0.00000000000E+00 0.  1.
          6    1    1    2  501    0  0.62327881545E+02 -0.61670360846E+02  0.10248449294E+03  0.21936287179E+03  0.17300000000E+03 0. -1.
         -6    1    1    2    0  503 -0.62327881545E+02  0.61670360846E+02 -0.12108584327E+03  0.22864553279E+03  0.17300000000E+03 0.  1.
</event>
<event>
 4    1  0.6132688E+000  0.1000000E+03  0.7546771E-02  0.1280296E+00
         21   -1    0    0  501  502  0.00000000000E+00  0.00000000000E+00  0.20572395242E+04  0.20572395242E+04  0.00000000000E+00 0. -1.
         21   -1    0    0  502  503 -0.00000000000E+00 -0.00000000000E+00 -0.19901775664E+02  0.19901775664E+02  0.00000000000E+00 0.  1.
          6    1    1    2  501    0 -0.23657989338E+02  0.15514952577E+02  0.15373863253E+04  0.15473480951E+04  0.17300000000E+03 0. -1.
         -6    1    1    2    0  503  0.23657989338E+02 -0.15514952577E+02  0.49995142329E+03  0.52979320481E+03  0.17300000000E+03 0.  1.
</event>
<event>
 4    1  0.6132688E+000  0.1000000E+03  0.7546771E-02  0.1280296E+00
         21   -1    0    0  501  502  0.00000000000E+00  0.00000000000E+00  0.28624207176E+03  0.28624207176E+03  0.00000000000E+00 0. -1.
         21   -1    0    0  502  503 -0.00000000000E+00 -0.00000000000E+00 -0.13936720603E+03  0.13936720603E+03  0.00000000000E+00 0.  1.
          6    1    1    2  501    0  0.13607065834E+02 -0.68365221362E+02  0.14956176826E+03  0.23907462905E+03  0.17300000000E+03 0. -1.
         -6    1    1    2    0  503 -0.13607065834E+02  0.68365221362E+02 -0.26869025238E+01  0.18653464873E+03  0.17300000000E+03 0.  1.
</event>
<event>
 4    1  0.6132688E+000  0.1000000E+03  0.7546771E-02  0.1280296E+00
         21   -1    0    0  501  502  0.00000000000E+00  0.00000000000E+00  0.35257280865E+03  0.35257280865E+03  0.00000000000E+00 0. -1.
         21   -1    0    0  502  503 -0.00000000000E+00 -0.00000000000E+00 -0.26245773812E+03  0.26245773812E+03  0.00000000000E+00 0.  1.
          6    1    1    2  501    0 -0.23957547868E+03 -0.65397977253E+02  0.14176643907E+02  0.30299056528E+03  0.17300000000E+03 0. -1.
         -6    1    1    2    0  503  0.23957547868E+03  0.65397977253E+02  0.75938426619E+02  0.31203998149E+03  0.17300000000E+03 0.  1.
</event>
<event>
 4    1  0.6132688E+000  0.1000000E+03  0.7546771E-02  0.1280296E+00
         21   -1    0    0  501  502  0.00000000000E+00  0.00000000000E+00  0.11049976036E+03  0.11049976036E+03  0.00000000000E+00 0. -1.
         21   -1    0    0  502  503 -0.00000000000E+00 -0.00000000000E+00 -0.12479512863E+04  0.12479512863E+04  0.00000000000E+00 0.  1.
          6    1    1    2  501    0 -0.99762501925E+02 -0.78500856135E+02 -0.14375267353E+02  0.21505950227E+03  0.17300000000E+03 0. -1.
         -6    1    1    2    0  503  0.99762501925E+02  0.78500856135E+02 -0.11230762586E+04  0.11433915444E+04  0.17300000000E+03 0.  1.
</event>
<event>
 4    1  0.6132688E+000  0.1000000E+03  0.7546771E-02  0.1280296E+00
         21   -1    0    0  503  502  0.00000000000E+00  0.00000000000E+00  0.11764041201E+03  0.11764041201E+03  0.00000000000E+00 0. -1.
         21   -1    0    0  501  503 -0.00000000000E+00 -0.00000000000E+00 -0.52163749029E+03  0.52163749029E+03  0.00000000000E+00 0. -1.
          6    1    1    2  501    0  0.11012994914E+03 -0.62844087616E+02 -0.36190785053E+03  0.42069499322E+03  0.17300000000E+03 0. -1.
         -6    1    1    2    0  502 -0.11012994914E+03  0.62844087616E+02 -0.42089227752E+02  0.21858290907E+03  0.17300000000E+03 0. -1.
</event>
<event>
 4    1  0.6132688E+000  0.1000000E+03  0.7546771E-02  0.1280296E+00
         21   -1    0    0  503  502  0.00000000000E+00  0.00000000000E+00  0.67592370794E+02  0.67592370794E+02  0.00000000000E+00 0. -1.
         21   -1    0    0  501  503 -0.00000000000E+00 -0.00000000000E+00 -0.67325668674E+03  0.67325668674E+03  0.00000000000E+00 0. -1.
          6    1    1    2  501    0  0.58176827582E+02  0.92517117830E+02 -0.40751037639E+03  0.45600182809E+03  0.17300000000E+03 0. -1.
         -6    1    1    2    0  502 -0.58176827582E+02 -0.92517117830E+02 -0.19815393956E+03  0.28484722944E+03  0.17300000000E+03 0. -1.
</event>
<event>
 4    1  0.6132688E+000  0.1000000E+03  0.7546771E-02  0.1280296E+00
         21   -1    0    0  503  502  0.00000000000E+00  0.00000000000E+00  0.52708145565E+02  0.52708145565E+02  0.00000000000E+00 0. -1.
         21   -1    0    0  501  503 -0.00000000000E+00 -0.00000000000E+00 -0.10250699135E+04  0.10250699135E+04  0.00000000000E+00 0. -1.
          6    1    1    2  501    0 -0.10435141658E+03 -0.87216451867E+02 -0.65974354403E+03  0.69547571597E+03  0.17300000000E+03 0. -1.
         -6    1    1    2    0  502  0.10435141658E+03  0.87216451867E+02 -0.31261822391E+03  0.38230234310E+03  0.17300000000E+03 0. -1.
</event>
<event>
 4    1  0.6132688E+000  0.1000000E+03  0.7546771E-02  0.1280296E+00
         21   -1    0    0  503  502  0.00000000000E+00  0.00000000000E+00  0.57317896905E+02  0.57317896905E+02  0.00000000000E+00 0. -1.
         21   -1    0    0  501  503 -0.00000000000E+00 -0.00000000000E+00 -0.73828271423E+03  0.73828271423E+03  0.00000000000E+00 0. -1.
          6    1    1    2  501    0 -0.62217297026E+02  0.35770814922E+02 -0.50499381079E+03  0.53860773499E+03  0.17300000000E+03 0. -1.
         -6    1    1    2    0  502  0.62217297026E+02 -0.35770814922E+02 -0.17597100653E+03  0.25699287614E+03  0.17300000000E+03 0. -1.
</event>
<event>
 4    1  0.6132688E+000  0.1000000E+03  0.7546771E-02  0.1280296E+00
         21   -1    0    0  503  502  0.00000000000E+00  0.00000000000E+00  0.34656248011E+03  0.34656248011E+03  0.00000000000E+00 0. -1.
         21   -1    0    0  501  503 -0.00000000000E+00 -0.00000000000E+00 -0.11765597146E+03  0.11765597146E+03  0.00000000000E+00 0. -1.
          6    1    1    2  501    0  0.53080996330E+01  0.98810117169E+01  0.23346746536E+03  0.29079523328E+03  0.17300000000E+03 0. -1.
         -6    1    1    2    0  502 -0.53080996330E+01 -0.98810117169E+01 -0.45609567154E+01  0.17342321829E+03  0.17300000000E+03 0. -1.
</event>
<event>
 4    1  0.6132688E+000  0.1000000E+03  0.7546771E-02  0.1280296E+00
         21   -1    0    0  503  502  0.00000000000E+00  0.00000000000E+00  0.71244576824E+02  0.71244576824E+02  0.00000000000E+00 0. -1.
         21   -1    0    0  501  503 -0.00000000000E+00 -0.00000000000E+00 -0.85240717141E+03  0.85240717141E+03  0.00000000000E+00 0. -1.
          6    1    1    2  501    0  0.64826127351E+02  0.83314994916E+02 -0.65332523853E+03  0.68403704759E+03  0.17300000000E+03 0. -1.
         -6    1    1    2    0  502 -0.64826127351E+02 -0.83314994916E+02 -0.12783735605E+03  0.23961470065E+03  0.17300000000E+03 0. -1.
</event>
<event>
 4    1  0.6132688E+000  0.1000000E+03  0.7546771E-02  0.1280296E+00
         21   -1    0    0  503  502  0.00000000000E+00  0.00000000000E+00  0.57302909672E+03  0.57302909672E+03  0.00000000000E+00 0. -1.
         21   -1    0    0  501  503 -0.00000000000E+00 -0.00000000000E+00 -0.13872633797E+03  0.13872633797E+03  0.00000000000E+00 0. -1.
          6    1    1    2  501    0  0.95047566398E+02  0.18093188451E+03  0.10571252462E+03  0.28787935767E+03  0.17300000000E+03 0. -1.
         -6    1    1    2    0  502 -0.95047566398E+02 -0.18093188451E+03  0.32859023413E+03  0.42387607703E+03  0.17300000000E+03 0. -1.
</event>
<event>
 4    1  0.6132688E+000  0.1000000E+03  0.7546771E-02  0.1280296E+00
         21   -1    0    0  503  502  0.00000000000E+00  0.00000000000E+00  0.15164833987E+04  0.15164833987E+04  0.00000000000E+00 0. -1.
         21   -1    0    0  501  503 -0.00000000000E+00 -0.00000000000E+00 -0.10597139902E+03  0.10597139902E+03  0.00000000000E+00 0. -1.
          6    1    1    2  501    0  0.29583790027E+02  0.20959496555E+03  0.11191830155E+03  0.29539796282E+03  0.17300000000E+03 0. -1.
         -6    1    1    2    0  502 -0.29583790027E+02 -0.20959496555E+03  0.12985936982E+04  0.13270568349E+04  0.17300000000E+03 0. -1.
</event>
<event>
 4    1  0.6132688E+000  0.1000000E+03  0.7546771E-02  0.1280296E+00
         21   -1    0    0  503  502  0.00000000000E+00  0.00000000000E+00  0.65034085472E+03  0.65034085472E+03  0.00000000000E+00 0.  1.
         21   -1    0    0  501  503 -0.00000000000E+00 -0.00000000000E+00 -0.51977525174E+02  0.51977525174E+02  0.00000000000E+00 0.  1.
          6    1    1    2  501    0 -0.49605152094E+01 -0.49580321050E+02  0.22793983710E+03  0.29046236294E+03  0.17300000000E+03 0.  1.
         -6    1    1    2    0  502  0.49605152094E+01  0.49580321050E+02  0.37042349245E+03  0.41185601696E+03  0.17300000000E+03 0.  1.
</event>
<event>
 4    1  0.6132688E+000  0.1000000E+03  0.7546771E-02  0.1280296E+00
         21   -1    0    0  501  502  0.00000000000E+00  0.00000000000E+00  0.52552782074E+02  0.52552782074E+02  0.00000000000E+00 0. -1.
         21   -1    0    0  502  503 -0.00000000000E+00 -0.00000000000E+00 -0.14841552216E+04  0.14841552216E+04  0.00000000000E+00 0. -1.
          6    1    1    2  501    0 -0.60375140727E+02 -0.18032027115E+03 -0.41559222149E+03  0.48867827082E+03  0.17300000000E+03 0.  1.
         -6    1    1    2    0  503  0.60375140727E+02  0.18032027115E+03 -0.10160102180E+04  0.10480297329E+04  0.17300000000E+03 0.  1.
</event>
<event>
 4    1  0.6132688E+000  0.1000000E+03  0.7546771E-02  0.1280296E+00
         21   -1    0    0  501  502  0.00000000000E+00  0.00000000000E+00  0.22278137719E+04  0.22278137719E+04  0.00000000000E+00 0.  1.
         21   -1    0    0  502  503 -0.00000000000E+00 -0.00000000000E+00 -0.16719180537E+02  0.16719180537E+02  0.00000000000E+00 0. -1.
          6    1    1    2  501    0  0.19721196328E+02  0.68359281643E+02  0.13817626588E+04  0.13943668679E+04  0.17300000000E+03 0.  1.
         -6    1    1    2    0  503 -0.19721196328E+02 -0.68359281643E+02  0.82933193255E+03  0.85016608455E+03  0.17300000000E+03 0. -1.
</event>
<event>
 4    1  0.6132688E+000  0.1000000E+03  0.7546771E-02  0.1280296E+00
         21   -1    0    0  501  502  0.00000000000E+00  0.00000000000E+00  0.28070699194E+02  0.28070699194E+02  0.00000000000E+00 0.  1.
         21   -1    0    0  502  503 -0.00000000000E+00 -0.00000000000E+00 -0.16637073678E+04  0.16637073678E+04  0.00000000000E+00 0. -1.
          6    1    1    2  501    0 -0.22442545948E+02 -0.49718275747E+02 -0.35805075052E+03  0.40137876720E+03  0.17300000000E+03 0.  1.
         -6    1    1    2    0  503  0.22442545948E+02  0.49718275747E+02 -0.12775859181E+04  0.12903992998E+04  0.17300000000E+03 0. -1.
</event>
<event>
 4    1  0.6132688E+000  0.1000000E+03  0.7546771E-02  0.1280296E+00
         21   -1    0    0  501  502  0.00000000000E+00  0.00000000000E+00  0.33253892054E+03  0.33253892054E+03  0.00000000000E+00 0.  1.
         21   -1    0    0  502  503 -0.00000000000E+00 -0.00000000000E+00 -0.10914660366E+03  0.10914660366E+03  0.00000000000E+00 0.  1.
          6    1    1    2  501    0  0.45140340945E+01 -0.72125421520E+02  0.72487897723E+02  0.20101230870E+03  0.17300000000E+03 0.  1.
         -6    1    1    2    0  503 -0.45140340945E+01  0.72125421520E+02  0.15090441916E+03  0.24067321549E+03  0.17300000000E+03 0.  1.
</event>
<event>
 4    1  0.6132688E+000  0.1000000E+03  0.7546771E-02  0.1280296E+00
         21   -1    0    0  503  502  0.00000000000E+00  0.00000000000E+00  0.17961410524E+03  0.17961410524E+03  0.00000000000E+00 0. -1.
         21   -1    0    0  501  503 -0.00000000000E+00 -0.00000000000E+00 -0.18740117491E+03  0.18740117491E+03  0.00000000000E+00 0.  1.
          6    1    1    2  501    0  0.55213254884E+01 -0.38259257282E+02 -0.51197296603E+02  0.18451129771E+03  0.17300000000E+03 0. -1.
         -6    1    1    2    0  502 -0.55213254884E+01  0.38259257282E+02  0.43410226937E+02  0.18250398244E+03  0.17300000000E+03 0. -1.
</event>
<event>
 4    1  0.6132688E+000  0.1000000E+03  0.7546771E-02  0.1280296E+00
         21   -1    0    0  503  502  0.00000000000E+00  0.00000000000E+00  0.28851983199E+02  0.28851983199E+02  0.00000000000E+00 0. -1.
         21   -1    0    0  501  503 -0.00000000000E+00 -0.00000000000E+00 -0.12995040256E+04  0.12995040256E+04  0.00000000000E+00 0.  1.
          6    1    1    2  501    0  0.24328304908E+02  0.46444748048E+02 -0.87334902954E+03  0.89186126076E+03  0.17300000000E+03 0. -1.
         -6    1    1    2    0  502 -0.24328304908E+02 -0.46444748048E+02 -0.39730301287E+03  0.43649474805E+03  0.17300000000E+03 0. -1.
</event>
<event>
 4    1  0.6132688E+000  0.1000000E+03  0.7546771E-02  0.1280296E+00
         21   -1    0    0  503  502  0.00000000000E+00  0.00000000000E+00  0.12593244100E+03  0.12593244100E+03  0.00000000000E+00 0. -1.
         21   -1    0    0  501  503 -0.00000000000E+00 -0.00000000000E+00 -0.26799647441E+03  0.26799647441E+03  0.00000000000E+00 0.  1.
          6    1    1    2  501    0 -0.14510653847E+02 -0.54760090895E+02 -0.44525383959E+02  0.18740527326E+03  0.17300000000E+03 0. -1.
         -6    1    1    2    0  502  0.14510653847E+02  0.54760090895E+02 -0.97538649449E+02  0.20652364215E+03  0.17300000000E+03 0. -1.
</event>
<event>
 4    1  0.6132688E+000  0.1000000E+03  0.7546771E-02  0.1280296E+00
         21   -1    0    0  501  502  0.00000000000E+00  0.00000000000E+00  0.78597337536E+02  0.78597337536E+02  0.00000000000E+00 0. -1.
         21   -1    0    0  502  503 -0.00000000000E+00 -0.00000000000E+00 -0.61631596609E+03  0.61631596609E+03  0.00000000000E+00 0. -1.
          6    1    1    2  501    0 -0.11311547473E+03  0.16433583112E+02 -0.15235055662E+03  0.25730306135E+03  0.17300000000E+03 0. -1.
         -6    1    1    2    0  503  0.11311547473E+03 -0.16433583112E+02 -0.38536807193E+03  0.43761024227E+03  0.17300000000E+03 0. -1.
</event>
<event>
 4    1  0.6132688E+000  0.1000000E+03  0.7546771E-02  0.1280296E+00
         21   -1    0    0  501  502  0.00000000000E+00  0.00000000000E+00  0.41858199263E+03  0.41858199263E+03  0.00000000000E+00 0. -1.
         21   -1    0    0  502  503 -0.00000000000E+00 -0.00000000000E+00 -0.18307706371E+03  0.18307706371E+03  0.00000000000E+00 0. -1.
          6    1    1    2  501    0 -0.14941097707E+02 -0.20543446853E+02  0.35097369507E+03  0.39211835489E+03  0.17300000000E+03 0. -1.
         -6    1    1    2    0  503  0.14941097707E+02  0.20543446853E+02 -0.11546876614E+03  0.20954070145E+03  0.17300000000E+03 0. -1.
</event>
<event>
 4    1  0.6132688E+000  0.1000000E+03  0.7546771E-02  0.1280296E+00
         21   -1    0    0  503  502  0.00000000000E+00  0.00000000000E+00  0.24973030425E+03  0.24973030425E+03  0.00000000000E+00 0. -1.
         21   -1    0    0  501  503 -0.00000000000E+00 -0.00000000000E+00 -0.28224447930E+03  0.28224447930E+03  0.00000000000E+00 0.  1.
          6    1    1    2  501    0  0.97571044223E+02  0.85247393463E+02 -0.17071710534E+03  0.27542795214E+03  0.17300000000E+03 0.  1.
         -6    1    1    2    0  502 -0.97571044223E+02 -0.85247393463E+02  0.13820293030E+03  0.25654683141E+03  0.17300000000E+03 0. -1.
</event>
<event>
 4    1  0.6132688E+000  0.1000000E+03  0.7546771E-02  0.1280296E+00
         21   -1    0    0  503  502  0.00000000000E+00  0.00000000000E+00  0.25291605462E+02  0.25291605462E+02  0.00000000000E+00 0. -1.
         21   -1    0    0  501  503 -0.00000000000E+00 -0.00000000000E+00 -0.16375584737E+04  0.16375584737E+04  0.00000000000E+00 0.  1.
          6    1    1    2  501    0  0.36535396301E+01  0.55961303732E+02 -0.11792836869E+04  0.11932242161E+04  0.17300000000E+03 0.  1.
         -6    1    1    2    0  502 -0.36535396301E+01 -0.55961303732E+02 -0.43298318132E+03  0.46962586297E+03  0.17300000000E+03 0. -1.
</event>
<event>
 4    1  0.6132688E+000  0.1000000E+03  0.7546771E-02  0.1280296E+00
         21   -1    0    0  503  502  0.00000000000E+00  0.00000000000E+00  0.80573473826E+03  0.80573473826E+03  0.00000000000E+00 0.  1.
         21   -1    0    0  501  503 -0.00000000000E+00 -0.00000000000E+00 -0.50177971303E+03  0.50177971303E+03  0.00000000000E+00 0. -1.
          6    1    1    2  501    0  0.23493133093E+02 -0.30837214402E+03 -0.39083951086E+03  0.52756973923E+03  0.17300000000E+03 0. -1.
         -6    1    1    2    0  502 -0.23493133093E+02  0.30837214402E+03  0.69479453608E+03  0.77994471206E+03  0.17300000000E+03 0.  1.
</event>
<event>
 4    1  0.6132688E+000  0.1000000E+03  0.7546771E-02  0.1280296E+00
         21   -1    0    0  503  502  0.00000000000E+00  0.00000000000E+00  0.20272351667E+03  0.20272351667E+03  0.00000000000E+00 0.  1.
         21   -1    0    0  501  503 -0.00000000000E+00 -0.00000000000E+00 -0.23918602142E+03  0.23918602142E+03  0.00000000000E+00 0. -1.
          6    1    1    2  501    0 -0.77710454044E+00  0.97428520839E+02 -0.11377632594E+03  0.22883831171E+03  0.17300000000E+03 0. -1.
         -6    1    1    2    0  502  0.77710454044E+00 -0.97428520839E+02  0.77313821183E+02  0.21307122638E+03  0.17300000000E+03 0.  1.
</event>
<event>
 4    1  0.6132688E+000  0.1000000E+03  0.7546771E-02  0.1280296E+00
         21   -1    0    0  503  502  0.00000000000E+00  0.00000000000E+00  0.11260512364E+04  0.11260512364E+04  0.00000000000E+00 0.  1.
         21   -1    0    0  501  503 -0.00000000000E+00 -0.00000000000E+00 -0.19511169953E+03  0.19511169953E+03  0.00000000000E+00 0. -1.
          6    1    1    2  501    0  0.27435400242E+02  0.14751214437E+03 -0.11090797221E+03  0.25444471349E+03  0.17300000000E+03 0. -1.
         -6    1    1    2    0  502 -0.27435400242E+02 -0.14751214437E+03  0.10418475091E+04  0.10667182225E+04  0.17300000000E+03 0.  1.
</event>
<event>
 4    1  0.6132688E+000  0.1000000E+03  0.7546771E-02  0.1280296E+00
         21   -1    0    0  501  502  0.00000000000E+00  0.00000000000E+00  0.25347369673E+03  0.25347369673E+03  0.00000000000E+00 0. -1.
         21   -1    0    0  502  503 -0.00000000000E+00 -0.00000000000E+00 -0.18004472859E+03  0.18004472859E+03  0.00000000000E+00 0. -1.
          6    1    1    2  501    0  0.23413130082E+02 -0.83389445161E-01  0.16164318439E+03  0.23791952563E+03  0.17300000000E+03 0. -1.
         -6    1    1    2    0  503 -0.23413130082E+02  0.83389445161E-01 -0.88214216249E+02  0.19559889970E+03  0.17300000000E+03 0. -1.
</event>
<event>
 4    1  0.6132688E+000  0.1000000E+03  0.7546771E-02  0.1280296E+00
         21   -1    0    0  501  502  0.00000000000E+00  0.00000000000E+00  0.30102920878E+03  0.30102920878E+03  0.00000000000E+00 0. -1.
         21   -1    0    0  502  503 -0.00000000000E+00 -0.00000000000E+00 -0.13357762675E+03  0.13357762675E+03  0.00000000000E+00 0. -1.
          6    1    1    2  501    0  0.73465975646E+02 -0.23520331182E+02  0.15504476684E+03  0.24478222011E+03  0.17300000000E+03 0. -1.
         -6    1    1    2    0  503 -0.73465975646E+02  0.23520331182E+02  0.12406815190E+02  0.18982461542E+03  0.17300000000E+03 0. -1.
</event>
<event>
 4    1  0.6132688E+000  0.1000000E+03  0.7546771E-02  0.1280296E+00
         21   -1    0    0  501  502  0.00000000000E+00  0.00000000000E+00  0.12362755373E+04  0.12362755373E+04  0.00000000000E+00 0. -1.
         21   -1    0    0  502  503 -0.00000000000E+00 -0.00000000000E+00 -0.41016308437E+02  0.41016308437E+02  0.00000000000E+00 0. -1.
          6    1    1    2  501    0  0.96242301295E+02  0.10730842581E+03  0.60013431065E+03  0.64098975782E+03  0.17300000000E+03 0. -1.
         -6    1    1    2    0  503 -0.96242301295E+02 -0.10730842581E+03  0.59512491818E+03  0.63630208789E+03  0.17300000000E+03 0. -1.
</event>
<event>
 4    1  0.6132688E+000  0.1000000E+03  0.7546771E-02  0.1280296E+00
         21   -1    0    0  503  502  0.00000000000E+00  0.00000000000E+00  0.59912461479E+03  0.59912461479E+03  0.00000000000E+00 0. -1.
         21   -1    0    0  501  503 -0.00000000000E+00 -0.00000000000E+00 -0.22539252249E+03  0.22539252249E+03  0.00000000000E+00 0. -1.
          6    1    1    2  501    0 -0.80137661416E+02  0.79343374975E+02 -0.15413683913E+03  0.25769086345E+03  0.17300000000E+03 0.  1.
         -6    1    1    2    0  502  0.80137661416E+02 -0.79343374975E+02  0.52786893143E+03  0.56682627383E+03  0.17300000000E+03 0.  1.
</event>
<event>
 4    1  0.6132688E+000  0.1000000E+03  0.7546771E-02  0.1280296E+00
         21   -1    0    0  503  502  0.00000000000E+00  0.00000000000E+00  0.54261615108E+03  0.54261615108E+03  0.00000000000E+00 0.  1.
         21   -1    0    0  501  503 -0.00000000000E+00 -0.00000000000E+00 -0.12225569651E+03  0.12225569651E+03  0.00000000000E+00 0.  1.
          6    1    1    2  501    0  0.68567899125E+02  0.51891866814E+02 -0.96742318691E+01  0.19343451966E+03  0.17300000000E+03 0.  1.
         -6    1    1    2    0  502 -0.68567899125E+02 -0.51891866814E+02  0.43003468644E+03  0.47143732794E+03  0.17300000000E+03 0.  1.
</event>
<event>
 4    1  0.6132688E+000  0.1000000E+03  0.7546771E-02  0.1280296E+00
         21   -1    0    0  501  502  0.00000000000E+00  0.00000000000E+00  0.42482691091E+03  0.42482691091E+03  0.00000000000E+00 0.  1.
         21   -1    0    0  502  503 -0.00000000000E+00 -0.00000000000E+00 -0.10227536766E+03  0.10227536766E+03  0.00000000000E+00 0.  1.
          6    1    1    2  501    0  0.95464664981E+02 -0.25943851415E+02  0.23853414563E+03  0.31082812665E+03  0.17300000000E+03 0.  1.
         -6    1    1    2    0  503 -0.95464664981E+02  0.25943851415E+02  0.84017397621E+02  0.21627415192E+03  0.17300000000E+03 0.  1.
</event>
<event>
 4    1  0.6132688E+000  0.1000000E+03  0.7546771E-02  0.1280296E+00
         21   -1    0    0  501  502  0.00000000000E+00  0.00000000000E+00  0.84313945927E+03  0.84313945927E+03  0.00000000000E+00 0.  1.
         21   -1    0    0  502  503 -0.00000000000E+00 -0.00000000000E+00 -0.71351056511E+02  0.71351056511E+02  0.00000000000E+00 0.  1.
          6    1    1    2  501    0 -0.11135741085E+03  0.21317858876E+01  0.63478711384E+03  0.66729955594E+03  0.17300000000E+03 0.  1.
         -6    1    1    2    0  503  0.11135741085E+03 -0.21317858876E+01  0.13700128892E+03  0.24719095984E+03  0.17300000000E+03 0.  1.
</event>
<event>
 4    1  0.6132688E+000  0.1000000E+03  0.7546771E-02  0.1280296E+00
         21   -1    0    0  501  502  0.00000000000E+00  0.00000000000E+00  0.74903904341E+03  0.74903904341E+03  0.00000000000E+00 0.  1.
         21   -1    0    0  502  503 -0.00000000000E+00 -0.00000000000E+00 -0.62987258317E+02  0.62987258317E+02  0.00000000000E+00 0.  1.
          6    1    1    2  501    0  0.12194155939E+03  0.48177205963E+02  0.35752035777E+03  0.41825900265E+03  0.17300000000E+03 0.  1.
         -6    1    1    2    0  503 -0.12194155939E+03 -0.48177205963E+02  0.32853142733E+03  0.39376729908E+03  0.17300000000E+03 0.  1.
</event>
<event>
 4    1  0.6132688E+000  0.1000000E+03  0.7546771E-02  0.1280296E+00
         21   -1    0    0  503  502  0.00000000000E+00  0.00000000000E+00  0.22915985805E+03  0.22915985805E+03  0.00000000000E+00 0.  1.
         21   -1    0    0  501  503 -0.00000000000E+00 -0.00000000000E+00 -0.25938156653E+03  0.25938156653E+03  0.00000000000E+00 0.  1.
          6    1    1    2  501    0 -0.81846776354E+02 -0.15080349026E+03 -0.67129152195E+01  0.24375120657E+03  0.17300000000E+03 0.  1.
         -6    1    1    2    0  502  0.81846776354E+02  0.15080349026E+03 -0.23508793266E+02  0.24479021801E+03  0.17300000000E+03 0.  1.
</event>
<event>
 4    1  0.6132688E+000  0.1000000E+03  0.7546771E-02  0.1280296E+00
         21   -1    0    0  503  502  0.00000000000E+00  0.00000000000E+00  0.70986625927E+02  0.70986625927E+02  0.00000000000E+00 0.  1.
         21   -1    0    0  501  503 -0.00000000000E+00 -0.00000000000E+00 -0.68939864853E+03  0.68939864853E+03  0.00000000000E+00 0. -1.
          6    1    1    2  501    0 -0.40757616913E+02  0.42026778817E+02 -0.52373547676E+03  0.55466682170E+03  0.17300000000E+03 0.  1.
         -6    1    1    2    0  502  0.40757616913E+02 -0.42026778817E+02 -0.94676545846E+02  0.20571845276E+03  0.17300000000E+03 0.  1.
</event>
<event>
 4    1  0.6132688E+000  0.1000000E+03  0.7546771E-02  0.1280296E+00
         21   -1    0    0  501  502  0.00000000000E+00  0.00000000000E+00  0.23341179806E+04  0.23341179806E+04  0.00000000000E+00 0.  1.
         21   -1    0    0  502  503 -0.00000000000E+00 -0.00000000000E+00 -0.10822622293E+03  0.10822622293E+03  0.00000000000E+00 0.  1.
          6    1    1    2  501    0  0.82066973202E+02  0.46247681239E+03  0.10025628618E+04  0.11205717656E+04  0.17300000000E+03 0.  1.
         -6    1    1    2    0  503 -0.82066973202E+02 -0.46247681239E+03  0.12233288959E+04  0.13217724379E+04  0.17300000000E+03 0.  1.
</event>
<event>
 4    1  0.6132688E+000  0.1000000E+03  0.7546771E-02  0.1280296E+00
         21   -1    0    0  501  502  0.00000000000E+00  0.00000000000E+00  0.66428768937E+03  0.66428768937E+03  0.00000000000E+00 0.  1.
         21   -1    0    0  502  503 -0.00000000000E+00 -0.00000000000E+00 -0.14438507755E+03  0.14438507755E+03  0.00000000000E+00 0.  1.
          6    1    1    2  501    0 -0.35357756449E+02  0.39007894292E+02  0.58820139434E+03  0.61537116204E+03  0.17300000000E+03 0.  1.
         -6    1    1    2    0  503  0.35357756449E+02 -0.39007894292E+02 -0.68298782526E+02  0.19330160489E+03  0.17300000000E+03 0.  1.
</event>
<event>
 4    1  0.6132688E+000  0.1000000E+03  0.7546771E-02  0.1280296E+00
         21   -1    0    0  501  502  0.00000000000E+00  0.00000000000E+00  0.90065960015E+03  0.90065960015E+03  0.00000000000E+00 0.  1.
         21   -1    0    0  502  503 -0.00000000000E+00 -0.00000000000E+00 -0.50501514102E+02  0.50501514102E+02  0.00000000000E+00 0.  1.
          6    1    1    2  501    0 -0.64986540605E+02  0.10549238195E+03  0.45691168939E+03  0.50403292056E+03  0.17300000000E+03 0.  1.
         -6    1    1    2    0  503  0.64986540605E+02 -0.10549238195E+03  0.39324639666E+03  0.44712819370E+03  0.17300000000E+03 0.  1.
</event>
<event>
 4    1  0.6132688E+000  0.1000000E+03  0.7546771E-02  0.1280296E+00
         21   -1    0    0  503  502  0.00000000000E+00  0.00000000000E+00  0.34021489268E+02  0.34021489268E+02  0.00000000000E+00 0. -1.
         21   -1    0    0  501  503 -0.00000000000E+00 -0.00000000000E+00 -0.12199081486E+04  0.12199081486E+04  0.00000000000E+00 0. -1.
          6    1    1    2  501    0  0.35530137697E+02 -0.41067668458E+02 -0.30712753760E+03  0.35665847590E+03  0.17300000000E+03 0. -1.
         -6    1    1    2    0  502 -0.35530137697E+02  0.41067668458E+02 -0.87875912171E+03  0.89727116195E+03  0.17300000000E+03 0. -1.
</event>
<event>
 4    1  0.6132688E+000  0.1000000E+03  0.7546771E-02  0.1280296E+00
         21   -1    0    0  503  502  0.00000000000E+00  0.00000000000E+00  0.47876977556E+03  0.47876977556E+03  0.00000000000E+00 0. -1.
         21   -1    0    0  501  503 -0.00000000000E+00 -0.00000000000E+00 -0.14244530958E+03  0.14244530958E+03  0.00000000000E+00 0. -1.
          6    1    1    2  501    0 -0.74410005138E+02  0.10143328935E+03 -0.10024015105E+02  0.21413790401E+03  0.17300000000E+03 0. -1.
         -6    1    1    2    0  502  0.74410005138E+02 -0.10143328935E+03  0.34634848108E+03  0.40707718114E+03  0.17300000000E+03 0. -1.
</event>
<event>
 4    1  0.6132688E+000  0.1000000E+03  0.7546771E-02  0.1280296E+00
         21   -1    0    0  503  502  0.00000000000E+00  0.00000000000E+00  0.16394460463E+03  0.16394460463E+03  0.00000000000E+00 0. -1.
         21   -1    0    0  501  503 -0.00000000000E+00 -0.00000000000E+00 -0.36662196364E+03  0.36662196364E+03  0.00000000000E+00 0. -1.
          6    1    1    2  501    0 -0.13771141241E+03  0.24120413752E+02 -0.21290374399E+03  0.30790133431E+03  0.17300000000E+03 0. -1.
         -6    1    1    2    0  502  0.13771141241E+03 -0.24120413752E+02  0.10226384973E+02  0.22266523397E+03  0.17300000000E+03 0. -1.
</event>
<event>
 4    1  0.6132688E+000  0.1000000E+03  0.7546771E-02  0.1280296E+00
         21   -1    0    0  501  502  0.00000000000E+00  0.00000000000E+00  0.88558874411E+03  0.88558874411E+03  0.00000000000E+00 0.  1.
         21   -1    0    0  502  503 -0.00000000000E+00 -0.00000000000E+00 -0.11220943556E+03  0.11220943556E+03  0.00000000000E+00 0.  1.
          6    1    1    2  501    0  0.11010724155E+03 -0.10866428239E+03  0.72431854807E+03  0.76059048770E+03  0.17300000000E+03 0.  1.
         -6    1    1    2    0  503 -0.11010724155E+03  0.10866428239E+03  0.49060760475E+02  0.23720769196E+03  0.17300000000E+03 0.  1.
</event>
<event>
 4    1  0.6132688E+000  0.1000000E+03  0.7546771E-02  0.1280296E+00
         21   -1    0    0  501  502  0.00000000000E+00  0.00000000000E+00  0.85998553734E+02  0.85998553734E+02  0.00000000000E+00 0.  1.
         21   -1    0    0  502  503 -0.00000000000E+00 -0.00000000000E+00 -0.68844469851E+03  0.68844469851E+03  0.00000000000E+00 0.  1.
          6    1    1    2  501    0 -0.11326180481E+03 -0.30267070446E+02 -0.10289142327E+03  0.23293771048E+03  0.17300000000E+03 0.  1.
         -6    1    1    2    0  503  0.11326180481E+03  0.30267070446E+02 -0.49955472151E+03  0.54150554176E+03  0.17300000000E+03 0.  1.
</event>
<event>
 4    1  0.6132688E+000  0.1000000E+03  0.7546771E-02  0.1280296E+00
         21   -1    0    0  501  502  0.00000000000E+00  0.00000000000E+00  0.62806695652E+03  0.62806695652E+03  0.00000000000E+00 0.  1.
         21   -1    0    0  502  503 -0.00000000000E+00 -0.00000000000E+00 -0.30273725889E+03  0.30273725889E+03  0.00000000000E+00 0.  1.
          6    1    1    2  501    0  0.11476713570E+03  0.29053352510E+03  0.42976880949E+03  0.55875885161E+03  0.17300000000E+03 0.  1.
         -6    1    1    2    0  503 -0.11476713570E+03 -0.29053352510E+03 -0.10443911186E+03  0.37204536381E+03  0.17300000000E+03 0.  1.
</event>
<event>
 4    1  0.6132688E+000  0.1000000E+03  0.7546771E-02  0.1280296E+00
         21   -1    0    0  503  502  0.00000000000E+00  0.00000000000E+00  0.13716520036E+03  0.13716520036E+03  0.00000000000E+00 0. -1.
         21   -1    0    0  501  503 -0.00000000000E+00 -0.00000000000E+00 -0.48593167836E+03  0.48593167836E+03  0.00000000000E+00 0.  1.
          6    1    1    2  501    0  0.18421365317E+02  0.10269063095E+03 -0.36836261826E+03  0.42012466116E+03  0.17300000000E+03 0.  1.
         -6    1    1    2    0  502 -0.18421365317E+02 -0.10269063095E+03  0.19596140258E+02  0.20297221755E+03  0.17300000000E+03 0. -1.
</event>
<event>
 4    1  0.6132688E+000  0.1000000E+03  0.7546771E-02  0.1280296E+00
         21   -1    0    0  503  502  0.00000000000E+00  0.00000000000E+00  0.85503197439E+03  0.85503197439E+03  0.00000000000E+00 0. -1.
         21   -1    0    0  501  503 -0.00000000000E+00 -0.00000000000E+00 -0.10870312965E+03  0.10870312965E+03  0.00000000000E+00 0.  1.
          6    1    1    2  501    0 -0.16560737317E+03 -0.12637646282E+03  0.15177741262E+03  0.31042260772E+03  0.17300000000E+03 0.  1.
         -6    1    1    2    0  502  0.16560737317E+03  0.12637646282E+03  0.59455143212E+03  0.65331249632E+03  0.17300000000E+03 0. -1.
</event>
<event>
 4    1  0.6132688E+000  0.1000000E+03  0.7546771E-02  0.1280296E+00
         21   -1    0    0  503  502  0.00000000000E+00  0.00000000000E+00  0.49377586751E+03  0.49377586751E+03  0.00000000000E+00 0. -1.
         21   -1    0    0  501  503 -0.00000000000E+00 -0.00000000000E+00 -0.80330773296E+02  0.80330773296E+02  0.00000000000E+00 0.  1.
          6    1    1    2  501    0  0.70174853182E+01 -0.24685076292E+02  0.69398385535E+02  0.18815879997E+03  0.17300000000E+03 0.  1.
         -6    1    1    2    0  502 -0.70174853182E+01  0.24685076292E+02  0.34404670868E+03  0.38594784083E+03  0.17300000000E+03 0. -1.
</event>
<event>
 4    1  0.6132688E+000  0.1000000E+03  0.7546771E-02  0.1280296E+00
         21   -1    0    0  503  502  0.00000000000E+00  0.00000000000E+00  0.45834811772E+03  0.45834811772E+03  0.00000000000E+00 0. -1.
         21   -1    0    0  501  503 -0.00000000000E+00 -0.00000000000E+00 -0.50125908549E+03  0.50125908549E+03  0.00000000000E+00 0.  1.
          6    1    1    2  501    0 -0.30862955149E+03  0.28901600426E+03  0.12374046467E+03  0.47331084223E+03  0.17300000000E+03 0.  1.
         -6    1    1    2    0  502  0.30862955149E+03 -0.28901600426E+03 -0.16665143243E+03  0.48629636098E+03  0.17300000000E+03 0. -1.
</event>
<event>
 4    1  0.6132688E+000  0.1000000E+03  0.7546771E-02  0.1280296E+00
         21   -1    0    0  503  502  0.00000000000E+00  0.00000000000E+00  0.27873419438E+03  0.27873419438E+03  0.00000000000E+00 0. -1.
         21   -1    0    0  501  503 -0.00000000000E+00 -0.00000000000E+00 -0.14713382658E+03  0.14713382658E+03  0.00000000000E+00 0. -1.
          6    1    1    2  501    0  0.77779205675E+01  0.10070753453E+03  0.34613648890E+02  0.20329684761E+03  0.17300000000E+03 0. -1.
         -6    1    1    2    0  502 -0.77779205675E+01 -0.10070753453E+03  0.96986718911E+02  0.22257117334E+03  0.17300000000E+03 0. -1.
</event>
<event>
 4    1  0.6132688E+000  0.1000000E+03  0.7546771E-02  0.1280296E+00
         21   -1    0    0  501  502  0.00000000000E+00  0.00000000000E+00  0.36820680532E+03  0.36820680532E+03  0.00000000000E+00 0.  1.
         21   -1    0    0  502  503 -0.00000000000E+00 -0.00000000000E+00 -0.11534181038E+03  0.11534181038E+03  0.00000000000E+00 0. -1.
          6    1    1    2  501    0  0.36996676976E+01  0.10245795438E+03  0.17928263021E+03  0.26941154662E+03  0.17300000000E+03 0.  1.
         -6    1    1    2    0  503 -0.36996676976E+01 -0.10245795438E+03  0.73582364733E+02  0.21413706909E+03  0.17300000000E+03 0. -1.
</event>
<event>
 4    1  0.6132688E+000  0.1000000E+03  0.7546771E-02  0.1280296E+00
         21   -1    0    0  501  502  0.00000000000E+00  0.00000000000E+00  0.26672439168E+03  0.26672439168E+03  0.00000000000E+00 0.  1.
         21   -1    0    0  502  503 -0.00000000000E+00 -0.00000000000E+00 -0.13481302898E+03  0.13481302898E+03  0.00000000000E+00 0. -1.
          6    1    1    2  501    0 -0.52410654668E+02  0.10924449303E+02  0.12549829891E+03  0.22032939737E+03  0.17300000000E+03 0.  1.
         -6    1    1    2    0  503  0.52410654668E+02 -0.10924449303E+02  0.64130637912E+01  0.18120802328E+03  0.17300000000E+03 0. -1.
</event>
<event>
 4    1  0.6132688E+000  0.1000000E+03  0.7546771E-02  0.1280296E+00
         21   -1    0    0  501  502  0.00000000000E+00  0.00000000000E+00  0.10577214723E+03  0.10577214723E+03  0.00000000000E+00 0.  1.
         21   -1    0    0  502  503 -0.00000000000E+00 -0.00000000000E+00 -0.68351323773E+03  0.68351323773E+03  0.00000000000E+00 0. -1.
          6    1    1    2  501    0 -0.47055158126E+02 -0.19015410370E+03 -0.38163838598E+03  0.46254689353E+03  0.17300000000E+03 0.  1.
         -6    1    1    2    0  503  0.47055158126E+02  0.19015410370E+03 -0.19610270452E+03  0.32673849143E+03  0.17300000000E+03 0. -1.
</event>
<event>
 4    1  0.6132688E+000  0.1000000E+03  0.7546771E-02  0.1280296E+00
         21   -1    0    0  501  502  0.00000000000E+00  0.00000000000E+00  0.48813381911E+02  0.48813381911E+02  0.00000000000E+00 0.  1.
         21   -1    0    0  502  503 -0.00000000000E+00 -0.00000000000E+00 -0.17473974253E+04  0.17473974253E+04  0.00000000000E+00 0. -1.
          6    1    1    2  501    0  0.27103436798E+02  0.54597568298E+02 -0.15040800005E+03  0.23720678158E+03  0.17300000000E+03 0.  1.
         -6    1    1    2    0  503 -0.27103436798E+02 -0.54597568298E+02 -0.15481760433E+04  0.15590040256E+04  0.17300000000E+03 0. -1.
</event>
<event>
 4    1  0.6132688E+000  0.1000000E+03  0.7546771E-02  0.1280296E+00
         21   -1    0    0  501  502  0.00000000000E+00  0.00000000000E+00  0.80336039021E+03  0.80336039021E+03  0.00000000000E+00 0.  1.
         21   -1    0    0  502  503 -0.00000000000E+00 -0.00000000000E+00 -0.12391518390E+03  0.12391518390E+03  0.00000000000E+00 0. -1.
          6    1    1    2  501    0 -0.15898167188E+02 -0.19848189647E+03  0.85322490146E+02  0.27723048583E+03  0.17300000000E+03 0.  1.
         -6    1    1    2    0  503  0.15898167188E+02  0.19848189647E+03  0.59412271616E+03  0.65004508829E+03  0.17300000000E+03 0. -1.
</event>
<event>
 4    1  0.6132688E+000  0.1000000E+03  0.7546771E-02  0.1280296E+00
         21   -1    0    0  501  502  0.00000000000E+00  0.00000000000E+00  0.70128408141E+02  0.70128408141E+02  0.00000000000E+00 0.  1.
         21   -1    0    0  502  503 -0.00000000000E+00 -0.00000000000E+00 -0.11183467573E+04  0.11183467573E+04  0.00000000000E+00 0. -1.
          6    1    1    2  501    0  0.18558457622E+03 -0.75593051400E+02 -0.33029556306E+03  0.42329670838E+03  0.17300000000E+03 0.  1.
         -6    1    1    2    0  503 -0.18558457622E+03  0.75593051400E+02 -0.71792278615E+03  0.76517845711E+03  0.17300000000E+03 0. -1.
</event>
<event>
 4    1  0.6132688E+000  0.1000000E+03  0.7546771E-02  0.1280296E+00
         21   -1    0    0  501  502  0.00000000000E+00  0.00000000000E+00  0.32363341193E+03  0.32363341193E+03  0.00000000000E+00 0.  1.
         21   -1    0    0  502  503 -0.00000000000E+00 -0.00000000000E+00 -0.17266903900E+03  0.17266903900E+03  0.00000000000E+00 0. -1.
          6    1    1    2  501    0 -0.10783536399E+03  0.65567562500E+02  0.18058697932E+03  0.28012180936E+03  0.17300000000E+03 0.  1.
         -6    1    1    2    0  503  0.10783536399E+03 -0.65567562500E+02 -0.29622606384E+02  0.21618064157E+03  0.17300000000E+03 0. -1.
</event>
<event>
 4    1  0.6132688E+000  0.1000000E+03  0.7546771E-02  0.1280296E+00
         21   -1    0    0  501  502  0.00000000000E+00  0.00000000000E+00  0.17907027927E+03  0.17907027927E+03  0.00000000000E+00 0. -1.
         21   -1    0    0  502  503 -0.00000000000E+00 -0.00000000000E+00 -0.38169436850E+03  0.38169436850E+03  0.00000000000E+00 0. -1.
          6    1    1    2  501    0 -0.26682717036E+02 -0.12788010950E+02  0.10649516918E+03  0.20529423195E+03  0.17300000000E+03 0. -1.
         -6    1    1    2    0  503  0.26682717036E+02  0.12788010950E+02 -0.30911925841E+03  0.35547041583E+03  0.17300000000E+03 0. -1.
</event>
<event>
 4    1  0.6132688E+000  0.1000000E+03  0.7546771E-02  0.1280296E+00
         21   -1    0    0  501  502  0.00000000000E+00  0.00000000000E+00  0.10162586419E+04  0.10162586419E+04  0.00000000000E+00 0. -1.
         21   -1    0    0  502  503 -0.00000000000E+00 -0.00000000000E+00 -0.14301686981E+03  0.14301686981E+03  0.00000000000E+00 0. -1.
          6    1    1    2  501    0  0.20089113807E+03 -0.20677544134E+03  0.70987128542E+03  0.78546774240E+03  0.17300000000E+03 0. -1.
         -6    1    1    2    0  503 -0.20089113807E+03  0.20677544134E+03  0.16337048670E+03  0.37380776934E+03  0.17300000000E+03 0. -1.
</event>
<event>
 4    1  0.6132688E+000  0.1000000E+03  0.7546771E-02  0.1280296E+00
         21   -1    0    0  501  502  0.00000000000E+00  0.00000000000E+00  0.52644968029E+02  0.52644968029E+02  0.00000000000E+00 0.  1.
         21   -1    0    0  502  503 -0.00000000000E+00 -0.00000000000E+00 -0.25916777415E+04  0.25916777415E+04  0.00000000000E+00 0.  1.
          6    1    1    2  501    0 -0.23754509951E+03 -0.20319650445E+03 -0.93386269732E+03  0.99987250745E+03  0.17300000000E+03 0.  1.
         -6    1    1    2    0  503  0.23754509951E+03  0.20319650445E+03 -0.16051700761E+04  0.16444502021E+04  0.17300000000E+03 0.  1.
</event>
<event>
 4    1  0.6132688E+000  0.1000000E+03  0.7546771E-02  0.1280296E+00
         21   -1    0    0  501  502  0.00000000000E+00  0.00000000000E+00  0.17119498830E+03  0.17119498830E+03  0.00000000000E+00 0.  1.
         21   -1    0    0  502  503 -0.00000000000E+00 -0.00000000000E+00 -0.22007456481E+03  0.22007456481E+03  0.00000000000E+00 0.  1.
          6    1    1    2  501    0 -0.65440537028E+02  0.13888751696E+02  0.33207101207E+02  0.18843320536E+03  0.17300000000E+03 0.  1.
         -6    1    1    2    0  503  0.65440537028E+02 -0.13888751696E+02 -0.82086677713E+02  0.20283634775E+03  0.17300000000E+03 0.  1.
</event>
<event>
 4    1  0.6132688E+000  0.1000000E+03  0.7546771E-02  0.1280296E+00
         21   -1    0    0  503  502  0.00000000000E+00  0.00000000000E+00  0.87215656912E+02  0.87215656912E+02  0.00000000000E+00 0.  1.
         21   -1    0    0  501  503 -0.00000000000E+00 -0.00000000000E+00 -0.69802304567E+03  0.69802304567E+03  0.00000000000E+00 0. -1.
          6    1    1    2  501    0 -0.23075327485E+02  0.55211998693E+02 -0.56865267621E+03  0.59739074457E+03  0.17300000000E+03 0. -1.
         -6    1    1    2    0  502  0.23075327485E+02 -0.55211998693E+02 -0.42154712546E+02  0.18784795801E+03  0.17300000000E+03 0.  1.
</event>
<event>
 4    1  0.6132688E+000  0.1000000E+03  0.7546771E-02  0.1280296E+00
         21   -1    0    0  503  502  0.00000000000E+00  0.00000000000E+00  0.17253091874E+03  0.17253091874E+03  0.00000000000E+00 0.  1.
         21   -1    0    0  501  503 -0.00000000000E+00 -0.00000000000E+00 -0.31212371121E+03  0.31212371121E+03  0.00000000000E+00 0. -1.
          6    1    1    2  501    0  0.17057003467E+02  0.13412183836E+03 -0.14823624638E+03  0.26491997591E+03  0.17300000000E+03 0. -1.
         -6    1    1    2    0  502 -0.17057003467E+02 -0.13412183836E+03  0.86434539095E+01  0.21973465405E+03  0.17300000000E+03 0.  1.
</event>
<event>
 4    1  0.6132688E+000  0.1000000E+03  0.7546771E-02  0.1280296E+00
         21   -1    0    0  503  502  0.00000000000E+00  0.00000000000E+00  0.53754793327E+03  0.53754793327E+03  0.00000000000E+00 0.  1.
         21   -1    0    0  501  503 -0.00000000000E+00 -0.00000000000E+00 -0.80176748799E+02  0.80176748799E+02  0.00000000000E+00 0. -1.
          6    1    1    2  501    0  0.39557797914E+02 -0.10719480388E+03  0.21277978389E+03  0.29708547893E+03  0.17300000000E+03 0. -1.
         -6    1    1    2    0  502 -0.39557797914E+02  0.10719480388E+03  0.24459140058E+03  0.32063920314E+03  0.17300000000E+03 0.  1.
</event>
<event>
 4    1  0.6132688E+000  0.1000000E+03  0.7546771E-02  0.1280296E+00
         21   -1    0    0  503  502  0.00000000000E+00  0.00000000000E+00  0.38675934471E+02  0.38675934471E+02  0.00000000000E+00 0.  1.
         21   -1    0    0  501  503 -0.00000000000E+00 -0.00000000000E+00 -0.11349697041E+04  0.11349697041E+04  0.00000000000E+00 0.  1.
          6    1    1    2  501    0  0.34928677190E+02 -0.44051573813E+02 -0.83930988208E+03  0.85879603620E+03  0.17300000000E+03 0.  1.
         -6    1    1    2    0  502 -0.34928677190E+02  0.44051573813E+02 -0.25698388751E+03  0.31484960233E+03  0.17300000000E+03 0.  1.
</event>
<event>
 4    1  0.6132688E+000  0.1000000E+03  0.7546771E-02  0.1280296E+00
         21   -1    0    0  501  502  0.00000000000E+00  0.00000000000E+00  0.14392830598E+02  0.14392830598E+02  0.00000000000E+00 0. -1.
         21   -1    0    0  502  503 -0.00000000000E+00 -0.00000000000E+00 -0.31759205630E+04  0.31759205630E+04  0.00000000000E+00 0.  1.
          6    1    1    2  501    0 -0.12317631416E+03 -0.86801199721E+01 -0.14083947671E+04  0.14243428551E+04  0.17300000000E+03 0. -1.
         -6    1    1    2    0  503  0.12317631416E+03  0.86801199721E+01 -0.17531329653E+04  0.17659705385E+04  0.17300000000E+03 0.  1.
</event>
<event>
 4    1  0.6132688E+000  0.1000000E+03  0.7546771E-02  0.1280296E+00
         21   -1    0    0  503  502  0.00000000000E+00  0.00000000000E+00  0.14494229160E+04  0.14494229160E+04  0.00000000000E+00 0. -1.
         21   -1    0    0  501  503 -0.00000000000E+00 -0.00000000000E+00 -0.23152912757E+02  0.23152912757E+02  0.00000000000E+00 0.  1.
          6    1    1    2  501    0 -0.25284908522E+00 -0.16776525309E+01  0.47109331662E+03  0.50185734170E+03  0.17300000000E+03 0. -1.
         -6    1    1    2    0  502  0.25284908522E+00  0.16776525309E+01  0.95517668658E+03  0.97071848702E+03  0.17300000000E+03 0.  1.
</event>
<event>
 4    1  0.6132688E+000  0.1000000E+03  0.7546771E-02  0.1280296E+00
         21   -1    0    0  503  502  0.00000000000E+00  0.00000000000E+00  0.31125878937E+02  0.31125878937E+02  0.00000000000E+00 0. -1.
         21   -1    0    0  501  503 -0.00000000000E+00 -0.00000000000E+00 -0.98093773216E+03  0.98093773216E+03  0.00000000000E+00 0.  1.
          6    1    1    2  501    0  0.21006580721E+02  0.85968840784E+01 -0.44768270706E+03  0.48048307884E+03  0.17300000000E+03 0.  1.
         -6    1    1    2    0  502 -0.21006580721E+02 -0.85968840784E+01 -0.50212914617E+03  0.53158053226E+03  0.17300000000E+03 0. -1.
</event>
<event>
 4    1  0.6132688E+000  0.1000000E+03  0.7546771E-02  0.1280296E+00
         21   -1    0    0  503  502  0.00000000000E+00  0.00000000000E+00  0.33010601624E+02  0.33010601624E+02  0.00000000000E+00 0. -1.
         21   -1    0    0  501  503 -0.00000000000E+00 -0.00000000000E+00 -0.92484934881E+03  0.92484934881E+03  0.00000000000E+00 0.  1.
          6    1    1    2  501    0  0.47778247646E+01 -0.23939434436E+02 -0.43984615442E+03  0.47327535715E+03  0.17300000000E+03 0.  1.
         -6    1    1    2    0  502 -0.47778247646E+01  0.23939434436E+02 -0.45199259277E+03  0.48458459329E+03  0.17300000000E+03 0. -1.
</event>
<event>
 4    1  0.6132688E+000  0.1000000E+03  0.7546771E-02  0.1280296E+00
         21   -1    0    0  503  502  0.00000000000E+00  0.00000000000E+00  0.27491297032E+03  0.27491297032E+03  0.00000000000E+00 0. -1.
         21   -1    0    0  501  503 -0.00000000000E+00 -0.00000000000E+00 -0.46628821774E+03  0.46628821774E+03  0.00000000000E+00 0. -1.
          6    1    1    2  501    0 -0.35237118805E+02 -0.28196175449E+02 -0.41677314464E+03  0.45350361955E+03  0.17300000000E+03 0. -1.
         -6    1    1    2    0  502  0.35237118805E+02  0.28196175449E+02  0.22539789722E+03  0.28769756850E+03  0.17300000000E+03 0. -1.
</event>
<event>
 4    1  0.6132688E+000  0.1000000E+03  0.7546771E-02  0.1280296E+00
         21   -1    0    0  503  502  0.00000000000E+00  0.00000000000E+00  0.30611188115E+03  0.30611188115E+03  0.00000000000E+00 0.  1.
         21   -1    0    0  501  503 -0.00000000000E+00 -0.00000000000E+00 -0.37540122737E+03  0.37540122737E+03  0.00000000000E+00 0. -1.
          6    1    1    2  501    0 -0.29483522720E+02 -0.15770628961E+03 -0.27931593041E+03  0.36563224813E+03  0.17300000000E+03 0.  1.
         -6    1    1    2    0  502  0.29483522720E+02  0.15770628961E+03  0.21002658418E+03  0.31588086039E+03  0.17300000000E+03 0. -1.
</event>
<event>
 4    1  0.6132688E+000  0.1000000E+03  0.7546771E-02  0.1280296E+00
         21   -1    0    0  503  502  0.00000000000E+00  0.00000000000E+00  0.37997927330E+03  0.37997927330E+03  0.00000000000E+00 0.  1.
         21   -1    0    0  501  503 -0.00000000000E+00 -0.00000000000E+00 -0.97196543780E+02  0.97196543780E+02  0.00000000000E+00 0. -1.
          6    1    1    2  501    0 -0.52998446574E+02 -0.63515929271E+02  0.12565999906E+03  0.22926522626E+03  0.17300000000E+03 0.  1.
         -6    1    1    2    0  502  0.52998446574E+02  0.63515929271E+02  0.15712273046E+03  0.24791059081E+03  0.17300000000E+03 0. -1.
</event>
<event>
 4    1  0.6132688E+000  0.1000000E+03  0.7546771E-02  0.1280296E+00
         21   -1    0    0  503  502  0.00000000000E+00  0.00000000000E+00  0.26457090024E+04  0.26457090024E+04  0.00000000000E+00 0.  1.
         21   -1    0    0  501  503 -0.00000000000E+00 -0.00000000000E+00 -0.13583206464E+02  0.13583206464E+02  0.00000000000E+00 0. -1.
          6    1    1    2  501    0  0.62504077690E+02 -0.13660763296E+02  0.10091397771E+04  0.10258584045E+04  0.17300000000E+03 0.  1.
         -6    1    1    2    0  502 -0.62504077690E+02  0.13660763296E+02  0.16229860188E+04  0.16334338044E+04  0.17300000000E+03 0. -1.
</event>
<event>
 4    1  0.6132688E+000  0.1000000E+03  0.7546771E-02  0.1280296E+00
         21   -1    0    0  503  502  0.00000000000E+00  0.00000000000E+00  0.27356108529E+03  0.27356108529E+03  0.00000000000E+00 0.  1.
         21   -1    0    0  501  503 -0.00000000000E+00 -0.00000000000E+00 -0.15262351983E+03  0.15262351983E+03  0.00000000000E+00 0. -1.
          6    1    1    2  501    0  0.54164309008E+01 -0.65629836843E+02  0.15070103890E+03  0.23869733206E+03  0.17300000000E+03 0.  1.
         -6    1    1    2    0  502 -0.54164309008E+01  0.65629836843E+02 -0.29763473445E+02  0.18748727306E+03  0.17300000000E+03 0. -1.
</event>
<event>
 4    1  0.6132688E+000  0.1000000E+03  0.7546771E-02  0.1280296E+00
         21   -1    0    0  503  502  0.00000000000E+00  0.00000000000E+00  0.84828856337E+03  0.84828856337E+03  0.00000000000E+00 0. -1.
         21   -1    0    0  501  503 -0.00000000000E+00 -0.00000000000E+00 -0.12561520818E+03  0.12561520818E+03  0.00000000000E+00 0. -1.
          6    1    1    2  501    0 -0.58443438667E+02 -0.94384576162E+02 -0.16944764418E+02  0.20625277885E+03  0.17300000000E+03 0. -1.
         -6    1    1    2    0  502  0.58443438667E+02  0.94384576162E+02  0.73961811961E+03  0.76765099270E+03  0.17300000000E+03 0. -1.
</event>
<event>
 4    1  0.6132688E+000  0.1000000E+03  0.7546771E-02  0.1280296E+00
         21   -1    0    0  503  502  0.00000000000E+00  0.00000000000E+00  0.63204888947E+03  0.63204888947E+03  0.00000000000E+00 0. -1.
         21   -1    0    0  501  503 -0.00000000000E+00 -0.00000000000E+00 -0.10808622868E+03  0.10808622868E+03  0.00000000000E+00 0. -1.
          6    1    1    2  501    0 -0.14764926210E+03 -0.12111296679E+03  0.19997171966E+03  0.32616919534E+03  0.17300000000E+03 0. -1.
         -6    1    1    2    0  502  0.14764926210E+03  0.12111296679E+03  0.32399094113E+03  0.41396592282E+03  0.17300000000E+03 0. -1.
</event>
<event>
 4    1  0.6132688E+000  0.1000000E+03  0.7546771E-02  0.1280296E+00
         21   -1    0    0  503  502  0.00000000000E+00  0.00000000000E+00  0.30808444807E+03  0.30808444807E+03  0.00000000000E+00 0. -1.
         21   -1    0    0  501  503 -0.00000000000E+00 -0.00000000000E+00 -0.15561966509E+03  0.15561966509E+03  0.00000000000E+00 0. -1.
          6    1    1    2  501    0 -0.96428782648E+02  0.86456023343E+02  0.11354687558E+03  0.24412096807E+03  0.17300000000E+03 0. -1.
         -6    1    1    2    0  502  0.96428782648E+02 -0.86456023343E+02  0.38917907393E+02  0.21958314510E+03  0.17300000000E+03 0. -1.
</event>
<event>
 4    1  0.6132688E+000  0.1000000E+03  0.7546771E-02  0.1280296E+00
         21   -1    0    0  503  502  0.00000000000E+00  0.00000000000E+00  0.32616137168E+03  0.32616137168E+03  0.00000000000E+00 0. -1.
         21   -1    0    0  501  503 -0.00000000000E+00 -0.00000000000E+00 -0.93415918971E+02  0.93415918971E+02  0.00000000000E+00 0. -1.
          6    1    1    2  501    0  0.12254521163E+02  0.96154106787E+01  0.95658964489E+02  0.19829842889E+03  0.17300000000E+03 0. -1.
         -6    1    1    2    0  502 -0.12254521163E+02 -0.96154106787E+01  0.13708648822E+03  0.22127886176E+03  0.17300000000E+03 0. -1.
</event>
<event>
 4    1  0.6132688E+000  0.1000000E+03  0.7546771E-02  0.1280296E+00
         21   -1    0    0  503  502  0.00000000000E+00  0.00000000000E+00  0.72692097347E+02  0.72692097347E+02  0.00000000000E+00 0. -1.
         21   -1    0    0  501  503 -0.00000000000E+00 -0.00000000000E+00 -0.88857145755E+03  0.88857145755E+03  0.00000000000E+00 0. -1.
          6    1    1    2  501    0 -0.16722141776E+02  0.15920988812E+03 -0.22817527199E+03  0.32805544234E+03  0.17300000000E+03 0. -1.
         -6    1    1    2    0  502  0.16722141776E+02 -0.15920988812E+03 -0.58770408821E+03  0.63320811255E+03  0.17300000000E+03 0. -1.
</event>
<event>
 4    1  0.6132688E+000  0.1000000E+03  0.7546771E-02  0.1280296E+00
         21   -1    0    0  503  502  0.00000000000E+00  0.00000000000E+00  0.67558697818E+02  0.67558697818E+02  0.00000000000E+00 0.  1.
         21   -1    0    0  501  503 -0.00000000000E+00 -0.00000000000E+00 -0.18215313651E+04  0.18215313651E+04  0.00000000000E+00 0.  1.
          6    1    1    2  501    0  0.15275336635E+02  0.12498433593E+03 -0.16254805673E+04  0.16395031244E+04  0.17300000000E+03 0.  1.
         -6    1    1    2    0  502 -0.15275336635E+02 -0.12498433593E+03 -0.12849209998E+03  0.24958693855E+03  0.17300000000E+03 0.  1.
</event>
<event>
 4    1  0.6132688E+000  0.1000000E+03  0.7546771E-02  0.1280296E+00
         21   -1    0    0  501  502  0.00000000000E+00  0.00000000000E+00  0.25749718007E+03  0.25749718007E+03  0.00000000000E+00 0.  1.
         21   -1    0    0  502  503 -0.00000000000E+00 -0.00000000000E+00 -0.44725260711E+03  0.44725260711E+03  0.00000000000E+00 0. -1.
          6    1    1    2  501    0 -0.22974481829E+03 -0.10166158865E+03  0.59551754970E+02  0.31079442025E+03  0.17300000000E+03 0.  1.
         -6    1    1    2    0  503  0.22974481829E+03  0.10166158865E+03 -0.24930718201E+03  0.39395536694E+03  0.17300000000E+03 0. -1.
</event>
<event>
 4    1  0.6132688E+000  0.1000000E+03  0.7546771E-02  0.1280296E+00
         21   -1    0    0  501  502  0.00000000000E+00  0.00000000000E+00  0.86844798506E+02  0.86844798506E+02  0.00000000000E+00 0. -1.
         21   -1    0    0  502  503 -0.00000000000E+00 -0.00000000000E+00 -0.53884096574E+03  0.53884096574E+03  0.00000000000E+00 0.  1.
          6    1    1    2  501    0 -0.71871583404E+02 -0.32581018174E+02 -0.76827073396E+02  0.20508156049E+03  0.17300000000E+03 0. -1.
         -6    1    1    2    0  503  0.71871583404E+02  0.32581018174E+02 -0.37516909383E+03  0.42060420375E+03  0.17300000000E+03 0.  1.
</event>
<event>
 4    1  0.6132688E+000  0.1000000E+03  0.7546771E-02  0.1280296E+00
         21   -1    0    0  501  502  0.00000000000E+00  0.00000000000E+00  0.10948772127E+03  0.10948772127E+03  0.00000000000E+00 0. -1.
         21   -1    0    0  502  503 -0.00000000000E+00 -0.00000000000E+00 -0.68145761430E+03  0.68145761430E+03  0.00000000000E+00 0.  1.
          6    1    1    2  501    0 -0.44235008724E+02 -0.19231635602E+03 -0.17629484654E+03  0.31615058075E+03  0.17300000000E+03 0. -1.
         -6    1    1    2    0  503  0.44235008724E+02  0.19231635602E+03 -0.39567504649E+03  0.47479475482E+03  0.17300000000E+03 0.  1.
</event>
<event>
 4    1  0.6132688E+000  0.1000000E+03  0.7546771E-02  0.1280296E+00
         21   -1    0    0  501  502  0.00000000000E+00  0.00000000000E+00  0.13200844482E+04  0.13200844482E+04  0.00000000000E+00 0. -1.
         21   -1    0    0  502  503 -0.00000000000E+00 -0.00000000000E+00 -0.24379001683E+02  0.24379001683E+02  0.00000000000E+00 0.  1.
          6    1    1    2  501    0  0.29312473067E+02 -0.11000288250E+02  0.78155652657E+03  0.80108665676E+03  0.17300000000E+03 0. -1.
         -6    1    1    2    0  503 -0.29312473067E+02  0.11000288250E+02  0.51414891993E+03  0.54337679310E+03  0.17300000000E+03 0.  1.
</event>
<event>
 4    1  0.6132688E+000  0.1000000E+03  0.7546771E-02  0.1280296E+00
         21   -1    0    0  501  502  0.00000000000E+00  0.00000000000E+00  0.17232473351E+03  0.17232473351E+03  0.00000000000E+00 0. -1.
         21   -1    0    0  502  503 -0.00000000000E+00 -0.00000000000E+00 -0.20261909365E+03  0.20261909365E+03  0.00000000000E+00 0.  1.
          6    1    1    2  501    0 -0.12222009262E+02  0.11832585013E+02 -0.83913188329E+02  0.19302800510E+03  0.17300000000E+03 0. -1.
         -6    1    1    2    0  503  0.12222009262E+02 -0.11832585013E+02  0.53618828194E+02  0.18191582206E+03  0.17300000000E+03 0.  1.
</event>
<event>
 4    1  0.6132688E+000  0.1000000E+03  0.7546771E-02  0.1280296E+00
         21   -1    0    0  501  502  0.00000000000E+00  0.00000000000E+00  0.54057913225E+03  0.54057913225E+03  0.00000000000E+00 0. -1.
         21   -1    0    0  502  503 -0.00000000000E+00 -0.00000000000E+00 -0.99988911214E+02  0.99988911214E+02  0.00000000000E+00 0.  1.
          6    1    1    2  501    0  0.13426203401E+03 -0.27260328223E+02  0.32109234154E+03  0.38961354067E+03  0.17300000000E+03 0. -1.
         -6    1    1    2    0  503 -0.13426203401E+03  0.27260328223E+02  0.11949787949E+03  0.25095450280E+03  0.17300000000E+03 0.  1.
</event>
<event>
 4    1  0.6132688E+000  0.1000000E+03  0.7546771E-02  0.1280296E+00
         21   -1    0    0  503  502  0.00000000000E+00  0.00000000000E+00  0.54828735635E+02  0.54828735635E+02  0.00000000000E+00 0. -1.
         21   -1    0    0  501  503 -0.00000000000E+00 -0.00000000000E+00 -0.69276211960E+03  0.69276211960E+03  0.00000000000E+00 0.  1.
          6    1    1    2  501    0 -0.23275614187E+02  0.33878927107E+02 -0.47197956608E+03  0.50436420047E+03  0.17300000000E+03 0. -1.
         -6    1    1    2    0  502  0.23275614187E+02 -0.33878927107E+02 -0.16595381788E+03  0.24322665476E+03  0.17300000000E+03 0.  1.
</event>
<event>
 4    1  0.6132688E+000  0.1000000E+03  0.7546771E-02  0.1280296E+00
         21   -1    0    0  503  502  0.00000000000E+00  0.00000000000E+00  0.15337234515E+03  0.15337234515E+03  0.00000000000E+00 0. -1.
         21   -1    0    0  501  503 -0.00000000000E+00 -0.00000000000E+00 -0.36290317443E+03  0.36290317443E+03  0.00000000000E+00 0.  1.
          6    1    1    2  501    0 -0.90585558562E+02  0.33097975949E+02 -0.24501106418E+03  0.31505656794E+03  0.17300000000E+03 0. -1.
         -6    1    1    2    0  502  0.90585558562E+02 -0.33097975949E+02  0.35480234905E+02  0.20121895164E+03  0.17300000000E+03 0.  1.
</event>
<event>
 4    1  0.6132688E+000  0.1000000E+03  0.7546771E-02  0.1280296E+00
         21   -1    0    0  501  502  0.00000000000E+00  0.00000000000E+00  0.83174453622E+02  0.83174453622E+02  0.00000000000E+00 0.  1.
         21   -1    0    0  502  503 -0.00000000000E+00 -0.00000000000E+00 -0.62072597972E+03  0.62072597972E+03  0.00000000000E+00 0. -1.
          6    1    1    2  501    0  0.13380956254E+03  0.34458537704E+02 -0.18968611005E+03  0.29155138517E+03  0.17300000000E+03 0.  1.
         -6    1    1    2    0  503 -0.13380956254E+03 -0.34458537704E+02 -0.34786541605E+03  0.41234904817E+03  0.17300000000E+03 0. -1.
</event>
<event>
 4    1  0.6132688E+000  0.1000000E+03  0.7546771E-02  0.1280296E+00
         21   -1    0    0  501  502  0.00000000000E+00  0.00000000000E+00  0.13738723969E+04  0.13738723969E+04  0.00000000000E+00 0.  1.
         21   -1    0    0  502  503 -0.00000000000E+00 -0.00000000000E+00 -0.37838682530E+03  0.37838682530E+03  0.00000000000E+00 0. -1.
          6    1    1    2  501    0 -0.17698030901E+02  0.76079633081E+02  0.13429656892E+04  0.13563138181E+04  0.17300000000E+03 0.  1.
         -6    1    1    2    0  503  0.17698030901E+02 -0.76079633081E+02 -0.34748011761E+03  0.39594540407E+03  0.17300000000E+03 0. -1.
</event>
<event>
 4    1  0.6132688E+000  0.1000000E+03  0.7546771E-02  0.1280296E+00
         21   -1    0    0  503  502  0.00000000000E+00  0.00000000000E+00  0.54284164853E+03  0.54284164853E+03  0.00000000000E+00 0. -1.
         21   -1    0    0  501  503 -0.00000000000E+00 -0.00000000000E+00 -0.65405114884E+02  0.65405114884E+02  0.00000000000E+00 0.  1.
          6    1    1    2  501    0 -0.36422447926E+02  0.20304270079E+02  0.13874363334E+03  0.22564940480E+03  0.17300000000E+03 0. -1.
         -6    1    1    2    0  502  0.36422447926E+02 -0.20304270079E+02  0.33869290031E+03  0.38259735861E+03  0.17300000000E+03 0.  1.
</event>
<event>
 4    1  0.6132688E+000  0.1000000E+03  0.7546771E-02  0.1280296E+00
         21   -1    0    0  501  502  0.00000000000E+00  0.00000000000E+00  0.41006214311E+02  0.41006214311E+02  0.00000000000E+00 0.  1.
         21   -1    0    0  502  503 -0.00000000000E+00 -0.00000000000E+00 -0.12646567950E+04  0.12646567950E+04  0.00000000000E+00 0.  1.
          6    1    1    2  501    0 -0.57243966899E+02 -0.10756147202E+02 -0.22151298781E+03  0.28703583438E+03  0.17300000000E+03 0.  1.
         -6    1    1    2    0  503  0.57243966899E+02  0.10756147202E+02 -0.10021375929E+04  0.10186271749E+04  0.17300000000E+03 0.  1.
</event>
<event>
 4    1  0.6132688E+000  0.1000000E+03  0.7546771E-02  0.1280296E+00
         21   -1    0    0  501  502  0.00000000000E+00  0.00000000000E+00  0.44935927311E+03  0.44935927311E+03  0.00000000000E+00 0.  1.
         21   -1    0    0  502  503 -0.00000000000E+00 -0.00000000000E+00 -0.27609644734E+03  0.27609644734E+03  0.00000000000E+00 0.  1.
          6    1    1    2  501    0  0.37843408184E+02  0.43075081308E+02  0.39702726407E+03  0.43686065809E+03  0.17300000000E+03 0.  1.
         -6    1    1    2    0  503 -0.37843408184E+02 -0.43075081308E+02 -0.22376443830E+03  0.28859506236E+03  0.17300000000E+03 0.  1.
</event>
<event>
 4    1  0.6132688E+000  0.1000000E+03  0.7546771E-02  0.1280296E+00
         21   -1    0    0  501  502  0.00000000000E+00  0.00000000000E+00  0.83328383284E+02  0.83328383284E+02  0.00000000000E+00 0. -1.
         21   -1    0    0  502  503 -0.00000000000E+00 -0.00000000000E+00 -0.54477245557E+03  0.54477245557E+03  0.00000000000E+00 0. -1.
          6    1    1    2  501    0  0.10616325319E+03  0.96244396395E+00 -0.32618449131E+03  0.38418340021E+03  0.17300000000E+03 0. -1.
         -6    1    1    2    0  503 -0.10616325319E+03 -0.96244396395E+00 -0.13525958097E+03  0.24391743864E+03  0.17300000000E+03 0. -1.
</event>
<event>
 4    1  0.6132688E+000  0.1000000E+03  0.7546771E-02  0.1280296E+00
         21   -1    0    0  501  502  0.00000000000E+00  0.00000000000E+00  0.44942047501E+02  0.44942047501E+02  0.00000000000E+00 0. -1.
         21   -1    0    0  502  503 -0.00000000000E+00 -0.00000000000E+00 -0.10760038393E+04  0.10760038393E+04  0.00000000000E+00 0. -1.
          6    1    1    2  501    0  0.68897200456E+01  0.20444368787E+02 -0.17393292296E+03  0.24626632361E+03  0.17300000000E+03 0. -1.
         -6    1    1    2    0  503 -0.68897200456E+01 -0.20444368787E+02 -0.85712886888E+03  0.87467956323E+03  0.17300000000E+03 0. -1.
</event>
<event>
 4    1  0.6132688E+000  0.1000000E+03  0.7546771E-02  0.1280296E+00
         21   -1    0    0  501  502  0.00000000000E+00  0.00000000000E+00  0.36015674580E+02  0.36015674580E+02  0.00000000000E+00 0. -1.
         21   -1    0    0  502  503 -0.00000000000E+00 -0.00000000000E+00 -0.11602034602E+04  0.11602034602E+04  0.00000000000E+00 0. -1.
          6    1    1    2  501    0 -0.96644315412E+02 -0.17883583315E+02 -0.69922621390E+03  0.72698434953E+03  0.17300000000E+03 0. -1.
         -6    1    1    2    0  503  0.96644315412E+02  0.17883583315E+02 -0.42496157174E+03  0.46923478527E+03  0.17300000000E+03 0. -1.
</event>
<event>
 4    1  0.6132688E+000  0.1000000E+03  0.7546771E-02  0.1280296E+00
         21   -1    0    0  501  502  0.00000000000E+00  0.00000000000E+00  0.26995179518E+02  0.26995179518E+02  0.00000000000E+00 0.  1.
         21   -1    0    0  502  503 -0.00000000000E+00 -0.00000000000E+00 -0.30048647963E+04  0.30048647963E+04  0.00000000000E+00 0.  1.
          6    1    1    2  501    0  0.67840217749E+02 -0.21581398812E+03 -0.15056751923E+04  0.15323722646E+04  0.17300000000E+03 0.  1.
         -6    1    1    2    0  503 -0.67840217749E+02  0.21581398812E+03 -0.14721944245E+04  0.14994877112E+04  0.17300000000E+03 0.  1.
</event>
<event>
 4    1  0.6132688E+000  0.1000000E+03  0.7546771E-02  0.1280296E+00
         21   -1    0    0  501  502  0.00000000000E+00  0.00000000000E+00  0.11257019768E+04  0.11257019768E+04  0.00000000000E+00 0.  1.
         21   -1    0    0  502  503 -0.00000000000E+00 -0.00000000000E+00 -0.74937236473E+02  0.74937236473E+02  0.00000000000E+00 0.  1.
          6    1    1    2  501    0 -0.43949144907E+02  0.18360302788E+03  0.80868050403E+03  0.84825394593E+03  0.17300000000E+03 0.  1.
         -6    1    1    2    0  503  0.43949144907E+02 -0.18360302788E+03  0.24208423633E+03  0.35238526738E+03  0.17300000000E+03 0.  1.
</event>
<event>
 4    1  0.6132688E+000  0.1000000E+03  0.7546771E-02  0.1280296E+00
         21   -1    0    0  501  502  0.00000000000E+00  0.00000000000E+00  0.13818426609E+04  0.13818426609E+04  0.00000000000E+00 0. -1.
         21   -1    0    0  502  503 -0.00000000000E+00 -0.00000000000E+00 -0.35445882335E+02  0.35445882335E+02  0.00000000000E+00 0. -1.
          6    1    1    2  501    0 -0.33746356542E+02  0.11485190382E+03  0.89322360477E+03  0.91766398235E+03  0.17300000000E+03 0. -1.
         -6    1    1    2    0  503  0.33746356542E+02 -0.11485190382E+03  0.45317317382E+03  0.49962456091E+03  0.17300000000E+03 0. -1.
</event>
<event>
 4    1  0.6132688E+000  0.1000000E+03  0.7546771E-02  0.1280296E+00
         21   -1    0    0  503  502  0.00000000000E+00  0.00000000000E+00  0.17509127741E+03  0.17509127741E+03  0.00000000000E+00 0.  1.
         21   -1    0    0  501  503 -0.00000000000E+00 -0.00000000000E+00 -0.22444783201E+03  0.22444783201E+03  0.00000000000E+00 0.  1.
          6    1    1    2  501    0  0.69510976964E+02 -0.32398896543E+02 -0.84196787840E+02  0.20712209804E+03  0.17300000000E+03 0.  1.
         -6    1    1    2    0  502 -0.69510976964E+02  0.32398896543E+02  0.34840233238E+02  0.19241701138E+03  0.17300000000E+03 0.  1.
</event>
<event>
 4    1  0.6132688E+000  0.1000000E+03  0.7546771E-02  0.1280296E+00
         21   -1    0    0  503  502  0.00000000000E+00  0.00000000000E+00  0.13018006266E+04  0.13018006266E+04  0.00000000000E+00 0.  1.
         21   -1    0    0  501  503 -0.00000000000E+00 -0.00000000000E+00 -0.60110564096E+02  0.60110564096E+02  0.00000000000E+00 0.  1.
          6    1    1    2  501    0 -0.19545891318E+03  0.57833470633E+01  0.37638022708E+03  0.45807063777E+03  0.17300000000E+03 0.  1.
         -6    1    1    2    0  502  0.19545891318E+03 -0.57833470633E+01  0.86530983545E+03  0.90384055296E+03  0.17300000000E+03 0.  1.
</event>
<event>
 4    1  0.6132688E+000  0.1000000E+03  0.7546771E-02  0.1280296E+00
         21   -1    0    0  503  502  0.00000000000E+00  0.00000000000E+00  0.21326831907E+03  0.21326831907E+03  0.00000000000E+00 0.  1.
         21   -1    0    0  501  503 -0.00000000000E+00 -0.00000000000E+00 -0.50344731383E+03  0.50344731383E+03  0.00000000000E+00 0.  1.
          6    1    1    2  501    0  0.20691569982E+03  0.18575536784E+03 -0.15712948218E+03  0.36323248435E+03  0.17300000000E+03 0.  1.
         -6    1    1    2    0  502 -0.20691569982E+03 -0.18575536784E+03 -0.13304951257E+03  0.35348314855E+03  0.17300000000E+03 0.  1.
</event>
<event>
 4    1  0.6132688E+000  0.1000000E+03  0.7546771E-02  0.1280296E+00
         21   -1    0    0  503  502  0.00000000000E+00  0.00000000000E+00  0.23397222151E+03  0.23397222151E+03  0.00000000000E+00 0. -1.
         21   -1    0    0  501  503 -0.00000000000E+00 -0.00000000000E+00 -0.16725434426E+03  0.16725434426E+03  0.00000000000E+00 0. -1.
          6    1    1    2  501    0  0.78683693442E+02  0.53960565530E+02  0.43550920181E+02  0.20230805445E+03  0.17300000000E+03 0. -1.
         -6    1    1    2    0  502 -0.78683693442E+02 -0.53960565530E+02  0.23166957075E+02  0.19891851132E+03  0.17300000000E+03 0. -1.
</event>
<event>
 4    1  0.6132688E+000  0.1000000E+03  0.7546771E-02  0.1280296E+00
         21   -1    0    0  503  502  0.00000000000E+00  0.00000000000E+00  0.11041295029E+04  0.11041295029E+04  0.00000000000E+00 0. -1.
         21   -1    0    0  501  503 -0.00000000000E+00 -0.00000000000E+00 -0.67447673598E+02  0.67447673598E+02  0.00000000000E+00 0. -1.
          6    1    1    2  501    0 -0.12742465852E+03 -0.17519655137E+02  0.15916203126E+03  0.26796554650E+03  0.17300000000E+03 0. -1.
         -6    1    1    2    0  502  0.12742465852E+03  0.17519655137E+02  0.87751979809E+03  0.90361163004E+03  0.17300000000E+03 0. -1.
</event>
<event>
 4    1  0.6132688E+000  0.1000000E+03  0.7546771E-02  0.1280296E+00
         21   -1    0    0  503  502  0.00000000000E+00  0.00000000000E+00  0.76518577378E+03  0.76518577378E+03  0.00000000000E+00 0. -1.
         21   -1    0    0  501  503 -0.00000000000E+00 -0.00000000000E+00 -0.60437179679E+02  0.60437179679E+02  0.00000000000E+00 0. -1.
          6    1    1    2  501    0  0.26930915256E+02  0.42884939441E+02  0.12725975853E+03  0.22065456798E+03  0.17300000000E+03 0. -1.
         -6    1    1    2    0  502 -0.26930915256E+02 -0.42884939441E+02  0.57748883556E+03  0.60496838548E+03  0.17300000000E+03 0. -1.
</event>
<event>
 4    1  0.6132688E+000  0.1000000E+03  0.7546771E-02  0.1280296E+00
         21   -1    0    0  501  502  0.00000000000E+00  0.00000000000E+00  0.71274501330E+03  0.71274501330E+03  0.00000000000E+00 0. -1.
         21   -1    0    0  502  503 -0.00000000000E+00 -0.00000000000E+00 -0.90827725963E+02  0.90827725963E+02  0.00000000000E+00 0.  1.
          6    1    1    2  501    0  0.34983454635E+02 -0.53361505236E+02  0.58781061504E+03  0.61605325378E+03  0.17300000000E+03 0. -1.
         -6    1    1    2    0  503 -0.34983454635E+02  0.53361505236E+02  0.34106672293E+02  0.18751948548E+03  0.17300000000E+03 0.  1.
</event>
<event>
 4    1  0.6132688E+000  0.1000000E+03  0.7546771E-02  0.1280296E+00
         21   -1    0    0  503  502  0.00000000000E+00  0.00000000000E+00  0.26055497715E+03  0.26055497715E+03  0.00000000000E+00 0. -1.
         21   -1    0    0  501  503 -0.00000000000E+00 -0.00000000000E+00 -0.35170706362E+03  0.35170706362E+03  0.00000000000E+00 0. -1.
          6    1    1    2  501    0  0.18906037474E+03 -0.70252903247E+02 -0.19223016823E+03  0.32796453054E+03  0.17300000000E+03 0.  1.
         -6    1    1    2    0  502 -0.18906037474E+03  0.70252903247E+02  0.10107808176E+03  0.28429751023E+03  0.17300000000E+03 0.  1.
</event>
<event>
 4    1  0.6132688E+000  0.1000000E+03  0.7546771E-02  0.1280296E+00
         21   -1    0    0  503  502  0.00000000000E+00  0.00000000000E+00  0.71447959307E+03  0.71447959307E+03  0.00000000000E+00 0. -1.
         21   -1    0    0  501  503 -0.00000000000E+00 -0.00000000000E+00 -0.48745388584E+02  0.48745388584E+02  0.00000000000E+00 0. -1.
          6    1    1    2  501    0 -0.64731434936E+02 -0.19507352243E+02  0.29583955505E+03  0.34931466874E+03  0.17300000000E+03 0. -1.
         -6    1    1    2    0  502  0.64731434936E+02  0.19507352243E+02  0.36989464944E+03  0.41391031292E+03  0.17300000000E+03 0. -1.
</event>
<event>
 4    1  0.6132688E+000  0.1000000E+03  0.7546771E-02  0.1280296E+00
         21   -1    0    0  503  502  0.00000000000E+00  0.00000000000E+00  0.92661259029E+02  0.92661259029E+02  0.00000000000E+00 0. -1.
         21   -1    0    0  501  503 -0.00000000000E+00 -0.00000000000E+00 -0.11482597913E+04  0.11482597913E+04  0.00000000000E+00 0. -1.
          6    1    1    2  501    0  0.68995921529E+02 -0.10328196763E+03 -0.99775989488E+03  0.10202359579E+04  0.17300000000E+03 0. -1.
         -6    1    1    2    0  502 -0.68995921529E+02  0.10328196763E+03 -0.57838637372E+02  0.22068509238E+03  0.17300000000E+03 0. -1.
</event>
<event>
 4    1  0.6132688E+000  0.1000000E+03  0.7546771E-02  0.1280296E+00
         21   -1    0    0  503  502  0.00000000000E+00  0.00000000000E+00  0.18425133731E+03  0.18425133731E+03  0.00000000000E+00 0. -1.
         21   -1    0    0  501  503 -0.00000000000E+00 -0.00000000000E+00 -0.39129653945E+03  0.39129653945E+03  0.00000000000E+00 0. -1.
          6    1    1    2  501    0  0.77608053488E+02 -0.18988016934E+03 -0.93331286748E+02  0.28410775730E+03  0.17300000000E+03 0. -1.
         -6    1    1    2    0  502 -0.77608053488E+02  0.18988016934E+03 -0.11371391539E+03  0.29144011945E+03  0.17300000000E+03 0. -1.
</event>
<event>
 4    1  0.6132688E+000  0.1000000E+03  0.7546771E-02  0.1280296E+00
         21   -1    0    0  503  502  0.00000000000E+00  0.00000000000E+00  0.84996560861E+03  0.84996560861E+03  0.00000000000E+00 0.  1.
         21   -1    0    0  501  503 -0.00000000000E+00 -0.00000000000E+00 -0.49098623428E+02  0.49098623428E+02  0.00000000000E+00 0. -1.
          6    1    1    2  501    0 -0.67656971819E+02 -0.77359731433E+02  0.32290933042E+03  0.38047526799E+03  0.17300000000E+03 0. -1.
         -6    1    1    2    0  502  0.67656971819E+02  0.77359731433E+02  0.47795765477E+03  0.51858896405E+03  0.17300000000E+03 0.  1.
</event>
<event>
 4    1  0.6132688E+000  0.1000000E+03  0.7546771E-02  0.1280296E+00
         21   -1    0    0  503  502  0.00000000000E+00  0.00000000000E+00  0.68191977590E+02  0.68191977590E+02  0.00000000000E+00 0.  1.
         21   -1    0    0  501  503 -0.00000000000E+00 -0.00000000000E+00 -0.12640118807E+04  0.12640118807E+04  0.00000000000E+00 0. -1.
          6    1    1    2  501    0  0.15844258913E+03 -0.70378465442E+02 -0.96521430626E+03  0.99580361491E+03  0.17300000000E+03 0. -1.
         -6    1    1    2    0  502 -0.15844258913E+03  0.70378465442E+02 -0.23060559684E+03  0.33640024338E+03  0.17300000000E+03 0.  1.
</event>
<event>
 4    1  0.6132688E+000  0.1000000E+03  0.7546771E-02  0.1280296E+00
         21   -1    0    0  503  502  0.00000000000E+00  0.00000000000E+00  0.56347027661E+03  0.56347027661E+03  0.00000000000E+00 0.  1.
         21   -1    0    0  501  503 -0.00000000000E+00 -0.00000000000E+00 -0.13080303783E+03  0.13080303783E+03  0.00000000000E+00 0.  1.
          6    1    1    2  501    0 -0.19547162028E+03  0.54326672554E+02  0.15095802085E+03  0.30639495059E+03  0.17300000000E+03 0.  1.
         -6    1    1    2    0  502  0.19547162028E+03 -0.54326672554E+02  0.28170921792E+03  0.38787836386E+03  0.17300000000E+03 0.  1.
</event>
<event>
 4    1  0.6132688E+000  0.1000000E+03  0.7546771E-02  0.1280296E+00
         21   -1    0    0  501  502  0.00000000000E+00  0.00000000000E+00  0.12698174595E+03  0.12698174595E+03  0.00000000000E+00 0. -1.
         21   -1    0    0  502  503 -0.00000000000E+00 -0.00000000000E+00 -0.65808707092E+03  0.65808707092E+03  0.00000000000E+00 0. -1.
          6    1    1    2  501    0  0.14100588269E+03 -0.36625783042E+02 -0.21086977309E+02  0.22715141987E+03  0.17300000000E+03 0. -1.
         -6    1    1    2    0  503 -0.14100588269E+03  0.36625783042E+02 -0.51001834766E+03  0.55791739701E+03  0.17300000000E+03 0. -1.
</event>
<event>
 4    1  0.6132688E+000  0.1000000E+03  0.7546771E-02  0.1280296E+00
         21   -1    0    0  501  502  0.00000000000E+00  0.00000000000E+00  0.51219281064E+02  0.51219281064E+02  0.00000000000E+00 0. -1.
         21   -1    0    0  502  503 -0.00000000000E+00 -0.00000000000E+00 -0.90566246796E+03  0.90566246796E+03  0.00000000000E+00 0. -1.
          6    1    1    2  501    0  0.74389482653E+02 -0.26166828665E+02 -0.20243218900E+03  0.27771620261E+03  0.17300000000E+03 0. -1.
         -6    1    1    2    0  503 -0.74389482653E+02  0.26166828665E+02 -0.65201099790E+03  0.67916554641E+03  0.17300000000E+03 0. -1.
</event>
<event>
 4    1  0.6132688E+000  0.1000000E+03  0.7546771E-02  0.1280296E+00
         21   -1    0    0  503  502  0.00000000000E+00  0.00000000000E+00  0.21605564927E+02  0.21605564927E+02  0.00000000000E+00 0.  1.
         21   -1    0    0  501  503 -0.00000000000E+00 -0.00000000000E+00 -0.16571756795E+04  0.16571756795E+04  0.00000000000E+00 0.  1.
          6    1    1    2  501    0 -0.52012265253E+02 -0.49823601535E+02 -0.93410363495E+03  0.95271520814E+03  0.17300000000E+03 0.  1.
         -6    1    1    2    0  502  0.52012265253E+02  0.49823601535E+02 -0.70146647964E+03  0.72606603630E+03  0.17300000000E+03 0.  1.
</event>
<event>
 4    1  0.6132688E+000  0.1000000E+03  0.7546771E-02  0.1280296E+00
         21   -1    0    0  503  502  0.00000000000E+00  0.00000000000E+00  0.17106818770E+03  0.17106818770E+03  0.00000000000E+00 0. -1.
         21   -1    0    0  501  503 -0.00000000000E+00 -0.00000000000E+00 -0.23160766932E+03  0.23160766932E+03  0.00000000000E+00 0.  1.
          6    1    1    2  501    0  0.27174649151E+02 -0.73432892666E+02 -0.90628669267E+02  0.21041246868E+03  0.17300000000E+03 0.  1.
         -6    1    1    2    0  502 -0.27174649151E+02  0.73432892666E+02  0.30089187645E+02  0.19226338834E+03  0.17300000000E+03 0. -1.
</event>
<event>
 4    1  0.6132688E+000  0.1000000E+03  0.7546771E-02  0.1280296E+00
         21   -1    0    0  503  502  0.00000000000E+00  0.00000000000E+00  0.32617548646E+03  0.32617548646E+03  0.00000000000E+00 0.  1.
         21   -1    0    0  501  503 -0.00000000000E+00 -0.00000000000E+00 -0.15763537472E+03  0.15763537472E+03  0.00000000000E+00 0. -1.
          6    1    1    2  501    0 -0.51181311066E+02  0.13199032355E+03  0.43691105696E+02  0.22776936763E+03  0.17300000000E+03 0. -1.
         -6    1    1    2    0  502  0.51181311066E+02 -0.13199032355E+03  0.12484900604E+03  0.25604149355E+03  0.17300000000E+03 0. -1.
</event>
<event>
 4    1  0.6132688E+000  0.1000000E+03  0.7546771E-02  0.1280296E+00
         21   -1    0    0  503  502  0.00000000000E+00  0.00000000000E+00  0.55409306579E+03  0.55409306579E+03  0.00000000000E+00 0.  1.
         21   -1    0    0  501  503 -0.00000000000E+00 -0.00000000000E+00 -0.13116558549E+03  0.13116558549E+03  0.00000000000E+00 0.  1.
          6    1    1    2  501    0 -0.13099197185E+03  0.11040871782E+03  0.64342638114E+02  0.25182922138E+03  0.17300000000E+03 0.  1.
         -6    1    1    2    0  502  0.13099197185E+03 -0.11040871782E+03  0.35858484219E+03  0.43342942990E+03  0.17300000000E+03 0.  1.
</event>
<event>
 4    1  0.6132688E+000  0.1000000E+03  0.7546771E-02  0.1280296E+00
         21   -1    0    0  503  502  0.00000000000E+00  0.00000000000E+00  0.37652578175E+03  0.37652578175E+03  0.00000000000E+00 0.  1.
         21   -1    0    0  501  503 -0.00000000000E+00 -0.00000000000E+00 -0.13481997431E+03  0.13481997431E+03  0.00000000000E+00 0. -1.
          6    1    1    2  501    0  0.96391501142E+02 -0.10192927192E+03  0.15939017837E+03  0.27388889523E+03  0.17300000000E+03 0. -1.
         -6    1    1    2    0  502 -0.96391501142E+02  0.10192927192E+03  0.82315629076E+02  0.23745686083E+03  0.17300000000E+03 0.  1.
</event>
<event>
 4    1  0.6132688E+000  0.1000000E+03  0.7546771E-02  0.1280296E+00
         21   -1    0    0  503  502  0.00000000000E+00  0.00000000000E+00  0.50584206272E+03  0.50584206272E+03  0.00000000000E+00 0.  1.
         21   -1    0    0  501  503 -0.00000000000E+00 -0.00000000000E+00 -0.10099567083E+03  0.10099567083E+03  0.00000000000E+00 0. -1.
          6    1    1    2  501    0 -0.87101128790E+02 -0.86722281199E+02  0.30685076579E+03  0.37308679039E+03  0.17300000000E+03 0. -1.
         -6    1    1    2    0  502  0.87101128790E+02  0.86722281199E+02  0.97995626100E+02  0.23375094316E+03  0.17300000000E+03 0.  1.
</event>
<event>
 4    1  0.6132688E+000  0.1000000E+03  0.7546771E-02  0.1280296E+00
         21   -1    0    0  501  502  0.00000000000E+00  0.00000000000E+00  0.86967197797E+03  0.86967197797E+03  0.00000000000E+00 0.  1.
         21   -1    0    0  502  503 -0.00000000000E+00 -0.00000000000E+00 -0.47350974436E+02  0.47350974436E+02  0.00000000000E+00 0.  1.
          6    1    1    2  501    0  0.18310878340E+02  0.10200926774E+03  0.46216850555E+03  0.50425182845E+03  0.17300000000E+03 0.  1.
         -6    1    1    2    0  503 -0.18310878340E+02 -0.10200926774E+03  0.36015249798E+03  0.41277112396E+03  0.17300000000E+03 0.  1.
</event>
<event>
 4    1  0.6132688E+000  0.1000000E+03  0.7546771E-02  0.1280296E+00
         21   -1    0    0  501  502  0.00000000000E+00  0.00000000000E+00  0.37577813281E+03  0.37577813281E+03  0.00000000000E+00 0. -1.
         21   -1    0    0  502  503 -0.00000000000E+00 -0.00000000000E+00 -0.17702633432E+03  0.17702633432E+03  0.00000000000E+00 0. -1.
          6    1    1    2  501    0  0.19088786780E+03  0.39608826070E-01  0.11273712346E+03  0.28120604305E+03  0.17300000000E+03 0. -1.
         -6    1    1    2    0  503 -0.19088786780E+03 -0.39608826070E-01  0.86014675025E+02  0.27159842408E+03  0.17300000000E+03 0. -1.
</event>
<event>
 4    1  0.6132688E+000  0.1000000E+03  0.7546771E-02  0.1280296E+00
         21   -1    0    0  501  502  0.00000000000E+00  0.00000000000E+00  0.11018121191E+03  0.11018121191E+03  0.00000000000E+00 0. -1.
         21   -1    0    0  502  503 -0.00000000000E+00 -0.00000000000E+00 -0.12250176014E+04  0.12250176014E+04  0.00000000000E+00 0. -1.
          6    1    1    2  501    0 -0.13544204497E+03 -0.22969307323E+03 -0.22264065047E+03  0.38807385210E+03  0.17300000000E+03 0. -1.
         -6    1    1    2    0  503  0.13544204497E+03  0.22969307323E+03 -0.89219573899E+03  0.94712496119E+03  0.17300000000E+03 0. -1.
</event>
<event>
 4    1  0.6132688E+000  0.1000000E+03  0.7546771E-02  0.1280296E+00
         21   -1    0    0  503  502  0.00000000000E+00  0.00000000000E+00  0.77547139551E+03  0.77547139551E+03  0.00000000000E+00 0.  1.
         21   -1    0    0  501  503 -0.00000000000E+00 -0.00000000000E+00 -0.21497212935E+03  0.21497212935E+03  0.00000000000E+00 0.  1.
          6    1    1    2  501    0  0.22685503037E+03  0.29208138773E+03  0.28145967020E+03  0.49590653133E+03  0.17300000000E+03 0.  1.
         -6    1    1    2    0  502 -0.22685503037E+03 -0.29208138773E+03  0.27903959596E+03  0.49453699353E+03  0.17300000000E+03 0.  1.
</event>
<event>
 4    1  0.6132688E+000  0.1000000E+03  0.7546771E-02  0.1280296E+00
         21   -1    0    0  503  502  0.00000000000E+00  0.00000000000E+00  0.24704278433E+03  0.24704278433E+03  0.00000000000E+00 0.  1.
         21   -1    0    0  501  503 -0.00000000000E+00 -0.00000000000E+00 -0.24704454996E+03  0.24704454996E+03  0.00000000000E+00 0.  1.
          6    1    1    2  501    0 -0.14710006534E+03  0.31607535179E+02  0.91999703983E+02  0.24704333838E+03  0.17300000000E+03 0.  1.
         -6    1    1    2    0  502  0.14710006534E+03 -0.31607535179E+02 -0.92001469617E+02  0.24704399591E+03  0.17300000000E+03 0.  1.
</event>
<event>
 4    1  0.6132688E+000  0.1000000E+03  0.7546771E-02  0.1280296E+00
         21   -1    0    0  503  502  0.00000000000E+00  0.00000000000E+00  0.20056505048E+04  0.20056505048E+04  0.00000000000E+00 0.  1.
         21   -1    0    0  501  503 -0.00000000000E+00 -0.00000000000E+00 -0.31661199661E+02  0.31661199661E+02  0.00000000000E+00 0.  1.
          6    1    1    2  501    0 -0.12731868375E+03 -0.85948946492E+02  0.58326250559E+03  0.62747224565E+03  0.17300000000E+03 0.  1.
         -6    1    1    2    0  502  0.12731868375E+03  0.85948946492E+02  0.13907267996E+04  0.14098394589E+04  0.17300000000E+03 0.  1.
</event>
<event>
 4    1  0.6132688E+000  0.1000000E+03  0.7546771E-02  0.1280296E+00
         21   -1    0    0  501  502  0.00000000000E+00  0.00000000000E+00  0.99876448813E+02  0.99876448813E+02  0.00000000000E+00 0. -1.
         21   -1    0    0  502  503 -0.00000000000E+00 -0.00000000000E+00 -0.40717031853E+03  0.40717031853E+03  0.00000000000E+00 0.  1.
          6    1    1    2  501    0  0.40975611232E+02  0.74742553121E+02 -0.79566161164E+02  0.20862699721E+03  0.17300000000E+03 0.  1.
         -6    1    1    2    0  503 -0.40975611232E+02 -0.74742553121E+02 -0.22772770855E+03  0.29841977013E+03  0.17300000000E+03 0.  1.
</event>
<event>
 4    1  0.6132688E+000  0.1000000E+03  0.7546771E-02  0.1280296E+00
         21   -1    0    0  503  502  0.00000000000E+00  0.00000000000E+00  0.84572454442E+02  0.84572454442E+02  0.00000000000E+00 0.  1.
         21   -1    0    0  501  503 -0.00000000000E+00 -0.00000000000E+00 -0.60101964199E+03  0.60101964199E+03  0.00000000000E+00 0. -1.
          6    1    1    2  501    0 -0.13953676614E+03  0.18038790594E+02 -0.20768551991E+03  0.30472640557E+03  0.17300000000E+03 0. -1.
         -6    1    1    2    0  502  0.13953676614E+03 -0.18038790594E+02 -0.30876166764E+03  0.38086569086E+03  0.17300000000E+03 0. -1.
</event>
<event>
 4    1  0.6132688E+000  0.1000000E+03  0.7546771E-02  0.1280296E+00
         21   -1    0    0  503  502  0.00000000000E+00  0.00000000000E+00  0.12554755486E+04  0.12554755486E+04  0.00000000000E+00 0.  1.
         21   -1    0    0  501  503 -0.00000000000E+00 -0.00000000000E+00 -0.66187404104E+02  0.66187404104E+02  0.00000000000E+00 0. -1.
          6    1    1    2  501    0  0.18177655893E+03 -0.11485462022E+02  0.27049985926E+03  0.36915282346E+03  0.17300000000E+03 0. -1.
         -6    1    1    2    0  502 -0.18177655893E+03  0.11485462022E+02  0.91878828521E+03  0.95251012921E+03  0.17300000000E+03 0. -1.
</event>
<event>
 4    1  0.6132688E+000  0.1000000E+03  0.7546771E-02  0.1280296E+00
         21   -1    0    0  503  502  0.00000000000E+00  0.00000000000E+00  0.24364070676E+03  0.24364070676E+03  0.00000000000E+00 0.  1.
         21   -1    0    0  501  503 -0.00000000000E+00 -0.00000000000E+00 -0.17036613573E+03  0.17036613573E+03  0.00000000000E+00 0.  1.
          6    1    1    2  501    0  0.89887281342E+01  0.16294870198E+00 -0.72312860299E+02  0.18772046652E+03  0.17300000000E+03 0.  1.
         -6    1    1    2    0  502 -0.89887281342E+01 -0.16294870198E+00  0.14558743134E+03  0.22628637597E+03  0.17300000000E+03 0.  1.
</event>
<event>
 4    1  0.6132688E+000  0.1000000E+03  0.7546771E-02  0.1280296E+00
         21   -1    0    0  503  502  0.00000000000E+00  0.00000000000E+00  0.26030035768E+04  0.26030035768E+04  0.00000000000E+00 0.  1.
         21   -1    0    0  501  503 -0.00000000000E+00 -0.00000000000E+00 -0.44808613972E+02  0.44808613972E+02  0.00000000000E+00 0.  1.
          6    1    1    2  501    0 -0.10482712674E+03 -0.23997892437E+03  0.75714565471E+03  0.81962012731E+03  0.17300000000E+03 0.  1.
         -6    1    1    2    0  502  0.10482712674E+03  0.23997892437E+03  0.18010493081E+04  0.18281920634E+04  0.17300000000E+03 0.  1.
</event>
<event>
 4    1  0.6132688E+000  0.1000000E+03  0.7546771E-02  0.1280296E+00
         21   -1    0    0  503  502  0.00000000000E+00  0.00000000000E+00  0.19809195460E+03  0.19809195460E+03  0.00000000000E+00 0.  1.
         21   -1    0    0  501  503 -0.00000000000E+00 -0.00000000000E+00 -0.15337285721E+03  0.15337285721E+03  0.00000000000E+00 0.  1.
          6    1    1    2  501    0  0.13825285293E+02  0.14062464749E+02  0.14291623905E+02  0.17470587266E+03  0.17300000000E+03 0.  1.
         -6    1    1    2    0  502 -0.13825285293E+02 -0.14062464749E+02  0.30427473485E+02  0.17675893915E+03  0.17300000000E+03 0.  1.
</event>
<event>
 4    1  0.6132688E+000  0.1000000E+03  0.7546771E-02  0.1280296E+00
         21   -1    0    0  503  502  0.00000000000E+00  0.00000000000E+00  0.18695683124E+03  0.18695683124E+03  0.00000000000E+00 0.  1.
         21   -1    0    0  501  503 -0.00000000000E+00 -0.00000000000E+00 -0.26489164062E+03  0.26489164062E+03  0.00000000000E+00 0.  1.
          6    1    1    2  501    0 -0.50196028781E+00  0.11424138700E+03 -0.12108666002E+03  0.24008816236E+03  0.17300000000E+03 0.  1.
         -6    1    1    2    0  502  0.50196028781E+00 -0.11424138700E+03  0.43151850647E+02  0.21176030951E+03  0.17300000000E+03 0.  1.
</event>
<event>
 4    1  0.6132688E+000  0.1000000E+03  0.7546771E-02  0.1280296E+00
         21   -1    0    0  501  502  0.00000000000E+00  0.00000000000E+00  0.17543502666E+03  0.17543502666E+03  0.00000000000E+00 0. -1.
         21   -1    0    0  502  503 -0.00000000000E+00 -0.00000000000E+00 -0.18755492631E+03  0.18755492631E+03  0.00000000000E+00 0.  1.
          6    1    1    2  501    0  0.35978239985E+02 -0.26840281557E+02  0.24939087514E+02  0.18045994723E+03  0.17300000000E+03 0. -1.
         -6    1    1    2    0  503 -0.35978239985E+02  0.26840281557E+02 -0.37058987171E+02  0.18253000574E+03  0.17300000000E+03 0.  1.
</event>
<event>
 4    1  0.6132688E+000  0.1000000E+03  0.7546771E-02  0.1280296E+00
         21   -1    0    0  503  502  0.00000000000E+00  0.00000000000E+00  0.34129184762E+03  0.34129184762E+03  0.00000000000E+00 0. -1.
         21   -1    0    0  501  503 -0.00000000000E+00 -0.00000000000E+00 -0.40748456486E+03  0.40748456486E+03  0.00000000000E+00 0. -1.
          6    1    1    2  501    0 -0.28193285904E+03 -0.70532641856E+02 -0.19081625664E+03  0.38833083109E+03  0.17300000000E+03 0. -1.
         -6    1    1    2    0  502  0.28193285904E+03  0.70532641856E+02  0.12462353940E+03  0.36044558140E+03  0.17300000000E+03 0. -1.
</event>
<event>
 4    1  0.6132688E+000  0.1000000E+03  0.7546771E-02  0.1280296E+00
         21   -1    0    0  503  502  0.00000000000E+00  0.00000000000E+00  0.52332324686E+03  0.52332324686E+03  0.00000000000E+00 0. -1.
         21   -1    0    0  501  503 -0.00000000000E+00 -0.00000000000E+00 -0.26696586144E+03  0.26696586144E+03  0.00000000000E+00 0.  1.
          6    1    1    2  501    0 -0.61767990351E+02 -0.15104010772E+03 -0.17666666363E+03  0.29625750422E+03  0.17300000000E+03 0.  1.
         -6    1    1    2    0  502  0.61767990351E+02  0.15104010772E+03  0.43302404905E+03  0.49403160408E+03  0.17300000000E+03 0. -1.
</event>
<event>
 4    1  0.6132688E+000  0.1000000E+03  0.7546771E-02  0.1280296E+00
         21   -1    0    0  503  502  0.00000000000E+00  0.00000000000E+00  0.37896970449E+03  0.37896970449E+03  0.00000000000E+00 0. -1.
         21   -1    0    0  501  503 -0.00000000000E+00 -0.00000000000E+00 -0.12280553060E+03  0.12280553060E+03  0.00000000000E+00 0.  1.
          6    1    1    2  501    0  0.95629111402E+02 -0.42455470890E+02  0.40563909414E+02  0.20620820717E+03  0.17300000000E+03 0.  1.
         -6    1    1    2    0  502 -0.95629111402E+02  0.42455470890E+02  0.21560026447E+03  0.29556702793E+03  0.17300000000E+03 0. -1.
</event>
<event>
 4    1  0.6132688E+000  0.1000000E+03  0.7546771E-02  0.1280296E+00
         21   -1    0    0  503  502  0.00000000000E+00  0.00000000000E+00  0.40664431067E+03  0.40664431067E+03  0.00000000000E+00 0. -1.
         21   -1    0    0  501  503 -0.00000000000E+00 -0.00000000000E+00 -0.91454798241E+02  0.91454798241E+02  0.00000000000E+00 0.  1.
          6    1    1    2  501    0  0.10249993082E+02 -0.75965569984E+02  0.20565210329E+03  0.27945951007E+03  0.17300000000E+03 0.  1.
         -6    1    1    2    0  502 -0.10249993082E+02  0.75965569984E+02  0.10953740914E+03  0.21863959884E+03  0.17300000000E+03 0. -1.
</event>
<event>
 4    1  0.6132688E+000  0.1000000E+03  0.7546771E-02  0.1280296E+00
         21   -1    0    0  503  502  0.00000000000E+00  0.00000000000E+00  0.63103800034E+03  0.63103800034E+03  0.00000000000E+00 0. -1.
         21   -1    0    0  501  503 -0.00000000000E+00 -0.00000000000E+00 -0.88358661572E+02  0.88358661572E+02  0.00000000000E+00 0. -1.
          6    1    1    2  501    0  0.70536650717E+02 -0.28248950920E+02  0.55614831886E+02  0.19696556006E+03  0.17300000000E+03 0. -1.
         -6    1    1    2    0  502 -0.70536650717E+02  0.28248950920E+02  0.48706450688E+03  0.52243110185E+03  0.17300000000E+03 0. -1.
</event>
<event>
 4    1  0.6132688E+000  0.1000000E+03  0.7546771E-02  0.1280296E+00
         21   -1    0    0  503  502  0.00000000000E+00  0.00000000000E+00  0.32621142615E+03  0.32621142615E+03  0.00000000000E+00 0. -1.
         21   -1    0    0  501  503 -0.00000000000E+00 -0.00000000000E+00 -0.15591607889E+03  0.15591607889E+03  0.00000000000E+00 0. -1.
          6    1    1    2  501    0  0.57206328942E+02  0.10723125053E+03  0.12441600113E+01  0.21142765452E+03  0.17300000000E+03 0. -1.
         -6    1    1    2    0  502 -0.57206328942E+02 -0.10723125053E+03  0.16905118725E+03  0.27069985052E+03  0.17300000000E+03 0. -1.
</event>
<event>
 4    1  0.6132688E+000  0.1000000E+03  0.7546771E-02  0.1280296E+00
         21   -1    0    0  501  502  0.00000000000E+00  0.00000000000E+00  0.16929321173E+03  0.16929321173E+03  0.00000000000E+00 0.  1.
         21   -1    0    0  502  503 -0.00000000000E+00 -0.00000000000E+00 -0.40019271327E+03  0.40019271327E+03  0.00000000000E+00 0. -1.
          6    1    1    2  501    0 -0.95013046646E+02  0.14374892292E+03 -0.16813783613E+02  0.24475076137E+03  0.17300000000E+03 0. -1.
         -6    1    1    2    0  503  0.95013046646E+02 -0.14374892292E+03 -0.21408571793E+03  0.32473516362E+03  0.17300000000E+03 0. -1.
</event>
<event>
 4    1  0.6132688E+000  0.1000000E+03  0.7546771E-02  0.1280296E+00
         21   -1    0    0  501  502  0.00000000000E+00  0.00000000000E+00  0.45612439842E+02  0.45612439842E+02  0.00000000000E+00 0.  1.
         21   -1    0    0  502  503 -0.00000000000E+00 -0.00000000000E+00 -0.73503665248E+03  0.73503665248E+03  0.00000000000E+00 0. -1.
          6    1    1    2  501    0 -0.18497032085E+02 -0.14322769884E+02 -0.22697385292E+03  0.28634491762E+03  0.17300000000E+03 0.  1.
         -6    1    1    2    0  503  0.18497032085E+02  0.14322769884E+02 -0.46245035971E+03  0.49430417471E+03  0.17300000000E+03 0. -1.
</event>
<event>
 4    1  0.6132688E+000  0.1000000E+03  0.7546771E-02  0.1280296E+00
         21   -1    0    0  501  502  0.00000000000E+00  0.00000000000E+00  0.73077411121E+03  0.73077411121E+03  0.00000000000E+00 0.  1.
         21   -1    0    0  502  503 -0.00000000000E+00 -0.00000000000E+00 -0.75977265436E+02  0.75977265436E+02  0.00000000000E+00 0. -1.
          6    1    1    2  501    0  0.85254972136E+02  0.12891816880E+03  0.25671337366E+03  0.34600442301E+03  0.17300000000E+03 0.  1.
         -6    1    1    2    0  503 -0.85254972136E+02 -0.12891816880E+03  0.39808347211E+03  0.46074695364E+03  0.17300000000E+03 0. -1.
</event>
<event>
 4    1  0.6132688E+000  0.1000000E+03  0.7546771E-02  0.1280296E+00
         21   -1    0    0  501  502  0.00000000000E+00  0.00000000000E+00  0.20178947316E+03  0.20178947316E+03  0.00000000000E+00 0.  1.
         21   -1    0    0  502  503 -0.00000000000E+00 -0.00000000000E+00 -0.63035771952E+03  0.63035771952E+03  0.00000000000E+00 0. -1.
          6    1    1    2  501    0 -0.38922596631E+02 -0.25763801995E+03 -0.14325466505E+02  0.31309189840E+03  0.17300000000E+03 0.  1.
         -6    1    1    2    0  503  0.38922596631E+02  0.25763801995E+03 -0.41424277986E+03  0.51905529428E+03  0.17300000000E+03 0. -1.
</event>
<event>
 4    1  0.6132688E+000  0.1000000E+03  0.7546771E-02  0.1280296E+00
         21   -1    0    0  501  502  0.00000000000E+00  0.00000000000E+00  0.23316037740E+02  0.23316037740E+02  0.00000000000E+00 0.  1.
         21   -1    0    0  502  503 -0.00000000000E+00 -0.00000000000E+00 -0.29162274400E+04  0.29162274400E+04  0.00000000000E+00 0. -1.
          6    1    1    2  501    0 -0.98942082157E+02  0.11400446165E+03 -0.74972687349E+03  0.78409561773E+03  0.17300000000E+03 0.  1.
         -6    1    1    2    0  503  0.98942082157E+02 -0.11400446165E+03 -0.21431845287E+04  0.21554478600E+04  0.17300000000E+03 0. -1.
</event>
<event>
 4    1  0.6132688E+000  0.1000000E+03  0.7546771E-02  0.1280296E+00
         21   -1    0    0  503  502  0.00000000000E+00  0.00000000000E+00  0.12696850160E+04  0.12696850160E+04  0.00000000000E+00 0. -1.
         21   -1    0    0  501  503 -0.00000000000E+00 -0.00000000000E+00 -0.59039029639E+02  0.59039029639E+02  0.00000000000E+00 0. -1.
          6    1    1    2  501    0 -0.77087127051E+01 -0.12268398787E+03  0.18558662613E+03  0.28192584296E+03  0.17300000000E+03 0. -1.
         -6    1    1    2    0  502  0.77087127051E+01  0.12268398787E+03  0.10250593603E+04  0.10467982027E+04  0.17300000000E+03 0. -1.
</event>
<event>
 4    1  0.6132688E+000  0.1000000E+03  0.7546771E-02  0.1280296E+00
         21   -1    0    0  503  502  0.00000000000E+00  0.00000000000E+00  0.64229018429E+03  0.64229018429E+03  0.00000000000E+00 0. -1.
         21   -1    0    0  501  503 -0.00000000000E+00 -0.00000000000E+00 -0.55972700202E+02  0.55972700202E+02  0.00000000000E+00 0. -1.
          6    1    1    2  501    0  0.35398972786E+02  0.54803442169E+02  0.21579569796E+03  0.28417122973E+03  0.17300000000E+03 0. -1.
         -6    1    1    2    0  502 -0.35398972786E+02 -0.54803442169E+02  0.37052178613E+03  0.41409165476E+03  0.17300000000E+03 0. -1.
</event>
<event>
 4    1  0.6132688E+000  0.1000000E+03  0.7546771E-02  0.1280296E+00
         21   -1    0    0  503  502  0.00000000000E+00  0.00000000000E+00  0.36046038671E+03  0.36046038671E+03  0.00000000000E+00 0.  1.
         21   -1    0    0  501  503 -0.00000000000E+00 -0.00000000000E+00 -0.10749716626E+03  0.10749716626E+03  0.00000000000E+00 0. -1.
          6    1    1    2  501    0 -0.26044548475E+02 -0.40395842352E+02  0.30581910367E+02  0.18213839745E+03  0.17300000000E+03 0. -1.
         -6    1    1    2    0  502  0.26044548475E+02  0.40395842352E+02  0.22238131009E+03  0.28581915552E+03  0.17300000000E+03 0. -1.
</event>
<event>
 4    1  0.6132688E+000  0.1000000E+03  0.7546771E-02  0.1280296E+00
         21   -1    0    0  503  502  0.00000000000E+00  0.00000000000E+00  0.12607222076E+04  0.12607222076E+04  0.00000000000E+00 0.  1.
         21   -1    0    0  501  503 -0.00000000000E+00 -0.00000000000E+00 -0.39654982753E+02  0.39654982753E+02  0.00000000000E+00 0. -1.
          6    1    1    2  501    0 -0.74969615682E+02  0.94922532133E+02  0.39617148750E+03  0.44890040977E+03  0.17300000000E+03 0. -1.
         -6    1    1    2    0  502  0.74969615682E+02 -0.94922532133E+02  0.82489573731E+03  0.85147678055E+03  0.17300000000E+03 0. -1.
</event>
<event>
 4    1  0.6132688E+000  0.1000000E+03  0.7546771E-02  0.1280296E+00
         21   -1    0    0  503  502  0.00000000000E+00  0.00000000000E+00  0.29624539788E+03  0.29624539788E+03  0.00000000000E+00 0.  1.
         21   -1    0    0  501  503 -0.00000000000E+00 -0.00000000000E+00 -0.10760926760E+03  0.10760926760E+03  0.00000000000E+00 0. -1.
          6    1    1    2  501    0 -0.39428951632E+02 -0.15679888827E+02  0.80501489871E+02  0.19547376042E+03  0.17300000000E+03 0. -1.
         -6    1    1    2    0  502  0.39428951632E+02  0.15679888827E+02  0.10813464040E+03  0.20838090506E+03  0.17300000000E+03 0. -1.
</event>
<event>
 4    1  0.6132688E+000  0.1000000E+03  0.7546771E-02  0.1280296E+00
         21   -1    0    0  501  502  0.00000000000E+00  0.00000000000E+00  0.20325056941E+03  0.20325056941E+03  0.00000000000E+00 0. -1.
         21   -1    0    0  502  503 -0.00000000000E+00 -0.00000000000E+00 -0.27705653168E+03  0.27705653168E+03  0.00000000000E+00 0.  1.
          6    1    1    2  501    0 -0.46113240550E+02 -0.11670793853E+03  0.67466243762E+02  0.22411574670E+03  0.17300000000E+03 0.  1.
         -6    1    1    2    0  503  0.46113240550E+02  0.11670793853E+03 -0.14127220603E+03  0.25619135440E+03  0.17300000000E+03 0. -1.
</event>
<event>
 4    1  0.6132688E+000  0.1000000E+03  0.7546771E-02  0.1280296E+00
         21   -1    0    0  501  502  0.00000000000E+00  0.00000000000E+00  0.68916225771E+03  0.68916225771E+03  0.00000000000E+00 0. -1.
         21   -1    0    0  502  503 -0.00000000000E+00 -0.00000000000E+00 -0.12657448555E+03  0.12657448555E+03  0.00000000000E+00 0.  1.
          6    1    1    2  501    0 -0.61572155795E+02 -0.18389989902E+02  0.59973405573E+03  0.62748646177E+03  0.17300000000E+03 0.  1.
         -6    1    1    2    0  503  0.61572155795E+02  0.18389989902E+02 -0.37146283572E+02  0.18825028149E+03  0.17300000000E+03 0. -1.
</event>
<event>
 4    1  0.6132688E+000  0.1000000E+03  0.7546771E-02  0.1280296E+00
         21   -1    0    0  501  502  0.00000000000E+00  0.00000000000E+00  0.16213859103E+03  0.16213859103E+03  0.00000000000E+00 0. -1.
         21   -1    0    0  502  503 -0.00000000000E+00 -0.00000000000E+00 -0.32732775278E+03  0.32732775278E+03  0.00000000000E+00 0.  1.
          6    1    1    2  501    0  0.21839544059E+02  0.14966459325E+03 -0.65235868615E+02  0.23887480970E+03  0.17300000000E+03 0.  1.
         -6    1    1    2    0  503 -0.21839544059E+02 -0.14966459325E+03 -0.99953293130E+02  0.25059153410E+03  0.17300000000E+03 0. -1.
</event>
<event>
 4    1  0.6132688E+000  0.1000000E+03  0.7546771E-02  0.1280296E+00
         21   -1    0    0  501  502  0.00000000000E+00  0.00000000000E+00  0.86256047718E+02  0.86256047718E+02  0.00000000000E+00 0. -1.
         21   -1    0    0  502  503 -0.00000000000E+00 -0.00000000000E+00 -0.59954387502E+03  0.59954387502E+03  0.00000000000E+00 0.  1.
          6    1    1    2  501    0  0.61451316865E+02  0.10022748867E+03 -0.39120310922E+03  0.44361096300E+03  0.17300000000E+03 0.  1.
         -6    1    1    2    0  503 -0.61451316865E+02 -0.10022748867E+03 -0.12208471808E+03  0.24218895974E+03  0.17300000000E+03 0. -1.
</event>
<event>
 4    1  0.6132688E+000  0.1000000E+03  0.7546771E-02  0.1280296E+00
         21   -1    0    0  501  502  0.00000000000E+00  0.00000000000E+00  0.21063691118E+03  0.21063691118E+03  0.00000000000E+00 0. -1.
         21   -1    0    0  502  503 -0.00000000000E+00 -0.00000000000E+00 -0.21992465843E+03  0.21992465843E+03  0.00000000000E+00 0.  1.
          6    1    1    2  501    0 -0.48092600603E+02 -0.11797231538E+03  0.81998826354E+01  0.21500372905E+03  0.17300000000E+03 0.  1.
         -6    1    1    2    0  503  0.48092600603E+02  0.11797231538E+03 -0.17487629884E+02  0.21555784056E+03  0.17300000000E+03 0. -1.
</event>
<event>
 4    1  0.6132688E+000  0.1000000E+03  0.7546771E-02  0.1280296E+00
         21   -1    0    0  501  502  0.00000000000E+00  0.00000000000E+00  0.35555428537E+02  0.35555428537E+02  0.00000000000E+00 0.  1.
         21   -1    0    0  502  503 -0.00000000000E+00 -0.00000000000E+00 -0.14411505047E+04  0.14411505047E+04  0.00000000000E+00 0.  1.
          6    1    1    2  501    0 -0.20294283596E+02  0.84573859934E+02 -0.32035835188E+03  0.37433016089E+03  0.17300000000E+03 0.  1.
         -6    1    1    2    0  503  0.20294283596E+02 -0.84573859934E+02 -0.10852367243E+04  0.11023757723E+04  0.17300000000E+03 0.  1.
</event>
<event>
 4    1  0.6132688E+000  0.1000000E+03  0.7546771E-02  0.1280296E+00
         21   -1    0    0  501  502  0.00000000000E+00  0.00000000000E+00  0.92424323093E+02  0.92424323093E+02  0.00000000000E+00 0.  1.
         21   -1    0    0  502  503 -0.00000000000E+00 -0.00000000000E+00 -0.61209168274E+03  0.61209168274E+03  0.00000000000E+00 0.  1.
          6    1    1    2  501    0  0.45804785299E+02 -0.41863589217E+02 -0.36241982937E+02  0.18733157712E+03  0.17300000000E+03 0.  1.
         -6    1    1    2    0  503 -0.45804785299E+02  0.41863589217E+02 -0.48342537671E+03  0.51718442872E+03  0.17300000000E+03 0.  1.
</event>
<event>
 4    1  0.6132688E+000  0.1000000E+03  0.7546771E-02  0.1280296E+00
         21   -1    0    0  503  502  0.00000000000E+00  0.00000000000E+00  0.11823002974E+03  0.11823002974E+03  0.00000000000E+00 0. -1.
         21   -1    0    0  501  503 -0.00000000000E+00 -0.00000000000E+00 -0.73973144449E+03  0.73973144449E+03  0.00000000000E+00 0. -1.
          6    1    1    2  501    0  0.74095976313E+02 -0.20569315044E+03 -0.45383237931E+03  0.53262812013E+03  0.17300000000E+03 0. -1.
         -6    1    1    2    0  502 -0.74095976313E+02  0.20569315044E+03 -0.16766903545E+03  0.32533335410E+03  0.17300000000E+03 0. -1.
</event>
<event>
 4    1  0.6132688E+000  0.1000000E+03  0.7546771E-02  0.1280296E+00
         21   -1    0    0  503  502  0.00000000000E+00  0.00000000000E+00  0.20185943837E+04  0.20185943837E+04  0.00000000000E+00 0. -1.
         21   -1    0    0  501  503 -0.00000000000E+00 -0.00000000000E+00 -0.47676675926E+02  0.47676675926E+02  0.00000000000E+00 0. -1.
          6    1    1    2  501    0  0.79234703931E+02 -0.11265677164E+03  0.26085716915E+03  0.34197243925E+03  0.17300000000E+03 0. -1.
         -6    1    1    2    0  502 -0.79234703931E+02  0.11265677164E+03  0.17100605386E+04  0.17242986204E+04  0.17300000000E+03 0. -1.
</event>
<event>
 4    1  0.6132688E+000  0.1000000E+03  0.7546771E-02  0.1280296E+00
         21   -1    0    0  503  502  0.00000000000E+00  0.00000000000E+00  0.14732910252E+03  0.14732910252E+03  0.00000000000E+00 0.  1.
         21   -1    0    0  501  503 -0.00000000000E+00 -0.00000000000E+00 -0.23936444415E+03  0.23936444415E+03  0.00000000000E+00 0. -1.
          6    1    1    2  501    0 -0.81050416763E+01  0.96475889566E+01 -0.12010198942E+03  0.21097927750E+03  0.17300000000E+03 0. -1.
         -6    1    1    2    0  502  0.81050416763E+01 -0.96475889566E+01  0.28066647791E+02  0.17571426917E+03  0.17300000000E+03 0.  1.
</event>
<event>
 4    1  0.6132688E+000  0.1000000E+03  0.7546771E-02  0.1280296E+00
         21   -1    0    0  503  502  0.00000000000E+00  0.00000000000E+00  0.16213885713E+03  0.16213885713E+03  0.00000000000E+00 0. -1.
         21   -1    0    0  501  503 -0.00000000000E+00 -0.00000000000E+00 -0.55107932817E+03  0.55107932817E+03  0.00000000000E+00 0. -1.
          6    1    1    2  501    0  0.10516945088E+03 -0.17185564957E+03 -0.35816580043E+03  0.44587747003E+03  0.17300000000E+03 0. -1.
         -6    1    1    2    0  502 -0.10516945088E+03  0.17185564957E+03 -0.30774670605E+02  0.26734071526E+03  0.17300000000E+03 0. -1.
</event>
<event>
 4    1  0.6132688E+000  0.1000000E+03  0.7546771E-02  0.1280296E+00
         21   -1    0    0  503  502  0.00000000000E+00  0.00000000000E+00  0.33909444203E+02  0.33909444203E+02  0.00000000000E+00 0. -1.
         21   -1    0    0  501  503 -0.00000000000E+00 -0.00000000000E+00 -0.12826839443E+04  0.12826839443E+04  0.00000000000E+00 0. -1.
          6    1    1    2  501    0  0.83826646524E+02  0.33823275092E+02 -0.85623582963E+03  0.87820254870E+03  0.17300000000E+03 0. -1.
         -6    1    1    2    0  502 -0.83826646524E+02 -0.33823275092E+02 -0.39253867043E+03  0.43839083977E+03  0.17300000000E+03 0. -1.
</event>
<event>
 4    1  0.6132688E+000  0.1000000E+03  0.7546771E-02  0.1280296E+00
         21   -1    0    0  501  502  0.00000000000E+00  0.00000000000E+00  0.23397005600E+02  0.23397005600E+02  0.00000000000E+00 0. -1.
         21   -1    0    0  502  503 -0.00000000000E+00 -0.00000000000E+00 -0.14331077184E+04  0.14331077184E+04  0.00000000000E+00 0. -1.
          6    1    1    2  501    0 -0.29562847222E+02 -0.34870398219E+02 -0.55023392744E+03  0.57859854953E+03  0.17300000000E+03 0. -1.
         -6    1    1    2    0  503  0.29562847222E+02  0.34870398219E+02 -0.85947678538E+03  0.87790617450E+03  0.17300000000E+03 0. -1.
</event>
<event>
 4    1  0.6132688E+000  0.1000000E+03  0.7546771E-02  0.1280296E+00
         21   -1    0    0  501  502  0.00000000000E+00  0.00000000000E+00  0.46354570247E+03  0.46354570247E+03  0.00000000000E+00 0. -1.
         21   -1    0    0  502  503 -0.00000000000E+00 -0.00000000000E+00 -0.73617562739E+02  0.73617562739E+02  0.00000000000E+00 0. -1.
          6    1    1    2  501    0 -0.19407398699E+02 -0.52411303449E+02  0.24257871926E+03  0.30314522409E+03  0.17300000000E+03 0. -1.
         -6    1    1    2    0  503  0.19407398699E+02  0.52411303449E+02  0.14734942047E+03  0.23401804111E+03  0.17300000000E+03 0. -1.
</event>
<event>
 4    1  0.6132688E+000  0.1000000E+03  0.7546771E-02  0.1280296E+00
         21   -1    0    0  501  502  0.00000000000E+00  0.00000000000E+00  0.14416796282E+03  0.14416796282E+03  0.00000000000E+00 0. -1.
         21   -1    0    0  502  503 -0.00000000000E+00 -0.00000000000E+00 -0.17104385777E+04  0.17104385777E+04  0.00000000000E+00 0. -1.
          6    1    1    2  501    0 -0.10887606652E+03 -0.14514916251E+03  0.17315305936E+02  0.25129882025E+03  0.17300000000E+03 0. -1.
         -6    1    1    2    0  503  0.10887606652E+03  0.14514916251E+03 -0.15835859208E+04  0.16033077203E+04  0.17300000000E+03 0. -1.
</event>
<event>
 4    1  0.6132688E+000  0.1000000E+03  0.7546771E-02  0.1280296E+00
         21   -1    0    0  503  502  0.00000000000E+00  0.00000000000E+00  0.13515955671E+03  0.13515955671E+03  0.00000000000E+00 0. -1.
         21   -1    0    0  501  503 -0.00000000000E+00 -0.00000000000E+00 -0.76230280237E+03  0.76230280237E+03  0.00000000000E+00 0. -1.
          6    1    1    2  501    0  0.31973613867E+02 -0.32323596574E+01 -0.68887167638E+03  0.71098941388E+03  0.17300000000E+03 0. -1.
         -6    1    1    2    0  502 -0.31973613867E+02  0.32323596574E+01  0.61728430715E+02  0.18647294520E+03  0.17300000000E+03 0. -1.
</event>
<event>
 4    1  0.6132688E+000  0.1000000E+03  0.7546771E-02  0.1280296E+00
         21   -1    0    0  501  502  0.00000000000E+00  0.00000000000E+00  0.39966813192E+03  0.39966813192E+03  0.00000000000E+00 0. -1.
         21   -1    0    0  502  503 -0.00000000000E+00 -0.00000000000E+00 -0.10312531076E+03  0.10312531076E+03  0.00000000000E+00 0. -1.
          6    1    1    2  501    0 -0.55987149092E+02  0.81616066616E+02  0.10045368491E+03  0.22319427861E+03  0.17300000000E+03 0. -1.
         -6    1    1    2    0  503  0.55987149092E+02 -0.81616066616E+02  0.19608913625E+03  0.27959916407E+03  0.17300000000E+03 0. -1.
</event>
<event>
 4    1  0.6132688E+000  0.1000000E+03  0.7546771E-02  0.1280296E+00
         21   -1    0    0  501  502  0.00000000000E+00  0.00000000000E+00  0.28308277530E+03  0.28308277530E+03  0.00000000000E+00 0. -1.
         21   -1    0    0  502  503 -0.00000000000E+00 -0.00000000000E+00 -0.18046959127E+03  0.18046959127E+03  0.00000000000E+00 0. -1.
          6    1    1    2  501    0  0.66436851731E+02  0.12183844990E+03  0.96008813483E+02  0.24167158585E+03  0.17300000000E+03 0. -1.
         -6    1    1    2    0  503 -0.66436851731E+02 -0.12183844990E+03  0.66043705478E+01  0.22188078072E+03  0.17300000000E+03 0. -1.
</event>
<event>
 4    1  0.6132688E+000  0.1000000E+03  0.7546771E-02  0.1280296E+00
         21   -1    0    0  501  502  0.00000000000E+00  0.00000000000E+00  0.17482843506E+03  0.17482843506E+03  0.00000000000E+00 0. -1.
         21   -1    0    0  502  503 -0.00000000000E+00 -0.00000000000E+00 -0.21520159709E+03  0.21520159709E+03  0.00000000000E+00 0. -1.
          6    1    1    2  501    0  0.65512398204E+02  0.38176119534E+02  0.24154540146E+02  0.19042513550E+03  0.17300000000E+03 0. -1.
         -6    1    1    2    0  503 -0.65512398204E+02 -0.38176119534E+02 -0.64527702176E+02  0.19960489666E+03  0.17300000000E+03 0. -1.
</event>
<event>
 4    1  0.6132688E+000  0.1000000E+03  0.7546771E-02  0.1280296E+00
         21   -1    0    0  501  502  0.00000000000E+00  0.00000000000E+00  0.16734382744E+04  0.16734382744E+04  0.00000000000E+00 0. -1.
         21   -1    0    0  502  503 -0.00000000000E+00 -0.00000000000E+00 -0.79030747352E+02  0.79030747352E+02  0.00000000000E+00 0. -1.
          6    1    1    2  501    0 -0.75888050747E+02  0.24165193238E+03  0.12679374393E+04  0.13045110205E+04  0.17300000000E+03 0. -1.
         -6    1    1    2    0  503  0.75888050747E+02 -0.24165193238E+03  0.32647008771E+03  0.44795800120E+03  0.17300000000E+03 0. -1.
</event>
<event>
 4    1  0.6132688E+000  0.1000000E+03  0.7546771E-02  0.1280296E+00
         21   -1    0    0  501  502  0.00000000000E+00  0.00000000000E+00  0.22889784647E+03  0.22889784647E+03  0.00000000000E+00 0. -1.
         21   -1    0    0  502  503 -0.00000000000E+00 -0.00000000000E+00 -0.17952774884E+03  0.17952774884E+03  0.00000000000E+00 0. -1.
          6    1    1    2  501    0  0.36441233947E+02 -0.94819593710E+02  0.53982455236E+02  0.20775424028E+03  0.17300000000E+03 0. -1.
         -6    1    1    2    0  503 -0.36441233947E+02  0.94819593710E+02 -0.46123576073E+01  0.20067135502E+03  0.17300000000E+03 0. -1.
</event>
<event>
 4    1  0.6132688E+000  0.1000000E+03  0.7546771E-02  0.1280296E+00
         21   -1    0    0  503  502  0.00000000000E+00  0.00000000000E+00  0.82592023685E+03  0.82592023685E+03  0.00000000000E+00 0.  1.
         21   -1    0    0  501  503 -0.00000000000E+00 -0.00000000000E+00 -0.51487437855E+02  0.51487437855E+02  0.00000000000E+00 0.  1.
          6    1    1    2  501    0 -0.52918424977E+02  0.27725376218E+01  0.17674796752E+03  0.25293653490E+03  0.17300000000E+03 0.  1.
         -6    1    1    2    0  502  0.52918424977E+02 -0.27725376218E+01  0.59768483148E+03  0.62447113980E+03  0.17300000000E+03 0.  1.
</event>
<event>
 4    1  0.6132688E+000  0.1000000E+03  0.7546771E-02  0.1280296E+00
         21   -1    0    0  501  502  0.00000000000E+00  0.00000000000E+00  0.29331071772E+02  0.29331071772E+02  0.00000000000E+00 0. -1.
         21   -1    0    0  502  503 -0.00000000000E+00 -0.00000000000E+00 -0.11187631702E+04  0.11187631702E+04  0.00000000000E+00 0. -1.
          6    1    1    2  501    0  0.48625390293E+02  0.83894351043E+01 -0.47743947277E+03  0.51020805693E+03  0.17300000000E+03 0. -1.
         -6    1    1    2    0  503 -0.48625390293E+02 -0.83894351043E+01 -0.61199262571E+03  0.63788618509E+03  0.17300000000E+03 0. -1.
</event>
<event>
 4    1  0.6132688E+000  0.1000000E+03  0.7546771E-02  0.1280296E+00
         21   -1    0    0  501  502  0.00000000000E+00  0.00000000000E+00  0.24053008910E+03  0.24053008910E+03  0.00000000000E+00 0. -1.
         21   -1    0    0  502  503 -0.00000000000E+00 -0.00000000000E+00 -0.20722299905E+03  0.20722299905E+03  0.00000000000E+00 0. -1.
          6    1    1    2  501    0 -0.63510488080E+01 -0.16230767464E+02  0.15708043304E+03  0.23432250442E+03  0.17300000000E+03 0. -1.
         -6    1    1    2    0  503  0.63510488080E+01  0.16230767464E+02 -0.12377334299E+03  0.21343058372E+03  0.17300000000E+03 0. -1.
</event>
<event>
 4    1  0.6132688E+000  0.1000000E+03  0.7546771E-02  0.1280296E+00
         21   -1    0    0  503  502  0.00000000000E+00  0.00000000000E+00  0.11110216678E+04  0.11110216678E+04  0.00000000000E+00 0.  1.
         21   -1    0    0  501  503 -0.00000000000E+00 -0.00000000000E+00 -0.10106696245E+03  0.10106696245E+03  0.00000000000E+00 0.  1.
          6    1    1    2  501    0 -0.57579449339E+01 -0.10399095110E+03  0.21333259784E+02  0.20305511521E+03  0.17300000000E+03 0.  1.
         -6    1    1    2    0  502  0.57579449339E+01  0.10399095110E+03  0.98862144559E+03  0.10090335151E+04  0.17300000000E+03 0.  1.
</event>
<event>
 4    1  0.6132688E+000  0.1000000E+03  0.7546771E-02  0.1280296E+00
         21   -1    0    0  503  502  0.00000000000E+00  0.00000000000E+00  0.33271306766E+03  0.33271306766E+03  0.00000000000E+00 0.  1.
         21   -1    0    0  501  503 -0.00000000000E+00 -0.00000000000E+00 -0.13364948811E+03  0.13364948811E+03  0.00000000000E+00 0.  1.
          6    1    1    2  501    0  0.94045713241E+02 -0.25054306589E+02  0.20828794285E+02  0.19958745734E+03  0.17300000000E+03 0.  1.
         -6    1    1    2    0  502 -0.94045713241E+02  0.25054306589E+02  0.17823478526E+03  0.26677509842E+03  0.17300000000E+03 0.  1.
</event>
<event>
 4    1  0.6132688E+000  0.1000000E+03  0.7546771E-02  0.1280296E+00
         21   -1    0    0  503  502  0.00000000000E+00  0.00000000000E+00  0.28319891427E+03  0.28319891427E+03  0.00000000000E+00 0.  1.
         21   -1    0    0  501  503 -0.00000000000E+00 -0.00000000000E+00 -0.13485107482E+03  0.13485107482E+03  0.00000000000E+00 0.  1.
          6    1    1    2  501    0 -0.17584723033E+02  0.55330009547E+01 -0.21020366351E+02  0.17524466436E+03  0.17300000000E+03 0.  1.
         -6    1    1    2    0  502  0.17584723033E+02 -0.55330009547E+01  0.16936820580E+03  0.24280532473E+03  0.17300000000E+03 0.  1.
</event>
<event>
 4    1  0.6132688E+000  0.1000000E+03  0.7546771E-02  0.1280296E+00
         21   -1    0    0  501  502  0.00000000000E+00  0.00000000000E+00  0.18947002597E+03  0.18947002597E+03  0.00000000000E+00 0.  1.
         21   -1    0    0  502  503 -0.00000000000E+00 -0.00000000000E+00 -0.23731307713E+03  0.23731307713E+03  0.00000000000E+00 0. -1.
          6    1    1    2  501    0  0.11028931952E+03  0.50398949546E+02 -0.56147406835E+01  0.21133933242E+03  0.17300000000E+03 0. -1.
         -6    1    1    2    0  503 -0.11028931952E+03 -0.50398949546E+02 -0.42228310482E+02  0.21544377067E+03  0.17300000000E+03 0.  1.
</event>
<event>
 4    1  0.6132688E+000  0.1000000E+03  0.7546771E-02  0.1280296E+00
         21   -1    0    0  501  502  0.00000000000E+00  0.00000000000E+00  0.45897559489E+02  0.45897559489E+02  0.00000000000E+00 0.  1.
         21   -1    0    0  502  503 -0.00000000000E+00 -0.00000000000E+00 -0.85000332261E+03  0.85000332261E+03  0.00000000000E+00 0. -1.
          6    1    1    2  501    0  0.79518703655E+02 -0.52536756290E+02 -0.40009790938E+03  0.44619577775E+03  0.17300000000E+03 0. -1.
         -6    1    1    2    0  503 -0.79518703655E+02  0.52536756290E+02 -0.40400785375E+03  0.44970510435E+03  0.17300000000E+03 0.  1.
</event>
<event>
 4    1  0.6132688E+000  0.1000000E+03  0.7546771E-02  0.1280296E+00
         21   -1    0    0  503  502  0.00000000000E+00  0.00000000000E+00  0.16872201649E+03  0.16872201649E+03  0.00000000000E+00 0.  1.
         21   -1    0    0  501  503 -0.00000000000E+00 -0.00000000000E+00 -0.37952718528E+03  0.37952718528E+03  0.00000000000E+00 0.  1.
          6    1    1    2  501    0 -0.67709457761E+02 -0.68960414798E+02 -0.27587891389E+03  0.33967379147E+03  0.17300000000E+03 0.  1.
         -6    1    1    2    0  502  0.67709457761E+02  0.68960414798E+02  0.65073745100E+02  0.20857541030E+03  0.17300000000E+03 0.  1.
</event>
<event>
 4    1  0.6132688E+000  0.1000000E+03  0.7546771E-02  0.1280296E+00
         21   -1    0    0  503  502  0.00000000000E+00  0.00000000000E+00  0.33139313080E+03  0.33139313080E+03  0.00000000000E+00 0.  1.
         21   -1    0    0  501  503 -0.00000000000E+00 -0.00000000000E+00 -0.16952461671E+03  0.16952461671E+03  0.00000000000E+00 0.  1.
          6    1    1    2  501    0 -0.15887365262E+03  0.18446378318E+02  0.53599068736E+02  0.24162567442E+03  0.17300000000E+03 0.  1.
         -6    1    1    2    0  502  0.15887365262E+03 -0.18446378318E+02  0.10826944535E+03  0.25929207309E+03  0.17300000000E+03 0.  1.
</event>
<event>
 4    1  0.6132688E+000  0.1000000E+03  0.7546771E-02  0.1280296E+00
         21   -1    0    0  501  502  0.00000000000E+00  0.00000000000E+00  0.69858514969E+02  0.69858514969E+02  0.00000000000E+00 0. -1.
         21   -1    0    0  502  503 -0.00000000000E+00 -0.00000000000E+00 -0.52006612283E+03  0.52006612283E+03  0.00000000000E+00 0.  1.
          6    1    1    2  501    0  0.33829220100E+02  0.70873362824E+02 -0.24880602911E+03  0.31305093805E+03  0.17300000000E+03 0. -1.
         -6    1    1    2    0  503 -0.33829220100E+02 -0.70873362824E+02 -0.20140157875E+03  0.27687369975E+03  0.17300000000E+03 0.  1.
</event>
<event>
 4    1  0.6132688E+000  0.1000000E+03  0.7546771E-02  0.1280296E+00
         21   -1    0    0  501  502  0.00000000000E+00  0.00000000000E+00  0.78223429970E+03  0.78223429970E+03  0.00000000000E+00 0. -1.
         21   -1    0    0  502  503 -0.00000000000E+00 -0.00000000000E+00 -0.64611970413E+02  0.64611970413E+02  0.00000000000E+00 0.  1.
          6    1    1    2  501    0 -0.91210170851E+02  0.51893352668E+02  0.54335359237E+03  0.57980543431E+03  0.17300000000E+03 0. -1.
         -6    1    1    2    0  503  0.91210170851E+02 -0.51893352668E+02  0.17426873692E+03  0.26704083580E+03  0.17300000000E+03 0.  1.
</event>
<event>
 4    1  0.6132688E+000  0.1000000E+03  0.7546771E-02  0.1280296E+00
         21   -1    0    0  501  502  0.00000000000E+00  0.00000000000E+00  0.24975356675E+03  0.24975356675E+03  0.00000000000E+00 0. -1.
         21   -1    0    0  502  503 -0.00000000000E+00 -0.00000000000E+00 -0.38838923482E+03  0.38838923482E+03  0.00000000000E+00 0. -1.
          6    1    1    2  501    0 -0.16535866981E+03  0.14227191537E+03  0.73696624384E+02  0.28800170143E+03  0.17300000000E+03 0. -1.
         -6    1    1    2    0  503  0.16535866981E+03 -0.14227191537E+03 -0.21233229245E+03  0.35014110013E+03  0.17300000000E+03 0. -1.
</event>
<event>
 4    1  0.6132688E+000  0.1000000E+03  0.7546771E-02  0.1280296E+00
         21   -1    0    0  501  502  0.00000000000E+00  0.00000000000E+00  0.23954026577E+03  0.23954026577E+03  0.00000000000E+00 0. -1.
         21   -1    0    0  502  503 -0.00000000000E+00 -0.00000000000E+00 -0.57704622451E+03  0.57704622451E+03  0.00000000000E+00 0. -1.
          6    1    1    2  501    0 -0.19064767974E+03  0.21660942697E+03  0.49924828008E+01  0.33648195572E+03  0.17300000000E+03 0. -1.
         -6    1    1    2    0  503  0.19064767974E+03 -0.21660942697E+03 -0.34249844154E+03  0.48010453455E+03  0.17300000000E+03 0. -1.
</event>
<event>
 4    1  0.6132688E+000  0.1000000E+03  0.7546771E-02  0.1280296E+00
         21   -1    0    0  501  502  0.00000000000E+00  0.00000000000E+00  0.96400916759E+03  0.96400916759E+03  0.00000000000E+00 0. -1.
         21   -1    0    0  502  503 -0.00000000000E+00 -0.00000000000E+00 -0.33775094623E+02  0.33775094623E+02  0.00000000000E+00 0. -1.
          6    1    1    2  501    0 -0.27365595316E+02 -0.38258496650E+02  0.40859595609E+03  0.44619753888E+03  0.17300000000E+03 0. -1.
         -6    1    1    2    0  503  0.27365595316E+02  0.38258496650E+02  0.52163811688E+03  0.55158672333E+03  0.17300000000E+03 0. -1.
</event>
<event>
 4    1  0.6132688E+000  0.1000000E+03  0.7546771E-02  0.1280296E+00
         21   -1    0    0  501  502  0.00000000000E+00  0.00000000000E+00  0.92922566216E+03  0.92922566216E+03  0.00000000000E+00 0. -1.
         21   -1    0    0  502  503 -0.00000000000E+00 -0.00000000000E+00 -0.11734960779E+03  0.11734960779E+03  0.00000000000E+00 0. -1.
          6    1    1    2  501    0 -0.86613405688E+01 -0.14121697684E+03  0.79117281289E+03  0.82213178580E+03  0.17300000000E+03 0. -1.
         -6    1    1    2    0  503  0.86613405688E+01  0.14121697684E+03  0.20703241478E+02  0.22444348415E+03  0.17300000000E+03 0. -1.
</event>
<event>
 4    1  0.6132688E+000  0.1000000E+03  0.7546771E-02  0.1280296E+00
         21   -1    0    0  501  502  0.00000000000E+00  0.00000000000E+00  0.18960997483E+02  0.18960997483E+02  0.00000000000E+00 0. -1.
         21   -1    0    0  502  503 -0.00000000000E+00 -0.00000000000E+00 -0.16611020006E+04  0.16611020006E+04  0.00000000000E+00 0. -1.
          6    1    1    2  501    0 -0.22023198231E+02 -0.14256226288E+01 -0.66551038894E+03  0.68798265345E+03  0.17300000000E+03 0. -1.
         -6    1    1    2    0  503  0.22023198231E+02  0.14256226288E+01 -0.97663061415E+03  0.99208034461E+03  0.17300000000E+03 0. -1.
</event>
<event>
 4    1  0.6132688E+000  0.1000000E+03  0.7546771E-02  0.1280296E+00
         21   -1    0    0  501  502  0.00000000000E+00  0.00000000000E+00  0.61737867907E+03  0.61737867907E+03  0.00000000000E+00 0.  1.
         21   -1    0    0  502  503 -0.00000000000E+00 -0.00000000000E+00 -0.39138090393E+03  0.39138090393E+03  0.00000000000E+00 0.  1.
          6    1    1    2  501    0  0.28222500675E+03  0.70688858397E+02  0.47874112665E+03  0.58631897076E+03  0.17300000000E+03 0.  1.
         -6    1    1    2    0  503 -0.28222500675E+03 -0.70688858397E+02 -0.25274335151E+03  0.42244061224E+03  0.17300000000E+03 0.  1.
</event>
<event>
 4    1  0.6132688E+000  0.1000000E+03  0.7546771E-02  0.1280296E+00
         21   -1    0    0  501  502  0.00000000000E+00  0.00000000000E+00  0.61779013982E+03  0.61779013982E+03  0.00000000000E+00 0. -1.
         21   -1    0    0  502  503 -0.00000000000E+00 -0.00000000000E+00 -0.72870752668E+02  0.72870752668E+02  0.00000000000E+00 0. -1.
          6    1    1    2  501    0  0.35695391316E+01  0.34285446507E+02  0.46435755499E+03  0.49673450890E+03  0.17300000000E+03 0. -1.
         -6    1    1    2    0  503 -0.35695391316E+01 -0.34285446507E+02  0.80561832163E+02  0.19392638359E+03  0.17300000000E+03 0. -1.
</event>
<event>
 4    1  0.6132688E+000  0.1000000E+03  0.7546771E-02  0.1280296E+00
         21   -1    0    0  501  502  0.00000000000E+00  0.00000000000E+00  0.13416088130E+03  0.13416088130E+03  0.00000000000E+00 0. -1.
         21   -1    0    0  502  503 -0.00000000000E+00 -0.00000000000E+00 -0.33278348393E+03  0.33278348393E+03  0.00000000000E+00 0. -1.
          6    1    1    2  501    0  0.52616274207E+02  0.94788234417E+02 -0.39152625327E+02  0.20788268270E+03  0.17300000000E+03 0. -1.
         -6    1    1    2    0  503 -0.52616274207E+02 -0.94788234417E+02 -0.15946997731E+03  0.25906168254E+03  0.17300000000E+03 0. -1.
</event>
<event>
 4    1  0.6132688E+000  0.1000000E+03  0.7546771E-02  0.1280296E+00
         21   -1    0    0  501  502  0.00000000000E+00  0.00000000000E+00  0.24633041440E+03  0.24633041440E+03  0.00000000000E+00 0. -1.
         21   -1    0    0  502  503 -0.00000000000E+00 -0.00000000000E+00 -0.19547419663E+03  0.19547419663E+03  0.00000000000E+00 0. -1.
          6    1    1    2  501    0 -0.97043473897E+02  0.27937451148E+02 -0.64749801421E+02  0.21052190809E+03  0.17300000000E+03 0. -1.
         -6    1    1    2    0  503  0.97043473897E+02 -0.27937451148E+02  0.11560601919E+03  0.23128270293E+03  0.17300000000E+03 0. -1.
</event>
<event>
 4    1  0.6132688E+000  0.1000000E+03  0.7546771E-02  0.1280296E+00
         21   -1    0    0  503  502  0.00000000000E+00  0.00000000000E+00  0.25075040341E+02  0.25075040341E+02  0.00000000000E+00 0. -1.
         21   -1    0    0  501  503 -0.00000000000E+00 -0.00000000000E+00 -0.19395514370E+04  0.19395514370E+04  0.00000000000E+00 0. -1.
          6    1    1    2  501    0  0.40768956950E+02  0.13020140362E+03 -0.91478968247E+03  0.94094828578E+03  0.17300000000E+03 0. -1.
         -6    1    1    2    0  502 -0.40768956950E+02 -0.13020140362E+03 -0.99968671417E+03  0.10236781915E+04  0.17300000000E+03 0. -1.
</event>
<event>
 4    1  0.6132688E+000  0.1000000E+03  0.7546771E-02  0.1280296E+00
         21   -1    0    0  503  502  0.00000000000E+00  0.00000000000E+00  0.54145496687E+02  0.54145496687E+02  0.00000000000E+00 0. -1.
         21   -1    0    0  501  503 -0.00000000000E+00 -0.00000000000E+00 -0.10085037381E+04  0.10085037381E+04  0.00000000000E+00 0. -1.
          6    1    1    2  501    0  0.71564970559E+02 -0.13932100965E+03 -0.50456296972E+03  0.55591787087E+03  0.17300000000E+03 0. -1.
         -6    1    1    2    0  502 -0.71564970559E+02  0.13932100965E+03 -0.44979527171E+03  0.50673136393E+03  0.17300000000E+03 0. -1.
</event>
<event>
 4    1  0.6132688E+000  0.1000000E+03  0.7546771E-02  0.1280296E+00
         21   -1    0    0  503  502  0.00000000000E+00  0.00000000000E+00  0.10740576419E+03  0.10740576419E+03  0.00000000000E+00 0. -1.
         21   -1    0    0  501  503 -0.00000000000E+00 -0.00000000000E+00 -0.62915214051E+03  0.62915214051E+03  0.00000000000E+00 0. -1.
          6    1    1    2  501    0 -0.14360226172E+03  0.11342396018E+03 -0.16950863217E+03  0.30356017640E+03  0.17300000000E+03 0. -1.
         -6    1    1    2    0  502  0.14360226172E+03 -0.11342396018E+03 -0.35223774414E+03  0.43299772830E+03  0.17300000000E+03 0. -1.
</event>
<event>
 4    1  0.6132688E+000  0.1000000E+03  0.7546771E-02  0.1280296E+00
         21   -1    0    0  503  502  0.00000000000E+00  0.00000000000E+00  0.17268081581E+03  0.17268081581E+03  0.00000000000E+00 0. -1.
         21   -1    0    0  501  503 -0.00000000000E+00 -0.00000000000E+00 -0.19806187365E+03  0.19806187365E+03  0.00000000000E+00 0. -1.
          6    1    1    2  501    0  0.17584320300E+02 -0.59886628993E+02 -0.32149303052E+02  0.18670349311E+03  0.17300000000E+03 0. -1.
         -6    1    1    2    0  502 -0.17584320300E+02  0.59886628993E+02  0.67682452101E+01  0.18403919636E+03  0.17300000000E+03 0. -1.
</event>
<event>
 4    1  0.6132688E+000  0.1000000E+03  0.7546771E-02  0.1280296E+00
         21   -1    0    0  503  502  0.00000000000E+00  0.00000000000E+00  0.11087951054E+04  0.11087951054E+04  0.00000000000E+00 0. -1.
         21   -1    0    0  501  503 -0.00000000000E+00 -0.00000000000E+00 -0.34593569021E+02  0.34593569021E+02  0.00000000000E+00 0. -1.
          6    1    1    2  501    0  0.79060519033E+01 -0.67360407066E+02  0.35649122437E+03  0.40201358578E+03  0.17300000000E+03 0. -1.
         -6    1    1    2    0  502 -0.79060519033E+01  0.67360407066E+02  0.71771031200E+03  0.74137508863E+03  0.17300000000E+03 0. -1.
</event>
<event>
 4    1  0.6132688E+000  0.1000000E+03  0.7546771E-02  0.1280296E+00
         21   -1    0    0  503  502  0.00000000000E+00  0.00000000000E+00  0.34466992381E+02  0.34466992381E+02  0.00000000000E+00 0. -1.
         21   -1    0    0  501  503 -0.00000000000E+00 -0.00000000000E+00 -0.19405606008E+04  0.19405606008E+04  0.00000000000E+00 0. -1.
          6    1    1    2  501    0  0.11923902952E+03  0.77454629978E+02 -0.14470664328E+04  0.14642907590E+04  0.17300000000E+03 0. -1.
         -6    1    1    2    0  502 -0.11923902952E+03 -0.77454629978E+02 -0.45902717563E+03  0.51073683422E+03  0.17300000000E+03 0. -1.
</event>
<event>
 4    1  0.6132688E+000  0.1000000E+03  0.7546771E-02  0.1280296E+00
         21   -1    0    0  503  502  0.00000000000E+00  0.00000000000E+00  0.40058463094E+03  0.40058463094E+03  0.00000000000E+00 0. -1.
         21   -1    0    0  501  503 -0.00000000000E+00 -0.00000000000E+00 -0.17707162178E+03  0.17707162178E+03  0.00000000000E+00 0. -1.
          6    1    1    2  501    0 -0.10921298473E+03  0.21439109813E+02 -0.71695629741E+02  0.21784484108E+03  0.17300000000E+03 0. -1.
         -6    1    1    2    0  502  0.10921298473E+03 -0.21439109813E+02  0.29520863891E+03  0.35981141164E+03  0.17300000000E+03 0. -1.
</event>
<event>
 4    1  0.6132688E+000  0.1000000E+03  0.7546771E-02  0.1280296E+00
         21   -1    0    0  503  502  0.00000000000E+00  0.00000000000E+00  0.27240750242E+03  0.27240750242E+03  0.00000000000E+00 0. -1.
         21   -1    0    0  501  503 -0.00000000000E+00 -0.00000000000E+00 -0.38654103769E+03  0.38654103769E+03  0.00000000000E+00 0. -1.
          6    1    1    2  501    0  0.91669622451E+02 -0.24408415537E+03  0.30201542880E+02  0.31435891553E+03  0.17300000000E+03 0. -1.
         -6    1    1    2    0  502 -0.91669622451E+02  0.24408415537E+03 -0.14433507814E+03  0.34458962458E+03  0.17300000000E+03 0. -1.
</event>
<event>
 4    1  0.6132688E+000  0.1000000E+03  0.7546771E-02  0.1280296E+00
         21   -1    0    0  501  502  0.00000000000E+00  0.00000000000E+00  0.11293252655E+03  0.11293252655E+03  0.00000000000E+00 0. -1.
         21   -1    0    0  502  503 -0.00000000000E+00 -0.00000000000E+00 -0.49816978400E+03  0.49816978400E+03  0.00000000000E+00 0.  1.
          6    1    1    2  501    0  0.10535624618E+03 -0.10705333645E+03 -0.11352001270E+03  0.25568759989E+03  0.17300000000E+03 0. -1.
         -6    1    1    2    0  503 -0.10535624618E+03  0.10705333645E+03 -0.27171724475E+03  0.35541471065E+03  0.17300000000E+03 0.  1.
</event>
<event>
 4    1  0.6132688E+000  0.1000000E+03  0.7546771E-02  0.1280296E+00
         21   -1    0    0  501  502  0.00000000000E+00  0.00000000000E+00  0.13852693372E+03  0.13852693372E+03  0.00000000000E+00 0.  1.
         21   -1    0    0  502  503 -0.00000000000E+00 -0.00000000000E+00 -0.31490251691E+03  0.31490251691E+03  0.00000000000E+00 0.  1.
          6    1    1    2  501    0  0.95778025814E+02  0.65937261745E+02 -0.73938223925E+02  0.22117190977E+03  0.17300000000E+03 0.  1.
         -6    1    1    2    0  503 -0.95778025814E+02 -0.65937261745E+02 -0.10243735926E+03  0.23225754086E+03  0.17300000000E+03 0.  1.
</event>
<event>
 4    1  0.6132688E+000  0.1000000E+03  0.7546771E-02  0.1280296E+00
         21   -1    0    0  501  502  0.00000000000E+00  0.00000000000E+00  0.14771638959E+03  0.14771638959E+03  0.00000000000E+00 0.  1.
         21   -1    0    0  502  503 -0.00000000000E+00 -0.00000000000E+00 -0.87609277923E+03  0.87609277923E+03  0.00000000000E+00 0.  1.
          6    1    1    2  501    0 -0.21477849715E+03 -0.16663962382E+03 -0.59180181044E+03  0.67383748033E+03  0.17300000000E+03 0.  1.
         -6    1    1    2    0  503  0.21477849715E+03  0.16663962382E+03 -0.13657457920E+03  0.34997168849E+03  0.17300000000E+03 0.  1.
</event>
<event>
 4    1  0.6132688E+000  0.1000000E+03  0.7546771E-02  0.1280296E+00
         21   -1    0    0  501  502  0.00000000000E+00  0.00000000000E+00  0.13873448245E+03  0.13873448245E+03  0.00000000000E+00 0.  1.
         21   -1    0    0  502  503 -0.00000000000E+00 -0.00000000000E+00 -0.72178071091E+03  0.72178071091E+03  0.00000000000E+00 0.  1.
          6    1    1    2  501    0  0.11136170235E+03 -0.23233489819E+03 -0.20742180385E+03  0.37327434734E+03  0.17300000000E+03 0.  1.
         -6    1    1    2    0  503 -0.11136170235E+03  0.23233489819E+03 -0.37562442461E+03  0.48724084602E+03  0.17300000000E+03 0.  1.
</event>
<event>
 4    1  0.6132688E+000  0.1000000E+03  0.7546771E-02  0.1280296E+00
         21   -1    0    0  501  502  0.00000000000E+00  0.00000000000E+00  0.77567202457E+02  0.77567202457E+02  0.00000000000E+00 0. -1.
         21   -1    0    0  502  503 -0.00000000000E+00 -0.00000000000E+00 -0.90058697635E+03  0.90058697635E+03  0.00000000000E+00 0. -1.
          6    1    1    2  501    0 -0.14963966990E+03 -0.11706313452E+03 -0.29697360912E+03  0.39270616596E+03  0.17300000000E+03 0. -1.
         -6    1    1    2    0  503  0.14963966990E+03  0.11706313452E+03 -0.52604616478E+03  0.58544801285E+03  0.17300000000E+03 0. -1.
</event>
<event>
 4    1  0.6132688E+000  0.1000000E+03  0.7546771E-02  0.1280296E+00
         21   -1    0    0  501  502  0.00000000000E+00  0.00000000000E+00  0.45189706637E+03  0.45189706637E+03  0.00000000000E+00 0. -1.
         21   -1    0    0  502  503 -0.00000000000E+00 -0.00000000000E+00 -0.13827714907E+03  0.13827714907E+03  0.00000000000E+00 0.  1.
          6    1    1    2  501    0  0.50241695289E+02  0.13006173877E+03  0.29201254834E+03  0.36693407068E+03  0.17300000000E+03 0.  1.
         -6    1    1    2    0  503 -0.50241695289E+02 -0.13006173877E+03  0.21607368964E+02  0.22324014476E+03  0.17300000000E+03 0. -1.
</event>
<event>
 4    1  0.6132688E+000  0.1000000E+03  0.7546771E-02  0.1280296E+00
         21   -1    0    0  501  502  0.00000000000E+00  0.00000000000E+00  0.29735281078E+03  0.29735281078E+03  0.00000000000E+00 0.  1.
         21   -1    0    0  502  503 -0.00000000000E+00 -0.00000000000E+00 -0.20326857270E+03  0.20326857270E+03  0.00000000000E+00 0. -1.
          6    1    1    2  501    0 -0.11556008446E+02 -0.17299887635E+03  0.68672034582E+02  0.25437570812E+03  0.17300000000E+03 0.  1.
         -6    1    1    2    0  503  0.11556008446E+02  0.17299887635E+03  0.25412203499E+02  0.24624567536E+03  0.17300000000E+03 0. -1.
</event>
<event>
 4    1  0.6132688E+000  0.1000000E+03  0.7546771E-02  0.1280296E+00
         21   -1    0    0  501  502  0.00000000000E+00  0.00000000000E+00  0.20716479395E+03  0.20716479395E+03  0.00000000000E+00 0. -1.
         21   -1    0    0  502  503 -0.00000000000E+00 -0.00000000000E+00 -0.21243643215E+03  0.21243643215E+03  0.00000000000E+00 0. -1.
          6    1    1    2  501    0  0.61199582517E+02 -0.28523555819E+02  0.94949377765E+02  0.20857460650E+03  0.17300000000E+03 0.  1.
         -6    1    1    2    0  503 -0.61199582517E+02  0.28523555819E+02 -0.10022101597E+03  0.21102661960E+03  0.17300000000E+03 0.  1.
</event>
<event>
 4    1  0.6132688E+000  0.1000000E+03  0.7546771E-02  0.1280296E+00
         21   -1    0    0  501  502  0.00000000000E+00  0.00000000000E+00  0.65020394093E+02  0.65020394093E+02  0.00000000000E+00 0. -1.
         21   -1    0    0  502  503 -0.00000000000E+00 -0.00000000000E+00 -0.64800051569E+03  0.64800051569E+03  0.00000000000E+00 0. -1.
          6    1    1    2  501    0 -0.11018297665E+03 -0.79655243862E+01 -0.29024851921E+03  0.35549534572E+03  0.17300000000E+03 0.  1.
         -6    1    1    2    0  503  0.11018297665E+03  0.79655243862E+01 -0.29273160238E+03  0.35752556406E+03  0.17300000000E+03 0.  1.
</event>
<event>
 4    1  0.6132688E+000  0.1000000E+03  0.7546771E-02  0.1280296E+00
         21   -1    0    0  501  502  0.00000000000E+00  0.00000000000E+00  0.28096530103E+03  0.28096530103E+03  0.00000000000E+00 0.  1.
         21   -1    0    0  502  503 -0.00000000000E+00 -0.00000000000E+00 -0.36436398515E+03  0.36436398515E+03  0.00000000000E+00 0. -1.
          6    1    1    2  501    0 -0.32051706618E+02  0.83612487252E+01  0.22766892520E+03  0.28785302131E+03  0.17300000000E+03 0.  1.
         -6    1    1    2    0  503  0.32051706618E+02 -0.83612487252E+01 -0.31106760932E+03  0.35747626487E+03  0.17300000000E+03 0. -1.
</event>
<event>
 4    1  0.6132688E+000  0.1000000E+03  0.7546771E-02  0.1280296E+00
         21   -1    0    0  501  502  0.00000000000E+00  0.00000000000E+00  0.44781570543E+03  0.44781570543E+03  0.00000000000E+00 0. -1.
         21   -1    0    0  502  503 -0.00000000000E+00 -0.00000000000E+00 -0.10344297727E+03  0.10344297727E+03  0.00000000000E+00 0.  1.
          6    1    1    2  501    0 -0.57974928422E+02  0.57538470888E+02  0.29846124832E+03  0.35451358889E+03  0.17300000000E+03 0. -1.
         -6    1    1    2    0  503  0.57974928422E+02 -0.57538470888E+02  0.45911479850E+02  0.19674509381E+03  0.17300000000E+03 0.  1.
</event>
<event>
 4    1  0.6132688E+000  0.1000000E+03  0.7546771E-02  0.1280296E+00
         21   -1    0    0  501  502  0.00000000000E+00  0.00000000000E+00  0.27813506609E+03  0.27813506609E+03  0.00000000000E+00 0.  1.
         21   -1    0    0  502  503 -0.00000000000E+00 -0.00000000000E+00 -0.11762792985E+03  0.11762792985E+03  0.00000000000E+00 0. -1.
          6    1    1    2  501    0  0.28370860173E+02  0.10864314309E+02  0.12749301438E+03  0.21704010631E+03  0.17300000000E+03 0. -1.
         -6    1    1    2    0  503 -0.28370860173E+02 -0.10864314309E+02  0.33014121855E+02  0.17872288962E+03  0.17300000000E+03 0. -1.
</event>
<event>
 4    1  0.6132688E+000  0.1000000E+03  0.7546771E-02  0.1280296E+00
         21   -1    0    0  503  502  0.00000000000E+00  0.00000000000E+00  0.14852440328E+03  0.14852440328E+03  0.00000000000E+00 0.  1.
         21   -1    0    0  501  503 -0.00000000000E+00 -0.00000000000E+00 -0.40586060642E+03  0.40586060642E+03  0.00000000000E+00 0. -1.
          6    1    1    2  501    0  0.21190472326E+02  0.11478609522E+03 -0.27468204609E+03  0.34496972362E+03  0.17300000000E+03 0. -1.
         -6    1    1    2    0  502 -0.21190472326E+02 -0.11478609522E+03  0.17345842949E+02  0.20941528607E+03  0.17300000000E+03 0.  1.
</event>
<event>
 4    1  0.6132688E+000  0.1000000E+03  0.7546771E-02  0.1280296E+00
         21   -1    0    0  503  502  0.00000000000E+00  0.00000000000E+00  0.12246901901E+03  0.12246901901E+03  0.00000000000E+00 0.  1.
         21   -1    0    0  501  503 -0.00000000000E+00 -0.00000000000E+00 -0.27663006979E+03  0.27663006979E+03  0.00000000000E+00 0. -1.
          6    1    1    2  501    0  0.54351665343E+02 -0.27418216812E+02 -0.60154255807E+02  0.19301138990E+03  0.17300000000E+03 0. -1.
         -6    1    1    2    0  502 -0.54351665343E+02  0.27418216812E+02 -0.94006794974E+02  0.20608769891E+03  0.17300000000E+03 0.  1.
</event>
<event>
 4    1  0.6132688E+000  0.1000000E+03  0.7546771E-02  0.1280296E+00
         21   -1    0    0  503  502  0.00000000000E+00  0.00000000000E+00  0.70106144790E+03  0.70106144790E+03  0.00000000000E+00 0.  1.
         21   -1    0    0  501  503 -0.00000000000E+00 -0.00000000000E+00 -0.64965223169E+02  0.64965223169E+02  0.00000000000E+00 0. -1.
          6    1    1    2  501    0  0.49960827444E+01  0.24239799089E+02  0.98218767342E+02  0.20047058378E+03  0.17300000000E+03 0. -1.
         -6    1    1    2    0  502 -0.49960827444E+01 -0.24239799089E+02  0.53787745739E+03  0.56555608729E+03  0.17300000000E+03 0.  1.
</event>
<event>
 4    1  0.6132688E+000  0.1000000E+03  0.7546771E-02  0.1280296E+00
         21   -1    0    0  503  502  0.00000000000E+00  0.00000000000E+00  0.16904096828E+03  0.16904096828E+03  0.00000000000E+00 0.  1.
         21   -1    0    0  501  503 -0.00000000000E+00 -0.00000000000E+00 -0.23923177336E+03  0.23923177336E+03  0.00000000000E+00 0.  1.
          6    1    1    2  501    0  0.24722388242E+01  0.86244313397E+02 -0.91310902368E+02  0.21380101602E+03  0.17300000000E+03 0.  1.
         -6    1    1    2    0  502 -0.24722388242E+01 -0.86244313397E+02  0.21120097293E+02  0.19447172563E+03  0.17300000000E+03 0.  1.
</event>
<event>
 4    1  0.6132688E+000  0.1000000E+03  0.7546771E-02  0.1280296E+00
         21   -1    0    0  503  502  0.00000000000E+00  0.00000000000E+00  0.87380419893E+02  0.87380419893E+02  0.00000000000E+00 0. -1.
         21   -1    0    0  501  503 -0.00000000000E+00 -0.00000000000E+00 -0.81189743242E+03  0.81189743242E+03  0.00000000000E+00 0. -1.
          6    1    1    2  501    0  0.66811084507E+02  0.76514997546E+02 -0.65802699759E+03  0.68792935351E+03  0.17300000000E+03 0. -1.
         -6    1    1    2    0  502 -0.66811084507E+02 -0.76514997546E+02 -0.66490014945E+02  0.21134849881E+03  0.17300000000E+03 0. -1.
</event>
<event>
 4    1  0.6132688E+000  0.1000000E+03  0.7546771E-02  0.1280296E+00
         21   -1    0    0  503  502  0.00000000000E+00  0.00000000000E+00  0.27780537818E+03  0.27780537818E+03  0.00000000000E+00 0.  1.
         21   -1    0    0  501  503 -0.00000000000E+00 -0.00000000000E+00 -0.16692029224E+03  0.16692029224E+03  0.00000000000E+00 0.  1.
          6    1    1    2  501    0  0.12070424788E+03  0.31098479205E+02  0.24365816959E+02  0.21461436089E+03  0.17300000000E+03 0.  1.
         -6    1    1    2    0  502 -0.12070424788E+03 -0.31098479205E+02  0.86519268978E+02  0.23011130952E+03  0.17300000000E+03 0.  1.
</event>
<event>
 4    1  0.6132688E+000  0.1000000E+03  0.7546771E-02  0.1280296E+00
         21   -1    0    0  503  502  0.00000000000E+00  0.00000000000E+00  0.10355262863E+04  0.10355262863E+04  0.00000000000E+00 0.  1.
         21   -1    0    0  501  503 -0.00000000000E+00 -0.00000000000E+00 -0.55885338793E+02  0.55885338793E+02  0.00000000000E+00 0.  1.
          6    1    1    2  501    0  0.43465289861E+02 -0.75540334743E+02  0.16624891622E+03  0.25527098492E+03  0.17300000000E+03 0.  1.
         -6    1    1    2    0  502 -0.43465289861E+02  0.75540334743E+02  0.81339203126E+03  0.83614064015E+03  0.17300000000E+03 0.  1.
</event>
<event>
 4    1  0.6132688E+000  0.1000000E+03  0.7546771E-02  0.1280296E+00
         21   -1    0    0  503  502  0.00000000000E+00  0.00000000000E+00  0.15250010265E+04  0.15250010265E+04  0.00000000000E+00 0. -1.
         21   -1    0    0  501  503 -0.00000000000E+00 -0.00000000000E+00 -0.53223689196E+02  0.53223689196E+02  0.00000000000E+00 0. -1.
          6    1    1    2  501    0  0.15804114776E+03 -0.15195365485E+03  0.57993379937E+03  0.64367626122E+03  0.17300000000E+03 0. -1.
         -6    1    1    2    0  502 -0.15804114776E+03  0.15195365485E+03  0.89184353790E+03  0.93454845444E+03  0.17300000000E+03 0. -1.
</event>
<event>
 4    1  0.6132688E+000  0.1000000E+03  0.7546771E-02  0.1280296E+00
         21   -1    0    0  503  502  0.00000000000E+00  0.00000000000E+00  0.17009041278E+03  0.17009041278E+03  0.00000000000E+00 0. -1.
         21   -1    0    0  501  503 -0.00000000000E+00 -0.00000000000E+00 -0.27153140218E+03  0.27153140218E+03  0.00000000000E+00 0. -1.
          6    1    1    2  501    0 -0.46431432849E+02  0.94714707655E+02 -0.12430605766E+03  0.23771358769E+03  0.17300000000E+03 0. -1.
         -6    1    1    2    0  502  0.46431432849E+02 -0.94714707655E+02  0.22865068260E+02  0.20390822727E+03  0.17300000000E+03 0. -1.
</event>
<event>
 4    1  0.6132688E+000  0.1000000E+03  0.7546771E-02  0.1280296E+00
         21   -1    0    0  503  502  0.00000000000E+00  0.00000000000E+00  0.68990335772E+02  0.68990335772E+02  0.00000000000E+00 0. -1.
         21   -1    0    0  501  503 -0.00000000000E+00 -0.00000000000E+00 -0.63450143379E+03  0.63450143379E+03  0.00000000000E+00 0. -1.
          6    1    1    2  501    0  0.40972437947E+02  0.25298841357E+02 -0.46325296599E+03  0.49684110392E+03  0.17300000000E+03 0. -1.
         -6    1    1    2    0  502 -0.40972437947E+02 -0.25298841357E+02 -0.10225813203E+03  0.20665066565E+03  0.17300000000E+03 0. -1.
</event>
<event>
 4    1  0.6132688E+000  0.1000000E+03  0.7546771E-02  0.1280296E+00
         21   -1    0    0  503  502  0.00000000000E+00  0.00000000000E+00  0.16289564233E+03  0.16289564233E+03  0.00000000000E+00 0.  1.
         21   -1    0    0  501  503 -0.00000000000E+00 -0.00000000000E+00 -0.37096756394E+03  0.37096756394E+03  0.00000000000E+00 0.  1.
          6    1    1    2  501    0  0.16212414407E+03 -0.63809612860E+01 -0.33873006853E+02  0.23958575782E+03  0.17300000000E+03 0.  1.
         -6    1    1    2    0  502 -0.16212414407E+03  0.63809612860E+01 -0.17419891476E+03  0.29427744844E+03  0.17300000000E+03 0.  1.
</event>
<event>
 4    1  0.6132688E+000  0.1000000E+03  0.7546771E-02  0.1280296E+00
         21   -1    0    0  501  502  0.00000000000E+00  0.00000000000E+00  0.37983917648E+03  0.37983917648E+03  0.00000000000E+00 0. -1.
         21   -1    0    0  502  503 -0.00000000000E+00 -0.00000000000E+00 -0.35427201309E+03  0.35427201309E+03  0.00000000000E+00 0. -1.
          6    1    1    2  501    0  0.11223934570E+02  0.29544000790E+03  0.14411345283E+03  0.37162946904E+03  0.17300000000E+03 0. -1.
         -6    1    1    2    0  503 -0.11223934570E+02 -0.29544000790E+03 -0.11854628944E+03  0.36248172052E+03  0.17300000000E+03 0. -1.
</event>
<event>
 4    1  0.6132688E+000  0.1000000E+03  0.7546771E-02  0.1280296E+00
         21   -1    0    0  501  502  0.00000000000E+00  0.00000000000E+00  0.49958363413E+03  0.49958363413E+03  0.00000000000E+00 0. -1.
         21   -1    0    0  502  503 -0.00000000000E+00 -0.00000000000E+00 -0.18366075591E+03  0.18366075591E+03  0.00000000000E+00 0. -1.
          6    1    1    2  501    0  0.97777585291E+02  0.45700683287E+02  0.41058937634E+03  0.45843390428E+03  0.17300000000E+03 0. -1.
         -6    1    1    2    0  503 -0.97777585291E+02 -0.45700683287E+02 -0.94666498117E+02  0.22481048575E+03  0.17300000000E+03 0. -1.
</event>
<event>
 4    1  0.6132688E+000  0.1000000E+03  0.7546771E-02  0.1280296E+00
         21   -1    0    0  501  502  0.00000000000E+00  0.00000000000E+00  0.41537524151E+02  0.41537524151E+02  0.00000000000E+00 0. -1.
         21   -1    0    0  502  503 -0.00000000000E+00 -0.00000000000E+00 -0.14077599994E+04  0.14077599994E+04  0.00000000000E+00 0. -1.
          6    1    1    2  501    0  0.19911498542E+02 -0.11872269882E+03 -0.32784999679E+03  0.38975141742E+03  0.17300000000E+03 0. -1.
         -6    1    1    2    0  503 -0.19911498542E+02  0.11872269882E+03 -0.10383724785E+04  0.10595461062E+04  0.17300000000E+03 0. -1.
</event>
<event>
 4    1  0.6132688E+000  0.1000000E+03  0.7546771E-02  0.1280296E+00
         21   -1    0    0  501  502  0.00000000000E+00  0.00000000000E+00  0.28558588882E+02  0.28558588882E+02  0.00000000000E+00 0. -1.
         21   -1    0    0  502  503 -0.00000000000E+00 -0.00000000000E+00 -0.12795381668E+04  0.12795381668E+04  0.00000000000E+00 0. -1.
          6    1    1    2  501    0  0.75929834100E+02 -0.18280423745E+02 -0.54797284439E+03  0.57991615927E+03  0.17300000000E+03 0. -1.
         -6    1    1    2    0  503 -0.75929834100E+02  0.18280423745E+02 -0.70300673356E+03  0.72818059644E+03  0.17300000000E+03 0. -1.
</event>
<event>
 4    1  0.6132688E+000  0.1000000E+03  0.7546771E-02  0.1280296E+00
         21   -1    0    0  501  502  0.00000000000E+00  0.00000000000E+00  0.42561245290E+03  0.42561245290E+03  0.00000000000E+00 0. -1.
         21   -1    0    0  502  503 -0.00000000000E+00 -0.00000000000E+00 -0.28014998380E+03  0.28014998380E+03  0.00000000000E+00 0. -1.
          6    1    1    2  501    0  0.19861276148E+03  0.33868482964E+02  0.29828237911E+03  0.39936885313E+03  0.17300000000E+03 0. -1.
         -6    1    1    2    0  503 -0.19861276148E+03 -0.33868482964E+02 -0.15281991001E+03  0.30639358358E+03  0.17300000000E+03 0. -1.
</event>
<event>
 4    1  0.6132688E+000  0.1000000E+03  0.7546771E-02  0.1280296E+00
         21   -1    0    0  503  502  0.00000000000E+00  0.00000000000E+00  0.33158209939E+03  0.33158209939E+03  0.00000000000E+00 0. -1.
         21   -1    0    0  501  503 -0.00000000000E+00 -0.00000000000E+00 -0.13054435912E+04  0.13054435912E+04  0.00000000000E+00 0. -1.
          6    1    1    2  501    0  0.62077204721E+03  0.12710054418E+03 -0.44004591684E+03  0.79062120630E+03  0.17300000000E+03 0. -1.
         -6    1    1    2    0  502 -0.62077204721E+03 -0.12710054418E+03 -0.53381557497E+03  0.84640448428E+03  0.17300000000E+03 0. -1.
</event>
<event>
 4    1  0.6132688E+000  0.1000000E+03  0.7546771E-02  0.1280296E+00
         21   -1    0    0  503  502  0.00000000000E+00  0.00000000000E+00  0.17892128712E+03  0.17892128712E+03  0.00000000000E+00 0. -1.
         21   -1    0    0  501  503 -0.00000000000E+00 -0.00000000000E+00 -0.33656875345E+03  0.33656875345E+03  0.00000000000E+00 0. -1.
          6    1    1    2  501    0  0.63938519281E+02 -0.51876012786E+02 -0.23987289939E+03  0.30699717069E+03  0.17300000000E+03 0. -1.
         -6    1    1    2    0  502 -0.63938519281E+02  0.51876012786E+02  0.82225433062E+02  0.20849286988E+03  0.17300000000E+03 0. -1.
</event>
<event>
 4    1  0.6132688E+000  0.1000000E+03  0.7546771E-02  0.1280296E+00
         21   -1    0    0  503  502  0.00000000000E+00  0.00000000000E+00  0.39128395243E+02  0.39128395243E+02  0.00000000000E+00 0.  1.
         21   -1    0    0  501  503 -0.00000000000E+00 -0.00000000000E+00 -0.81396719303E+03  0.81396719303E+03  0.00000000000E+00 0. -1.
          6    1    1    2  501    0 -0.15830920985E+02  0.34815197033E+02 -0.43854288310E+03  0.47298158138E+03  0.17300000000E+03 0. -1.
         -6    1    1    2    0  502  0.15830920985E+02 -0.34815197033E+02 -0.33629591469E+03  0.38011400690E+03  0.17300000000E+03 0. -1.
</event>
<event>
 4    1  0.6132688E+000  0.1000000E+03  0.7546771E-02  0.1280296E+00
         21   -1    0    0  503  502  0.00000000000E+00  0.00000000000E+00  0.15376869346E+03  0.15376869346E+03  0.00000000000E+00 0.  1.
         21   -1    0    0  501  503 -0.00000000000E+00 -0.00000000000E+00 -0.20554312129E+03  0.20554312129E+03  0.00000000000E+00 0. -1.
          6    1    1    2  501    0 -0.37820263993E+02  0.14412671297E+02 -0.32198051005E+02  0.18056525677E+03  0.17300000000E+03 0. -1.
         -6    1    1    2    0  502  0.37820263993E+02 -0.14412671297E+02 -0.19576376820E+02  0.17874655799E+03  0.17300000000E+03 0. -1.
</event>
<event>
 4    1  0.6132688E+000  0.1000000E+03  0.7546771E-02  0.1280296E+00
         21   -1    0    0  503  502  0.00000000000E+00  0.00000000000E+00  0.82621881403E+02  0.82621881403E+02  0.00000000000E+00 0.  1.
         21   -1    0    0  501  503 -0.00000000000E+00 -0.00000000000E+00 -0.79831877295E+03  0.79831877295E+03  0.00000000000E+00 0. -1.
          6    1    1    2  501    0  0.85039984601E+02 -0.89407068954E+02 -0.60522367271E+03  0.64144377538E+03  0.17300000000E+03 0. -1.
         -6    1    1    2    0  502 -0.85039984601E+02  0.89407068954E+02 -0.11047321884E+03  0.23949687898E+03  0.17300000000E+03 0. -1.
</event>
<event>
 4    1  0.6132688E+000  0.1000000E+03  0.7546771E-02  0.1280296E+00
         21   -1    0    0  501  502  0.00000000000E+00  0.00000000000E+00  0.18561214013E+03  0.18561214013E+03  0.00000000000E+00 0. -1.
         21   -1    0    0  502  503 -0.00000000000E+00 -0.00000000000E+00 -0.44888696297E+03  0.44888696297E+03  0.00000000000E+00 0. -1.
          6    1    1    2  501    0 -0.51186220957E+02  0.99145534505E+02  0.90746451603E+02  0.22497507575E+03  0.17300000000E+03 0. -1.
         -6    1    1    2    0  503  0.51186220957E+02 -0.99145534505E+02 -0.35402127444E+03  0.40952402736E+03  0.17300000000E+03 0. -1.
</event>
<event>
 4    1  0.6132688E+000  0.1000000E+03  0.7546771E-02  0.1280296E+00
         21   -1    0    0  503  502  0.00000000000E+00  0.00000000000E+00  0.70638313792E+02  0.70638313792E+02  0.00000000000E+00 0.  1.
         21   -1    0    0  501  503 -0.00000000000E+00 -0.00000000000E+00 -0.84759618689E+03  0.84759618689E+03  0.00000000000E+00 0. -1.
          6    1    1    2  501    0  0.45830724872E+02  0.38228245269E+02 -0.69324182430E+03  0.71699029355E+03  0.17300000000E+03 0.  1.
         -6    1    1    2    0  502 -0.45830724872E+02 -0.38228245269E+02 -0.83716048792E+02  0.20124420713E+03  0.17300000000E+03 0. -1.
</event>
<event>
 4    1  0.6132688E+000  0.1000000E+03  0.7546771E-02  0.1280296E+00
         21   -1    0    0  503  502  0.00000000000E+00  0.00000000000E+00  0.43215230187E+02  0.43215230187E+02  0.00000000000E+00 0.  1.
         21   -1    0    0  501  503 -0.00000000000E+00 -0.00000000000E+00 -0.10971770170E+04  0.10971770170E+04  0.00000000000E+00 0. -1.
          6    1    1    2  501    0 -0.21349853945E+02 -0.32449655803E+02 -0.85797067082E+03  0.87610014748E+03  0.17300000000E+03 0.  1.
         -6    1    1    2    0  502  0.21349853945E+02  0.32449655803E+02 -0.19599111603E+03  0.26429209975E+03  0.17300000000E+03 0. -1.
</event>
<event>
 4    1  0.6132688E+000  0.1000000E+03  0.7546771E-02  0.1280296E+00
         21   -1    0    0  503  502  0.00000000000E+00  0.00000000000E+00  0.11175191532E+03  0.11175191532E+03  0.00000000000E+00 0.  1.
         21   -1    0    0  501  503 -0.00000000000E+00 -0.00000000000E+00 -0.46180813797E+03  0.46180813797E+03  0.00000000000E+00 0. -1.
          6    1    1    2  501    0 -0.13401633665E+03 -0.56463595206E+02 -0.14595417841E+03  0.26903557064E+03  0.17300000000E+03 0.  1.
         -6    1    1    2    0  502  0.13401633665E+03  0.56463595206E+02 -0.20410204424E+03  0.30452448266E+03  0.17300000000E+03 0. -1.
</event>
<event>
 4    1  0.6132688E+000  0.1000000E+03  0.7546771E-02  0.1280296E+00
         21   -1    0    0  503  502  0.00000000000E+00  0.00000000000E+00  0.29333278637E+03  0.29333278637E+03  0.00000000000E+00 0. -1.
         21   -1    0    0  501  503 -0.00000000000E+00 -0.00000000000E+00 -0.16553364168E+03  0.16553364168E+03  0.00000000000E+00 0.  1.
          6    1    1    2  501    0  0.28316459576E+02  0.55952231971E+02 -0.62317239334E+02  0.19428049944E+03  0.17300000000E+03 0.  1.
         -6    1    1    2    0  502 -0.28316459576E+02 -0.55952231971E+02  0.19011638402E+03  0.26458592861E+03  0.17300000000E+03 0. -1.
</event>
<event>
 4    1  0.6132688E+000  0.1000000E+03  0.7546771E-02  0.1280296E+00
         21   -1    0    0  503  502  0.00000000000E+00  0.00000000000E+00  0.42132975604E+03  0.42132975604E+03  0.00000000000E+00 0. -1.
         21   -1    0    0  501  503 -0.00000000000E+00 -0.00000000000E+00 -0.16793457013E+03  0.16793457013E+03  0.00000000000E+00 0.  1.
          6    1    1    2  501    0  0.78704404621E+02 -0.17505957270E+03  0.56761712285E+02  0.26455836649E+03  0.17300000000E+03 0.  1.
         -6    1    1    2    0  502 -0.78704404621E+02  0.17505957270E+03  0.19663347363E+03  0.32470595968E+03  0.17300000000E+03 0. -1.
</event>
<event>
 4    1  0.6132688E+000  0.1000000E+03  0.7546771E-02  0.1280296E+00
         21   -1    0    0  503  502  0.00000000000E+00  0.00000000000E+00  0.45638404899E+03  0.45638404899E+03  0.00000000000E+00 0.  1.
         21   -1    0    0  501  503 -0.00000000000E+00 -0.00000000000E+00 -0.94196994826E+02  0.94196994826E+02  0.00000000000E+00 0. -1.
          6    1    1    2  501    0 -0.88951869665E+02 -0.77481663083E+01  0.86381754994E+02  0.21298656482E+03  0.17300000000E+03 0. -1.
         -6    1    1    2    0  502  0.88951869665E+02  0.77481663083E+01  0.27580529917E+03  0.33759447899E+03  0.17300000000E+03 0.  1.
</event>
<event>
 4    1  0.6132688E+000  0.1000000E+03  0.7546771E-02  0.1280296E+00
         21   -1    0    0  503  502  0.00000000000E+00  0.00000000000E+00  0.29423875268E+03  0.29423875268E+03  0.00000000000E+00 0.  1.
         21   -1    0    0  501  503 -0.00000000000E+00 -0.00000000000E+00 -0.19836526704E+03  0.19836526704E+03  0.00000000000E+00 0. -1.
          6    1    1    2  501    0  0.12775195357E+03 -0.35162165655E+02 -0.58407945422E+02  0.22560458245E+03  0.17300000000E+03 0. -1.
         -6    1    1    2    0  502 -0.12775195357E+03  0.35162165655E+02  0.15428143106E+03  0.26699943727E+03  0.17300000000E+03 0.  1.
</event>
<event>
 4    1  0.6132688E+000  0.1000000E+03  0.7546771E-02  0.1280296E+00
         21   -1    0    0  501  502  0.00000000000E+00  0.00000000000E+00  0.26312834993E+02  0.26312834993E+02  0.00000000000E+00 0. -1.
         21   -1    0    0  502  503 -0.00000000000E+00 -0.00000000000E+00 -0.25074224974E+04  0.25074224974E+04  0.00000000000E+00 0. -1.
          6    1    1    2  501    0 -0.36838057788E+02 -0.56633638779E+02 -0.36541287460E+03  0.40990240359E+03  0.17300000000E+03 0. -1.
         -6    1    1    2    0  503  0.36838057788E+02  0.56633638779E+02 -0.21156967878E+04  0.21238329288E+04  0.17300000000E+03 0. -1.
</event>
<event>
 4    1  0.6132688E+000  0.1000000E+03  0.7546771E-02  0.1280296E+00
         21   -1    0    0  501  502  0.00000000000E+00  0.00000000000E+00  0.43173657284E+02  0.43173657284E+02  0.00000000000E+00 0.  1.
         21   -1    0    0  502  503 -0.00000000000E+00 -0.00000000000E+00 -0.13622377637E+04  0.13622377637E+04  0.00000000000E+00 0.  1.
          6    1    1    2  501    0 -0.26173801495E+01 -0.16991372560E+03 -0.66678271531E+03  0.70951089792E+03  0.17300000000E+03 0.  1.
         -6    1    1    2    0  503  0.26173801495E+01  0.16991372560E+03 -0.65228139115E+03  0.69590052311E+03  0.17300000000E+03 0.  1.
</event>
<event>
 4    1  0.6132688E+000  0.1000000E+03  0.7546771E-02  0.1280296E+00
         21   -1    0    0  501  502  0.00000000000E+00  0.00000000000E+00  0.86877044305E+03  0.86877044305E+03  0.00000000000E+00 0.  1.
         21   -1    0    0  502  503 -0.00000000000E+00 -0.00000000000E+00 -0.15651805581E+03  0.15651805581E+03  0.00000000000E+00 0.  1.
          6    1    1    2  501    0  0.54247170081E+02  0.19433271852E+02  0.80170812240E+03  0.82218326488E+03  0.17300000000E+03 0.  1.
         -6    1    1    2    0  503 -0.54247170081E+02 -0.19433271852E+02 -0.89455735170E+02  0.20310523398E+03  0.17300000000E+03 0.  1.
</event>
<event>
 4    1  0.6132688E+000  0.1000000E+03  0.7546771E-02  0.1280296E+00
         21   -1    0    0  503  502  0.00000000000E+00  0.00000000000E+00  0.32066854370E+04  0.32066854370E+04  0.00000000000E+00 0. -1.
         21   -1    0    0  501  503 -0.00000000000E+00 -0.00000000000E+00 -0.69749599951E+02  0.69749599951E+02  0.00000000000E+00 0.  1.
          6    1    1    2  501    0 -0.21303636841E+03  0.17702656235E+03  0.38354576081E+03  0.50374522199E+03  0.17300000000E+03 0. -1.
         -6    1    1    2    0  502  0.21303636841E+03 -0.17702656235E+03  0.27533900762E+04  0.27726898149E+04  0.17300000000E+03 0. -1.
</event>
<event>
 4    1  0.6132688E+000  0.1000000E+03  0.7546771E-02  0.1280296E+00
         21   -1    0    0  503  502  0.00000000000E+00  0.00000000000E+00  0.14854437805E+03  0.14854437805E+03  0.00000000000E+00 0. -1.
         21   -1    0    0  501  503 -0.00000000000E+00 -0.00000000000E+00 -0.42525573895E+03  0.42525573895E+03  0.00000000000E+00 0.  1.
          6    1    1    2  501    0  0.73124054952E+02  0.15365719943E+03 -0.63653100996E+02  0.25087522719E+03  0.17300000000E+03 0. -1.
         -6    1    1    2    0  502 -0.73124054952E+02 -0.15365719943E+03 -0.21305825990E+03  0.32292488982E+03  0.17300000000E+03 0. -1.
</event>
<event>
 4    1  0.6132688E+000  0.1000000E+03  0.7546771E-02  0.1280296E+00
         21   -1    0    0  503  502  0.00000000000E+00  0.00000000000E+00  0.33697581838E+02  0.33697581838E+02  0.00000000000E+00 0. -1.
         21   -1    0    0  501  503 -0.00000000000E+00 -0.00000000000E+00 -0.13819728262E+04  0.13819728262E+04  0.00000000000E+00 0.  1.
          6    1    1    2  501    0  0.33419128722E+02 -0.76170599142E+02 -0.35073302023E+03  0.39982677476E+03  0.17300000000E+03 0. -1.
         -6    1    1    2    0  502 -0.33419128722E+02  0.76170599142E+02 -0.99754222412E+03  0.10158436333E+04  0.17300000000E+03 0.  1.
</event>
<event>
 4    1  0.6132688E+000  0.1000000E+03  0.7546771E-02  0.1280296E+00
         21   -1    0    0  503  502  0.00000000000E+00  0.00000000000E+00  0.11779213093E+04  0.11779213093E+04  0.00000000000E+00 0.  1.
         21   -1    0    0  501  503 -0.00000000000E+00 -0.00000000000E+00 -0.53852710189E+02  0.53852710189E+02  0.00000000000E+00 0. -1.
          6    1    1    2  501    0  0.80545935024E+02 -0.16384544419E+03  0.59413049862E+03  0.64517674061E+03  0.17300000000E+03 0.  1.
         -6    1    1    2    0  502 -0.80545935024E+02  0.16384544419E+03  0.52993810045E+03  0.58659727884E+03  0.17300000000E+03 0.  1.
</event>
<event>
 4    1  0.6132688E+000  0.1000000E+03  0.7546771E-02  0.1280296E+00
         21   -1    0    0  503  502  0.00000000000E+00  0.00000000000E+00  0.11351656796E+03  0.11351656796E+03  0.00000000000E+00 0.  1.
         21   -1    0    0  501  503 -0.00000000000E+00 -0.00000000000E+00 -0.29636975458E+03  0.29636975458E+03  0.00000000000E+00 0. -1.
          6    1    1    2  501    0  0.15101045359E+02  0.18539857602E+02 -0.15405877246E+03  0.23288381924E+03  0.17300000000E+03 0.  1.
         -6    1    1    2    0  502 -0.15101045359E+02 -0.18539857602E+02 -0.28794414163E+02  0.17700250331E+03  0.17300000000E+03 0.  1.
</event>
<event>
 4    1  0.6132688E+000  0.1000000E+03  0.7546771E-02  0.1280296E+00
         21   -1    0    0  503  502  0.00000000000E+00  0.00000000000E+00  0.81527187391E+03  0.81527187391E+03  0.00000000000E+00 0. -1.
         21   -1    0    0  501  503 -0.00000000000E+00 -0.00000000000E+00 -0.52523349208E+02  0.52523349208E+02  0.00000000000E+00 0.  1.
          6    1    1    2  501    0  0.67884160192E+02 -0.16278400785E+02  0.19361208268E+03  0.26886406249E+03  0.17300000000E+03 0.  1.
         -6    1    1    2    0  502 -0.67884160192E+02  0.16278400785E+02  0.56913644202E+03  0.59893116063E+03  0.17300000000E+03 0. -1.
</event>
<event>
 4    1  0.6132688E+000  0.1000000E+03  0.7546771E-02  0.1280296E+00
         21   -1    0    0  503  502  0.00000000000E+00  0.00000000000E+00  0.94472507018E+03  0.94472507018E+03  0.00000000000E+00 0. -1.
         21   -1    0    0  501  503 -0.00000000000E+00 -0.00000000000E+00 -0.31878177736E+02  0.31878177736E+02  0.00000000000E+00 0.  1.
          6    1    1    2  501    0 -0.11249367117E+02  0.57580446906E+01  0.47115491576E+03  0.50207136742E+03  0.17300000000E+03 0.  1.
         -6    1    1    2    0  502  0.11249367117E+02 -0.57580446906E+01  0.44169197668E+03  0.47453188049E+03  0.17300000000E+03 0. -1.
</event>
<event>
 4    1  0.6132688E+000  0.1000000E+03  0.7546771E-02  0.1280296E+00
         21   -1    0    0  503  502  0.00000000000E+00  0.00000000000E+00  0.10853911524E+03  0.10853911524E+03  0.00000000000E+00 0. -1.
         21   -1    0    0  501  503 -0.00000000000E+00 -0.00000000000E+00 -0.46916078548E+03  0.46916078548E+03  0.00000000000E+00 0.  1.
          6    1    1    2  501    0 -0.11089379192E+03 -0.53567042770E+02 -0.27801650672E+03  0.34984144861E+03  0.17300000000E+03 0.  1.
         -6    1    1    2    0  502  0.11089379192E+03  0.53567042770E+02 -0.82605163517E+02  0.22785845211E+03  0.17300000000E+03 0. -1.
</event>
<event>
 4    1  0.6132688E+000  0.1000000E+03  0.7546771E-02  0.1280296E+00
         21   -1    0    0  501  502  0.00000000000E+00  0.00000000000E+00  0.94502013722E+03  0.94502013722E+03  0.00000000000E+00 0. -1.
         21   -1    0    0  502  503 -0.00000000000E+00 -0.00000000000E+00 -0.67289788164E+02  0.67289788164E+02  0.00000000000E+00 0. -1.
          6    1    1    2  501    0  0.91497548268E+02  0.13745847665E+03  0.59937221393E+03  0.64532370557E+03  0.17300000000E+03 0. -1.
         -6    1    1    2    0  503 -0.91497548268E+02 -0.13745847665E+03  0.27835813513E+03  0.36698621981E+03  0.17300000000E+03 0. -1.
</event>
<event>
 4    1  0.6132688E+000  0.1000000E+03  0.7546771E-02  0.1280296E+00
         21   -1    0    0  503  502  0.00000000000E+00  0.00000000000E+00  0.31143341813E+03  0.31143341813E+03  0.00000000000E+00 0. -1.
         21   -1    0    0  501  503 -0.00000000000E+00 -0.00000000000E+00 -0.20183746486E+03  0.20183746486E+03  0.00000000000E+00 0. -1.
          6    1    1    2  501    0  0.66175492486E+02 -0.29199300299E+02 -0.11555840681E+03  0.22026016510E+03  0.17300000000E+03 0. -1.
         -6    1    1    2    0  502 -0.66175492486E+02  0.29199300299E+02  0.22515436008E+03  0.29301071790E+03  0.17300000000E+03 0. -1.
</event>
<event>
 4    1  0.6132688E+000  0.1000000E+03  0.7546771E-02  0.1280296E+00
         21   -1    0    0  503  502  0.00000000000E+00  0.00000000000E+00  0.15969783645E+03  0.15969783645E+03  0.00000000000E+00 0. -1.
         21   -1    0    0  501  503 -0.00000000000E+00 -0.00000000000E+00 -0.57897221903E+03  0.57897221903E+03  0.00000000000E+00 0. -1.
          6    1    1    2  501    0 -0.84019698524E+02 -0.15091806508E+03 -0.42926619330E+03  0.49399801297E+03  0.17300000000E+03 0. -1.
         -6    1    1    2    0  502  0.84019698524E+02  0.15091806508E+03  0.99918107185E+01  0.24467204252E+03  0.17300000000E+03 0. -1.
</event>
<event>
 4    1  0.6132688E+000  0.1000000E+03  0.7546771E-02  0.1280296E+00
         21   -1    0    0  503  502  0.00000000000E+00  0.00000000000E+00  0.44498179030E+02  0.44498179030E+02  0.00000000000E+00 0. -1.
         21   -1    0    0  501  503 -0.00000000000E+00 -0.00000000000E+00 -0.73985651636E+03  0.73985651636E+03  0.00000000000E+00 0. -1.
          6    1    1    2  501    0 -0.15886240040E+02 -0.31434442774E+02 -0.25718924708E+03  0.31195481344E+03  0.17300000000E+03 0. -1.
         -6    1    1    2    0  502  0.15886240040E+02  0.31434442774E+02 -0.43816909026E+03  0.47239988195E+03  0.17300000000E+03 0. -1.
</event>
<event>
 4    1  0.6132688E+000  0.1000000E+03  0.7546771E-02  0.1280296E+00
         21   -1    0    0  503  502  0.00000000000E+00  0.00000000000E+00  0.30224422114E+03  0.30224422114E+03  0.00000000000E+00 0.  1.
         21   -1    0    0  501  503 -0.00000000000E+00 -0.00000000000E+00 -0.21726770838E+03  0.21726770838E+03  0.00000000000E+00 0.  1.
          6    1    1    2  501    0  0.91379744394E+02 -0.15243640823E+03 -0.22825819027E+02  0.24907254818E+03  0.17300000000E+03 0.  1.
         -6    1    1    2    0  502 -0.91379744394E+02  0.15243640823E+03  0.10780233179E+03  0.27043938134E+03  0.17300000000E+03 0.  1.
</event>
<event>
 4    1  0.6132688E+000  0.1000000E+03  0.7546771E-02  0.1280296E+00
         21   -1    0    0  503  502  0.00000000000E+00  0.00000000000E+00  0.48567284407E+03  0.48567284407E+03  0.00000000000E+00 0.  1.
         21   -1    0    0  501  503 -0.00000000000E+00 -0.00000000000E+00 -0.12982701248E+03  0.12982701248E+03  0.00000000000E+00 0.  1.
          6    1    1    2  501    0  0.74383575511E+02 -0.14908977479E+03  0.88163734973E+02  0.25585644689E+03  0.17300000000E+03 0.  1.
         -6    1    1    2    0  502 -0.74383575511E+02  0.14908977479E+03  0.26768209662E+03  0.35964340965E+03  0.17300000000E+03 0.  1.
</event>
<event>
 4    1  0.6132688E+000  0.1000000E+03  0.7546771E-02  0.1280296E+00
         21   -1    0    0  503  502  0.00000000000E+00  0.00000000000E+00  0.11682130287E+04  0.11682130287E+04  0.00000000000E+00 0. -1.
         21   -1    0    0  501  503 -0.00000000000E+00 -0.00000000000E+00 -0.98421139356E+02  0.98421139356E+02  0.00000000000E+00 0.  1.
          6    1    1    2  501    0 -0.14627368099E+03 -0.23517176145E+03  0.36426490263E+03  0.48920309322E+03  0.17300000000E+03 0. -1.
         -6    1    1    2    0  502  0.14627368099E+03  0.23517176145E+03  0.70552698673E+03  0.77743107485E+03  0.17300000000E+03 0.  1.
</event>
<event>
 4    1  0.6132688E+000  0.1000000E+03  0.7546771E-02  0.1280296E+00
         21   -1    0    0  503  502  0.00000000000E+00  0.00000000000E+00  0.34545384901E+02  0.34545384901E+02  0.00000000000E+00 0. -1.
         21   -1    0    0  501  503 -0.00000000000E+00 -0.00000000000E+00 -0.13737170595E+04  0.13737170595E+04  0.00000000000E+00 0.  1.
          6    1    1    2  501    0 -0.33154976740E+02  0.92669638646E+02 -0.95577872297E+03  0.97628319749E+03  0.17300000000E+03 0. -1.
         -6    1    1    2    0  502  0.33154976740E+02 -0.92669638646E+02 -0.38339295165E+03  0.43197924694E+03  0.17300000000E+03 0.  1.
</event>
<event>
 4    1  0.6132688E+000  0.1000000E+03  0.7546771E-02  0.1280296E+00
         21   -1    0    0  501  502  0.00000000000E+00  0.00000000000E+00  0.17853221708E+03  0.17853221708E+03  0.00000000000E+00 0. -1.
         21   -1    0    0  502  503 -0.00000000000E+00 -0.00000000000E+00 -0.19312418992E+03  0.19312418992E+03  0.00000000000E+00 0. -1.
          6    1    1    2  501    0  0.30177210935E+02  0.29446240957E+02 -0.59987774234E+02  0.18789698833E+03  0.17300000000E+03 0. -1.
         -6    1    1    2    0  503 -0.30177210935E+02 -0.29446240957E+02  0.45395801392E+02  0.18375941867E+03  0.17300000000E+03 0. -1.
</event>
<event>
 4    1  0.6132688E+000  0.1000000E+03  0.7546771E-02  0.1280296E+00
         21   -1    0    0  501  502  0.00000000000E+00  0.00000000000E+00  0.90241038108E+02  0.90241038108E+02  0.00000000000E+00 0. -1.
         21   -1    0    0  502  503 -0.00000000000E+00 -0.00000000000E+00 -0.11772298306E+04  0.11772298306E+04  0.00000000000E+00 0. -1.
          6    1    1    2  501    0  0.11604352750E+03  0.17647212961E+03 -0.19732879056E+03  0.33686223355E+03  0.17300000000E+03 0. -1.
         -6    1    1    2    0  503 -0.11604352750E+03 -0.17647212961E+03 -0.88966000196E+03  0.93060863519E+03  0.17300000000E+03 0. -1.
</event>
<event>
 4    1  0.6132688E+000  0.1000000E+03  0.7546771E-02  0.1280296E+00
         21   -1    0    0  503  502  0.00000000000E+00  0.00000000000E+00  0.18846898504E+03  0.18846898504E+03  0.00000000000E+00 0.  1.
         21   -1    0    0  501  503 -0.00000000000E+00 -0.00000000000E+00 -0.21779308924E+03  0.21779308924E+03  0.00000000000E+00 0.  1.
          6    1    1    2  501    0  0.61716867818E+02 -0.70997277159E+02  0.33092936412E+02  0.19968406941E+03  0.17300000000E+03 0.  1.
         -6    1    1    2    0  502 -0.61716867818E+02  0.70997277159E+02 -0.62417040603E+02  0.20657800487E+03  0.17300000000E+03 0.  1.
</event>
<event>
 4    1  0.6132688E+000  0.1000000E+03  0.7546771E-02  0.1280296E+00
         21   -1    0    0  501  502  0.00000000000E+00  0.00000000000E+00  0.11988001244E+04  0.11988001244E+04  0.00000000000E+00 0.  1.
         21   -1    0    0  502  503 -0.00000000000E+00 -0.00000000000E+00 -0.79473218881E+02  0.79473218881E+02  0.00000000000E+00 0. -1.
          6    1    1    2  501    0 -0.21686737339E+02 -0.32868824557E+02  0.10826564591E+04  0.10970983012E+04  0.17300000000E+03 0.  1.
         -6    1    1    2    0  503  0.21686737339E+02  0.32868824557E+02  0.36670446401E+02  0.18117504200E+03  0.17300000000E+03 0. -1.
</event>
<event>
 4    1  0.6132688E+000  0.1000000E+03  0.7546771E-02  0.1280296E+00
         21   -1    0    0  501  502  0.00000000000E+00  0.00000000000E+00  0.25059047015E+04  0.25059047015E+04  0.00000000000E+00 0.  1.
         21   -1    0    0  502  503 -0.00000000000E+00 -0.00000000000E+00 -0.15745215154E+03  0.15745215154E+03  0.00000000000E+00 0.  1.
          6    1    1    2  501    0  0.34206392151E+03  0.49553532122E+03  0.10778147021E+04  0.12466661594E+04  0.17300000000E+03 0. -1.
         -6    1    1    2    0  503 -0.34206392151E+03 -0.49553532122E+03  0.12706378478E+04  0.14166906936E+04  0.17300000000E+03 0. -1.
</event>
<event>
 4    1  0.6132688E+000  0.1000000E+03  0.7546771E-02  0.1280296E+00
         21   -1    0    0  501  502  0.00000000000E+00  0.00000000000E+00  0.31489199796E+02  0.31489199796E+02  0.00000000000E+00 0.  1.
         21   -1    0    0  502  503 -0.00000000000E+00 -0.00000000000E+00 -0.11055185191E+04  0.11055185191E+04  0.00000000000E+00 0.  1.
          6    1    1    2  501    0 -0.86337417755E+01 -0.61668830974E+02 -0.44040534184E+03  0.47724569284E+03  0.17300000000E+03 0. -1.
         -6    1    1    2    0  503  0.86337417755E+01  0.61668830974E+02 -0.63362397744E+03  0.65976202603E+03  0.17300000000E+03 0. -1.
</event>
<event>
 4    1  0.6132688E+000  0.1000000E+03  0.7546771E-02  0.1280296E+00
         21   -1    0    0  501  502  0.00000000000E+00  0.00000000000E+00  0.33948663749E+03  0.33948663749E+03  0.00000000000E+00 0.  1.
         21   -1    0    0  502  503 -0.00000000000E+00 -0.00000000000E+00 -0.12431454378E+03  0.12431454378E+03  0.00000000000E+00 0.  1.
          6    1    1    2  501    0  0.21164185073E+02 -0.80799948776E+02  0.18974747439E+03  0.27001788550E+03  0.17300000000E+03 0. -1.
         -6    1    1    2    0  503 -0.21164185073E+02  0.80799948776E+02  0.25424619323E+02  0.19378329577E+03  0.17300000000E+03 0. -1.
</event>
<event>
 4    1  0.6132688E+000  0.1000000E+03  0.7546771E-02  0.1280296E+00
         21   -1    0    0  501  502  0.00000000000E+00  0.00000000000E+00  0.73574097968E+02  0.73574097968E+02  0.00000000000E+00 0.  1.
         21   -1    0    0  502  503 -0.00000000000E+00 -0.00000000000E+00 -0.92032443471E+03  0.92032443471E+03  0.00000000000E+00 0.  1.
          6    1    1    2  501    0 -0.14193278706E+03 -0.15967020819E+02 -0.17158214246E+03  0.28243458253E+03  0.17300000000E+03 0. -1.
         -6    1    1    2    0  503  0.14193278706E+03  0.15967020819E+02 -0.67516819428E+03  0.71146395015E+03  0.17300000000E+03 0. -1.
</event>
<event>
 4    1  0.6132688E+000  0.1000000E+03  0.7546771E-02  0.1280296E+00
         21   -1    0    0  501  502  0.00000000000E+00  0.00000000000E+00  0.22341804596E+03  0.22341804596E+03  0.00000000000E+00 0.  1.
         21   -1    0    0  502  503 -0.00000000000E+00 -0.00000000000E+00 -0.70356635582E+03  0.70356635582E+03  0.00000000000E+00 0. -1.
          6    1    1    2  501    0  0.20495383475E+02  0.21994475456E+03  0.87393067247E+02  0.29387463995E+03  0.17300000000E+03 0. -1.
         -6    1    1    2    0  503 -0.20495383475E+02 -0.21994475456E+03 -0.56754137711E+03  0.63310976184E+03  0.17300000000E+03 0.  1.
</event>
<event>
 4    1  0.6132688E+000  0.1000000E+03  0.7546771E-02  0.1280296E+00
         21   -1    0    0  501  502  0.00000000000E+00  0.00000000000E+00  0.19289112469E+03  0.19289112469E+03  0.00000000000E+00 0.  1.
         21   -1    0    0  502  503 -0.00000000000E+00 -0.00000000000E+00 -0.10490897004E+04  0.10490897004E+04  0.00000000000E+00 0.  1.
          6    1    1    2  501    0 -0.17015339648E+02 -0.35154902397E+02  0.14259133775E+03  0.22756686610E+03  0.17300000000E+03 0.  1.
         -6    1    1    2    0  503  0.17015339648E+02  0.35154902397E+02 -0.99878991349E+03  0.10144139590E+04  0.17300000000E+03 0.  1.
</event>
<event>
 4    1  0.6132688E+000  0.1000000E+03  0.7546771E-02  0.1280296E+00
         21   -1    0    0  501  502  0.00000000000E+00  0.00000000000E+00  0.78335114840E+03  0.78335114840E+03  0.00000000000E+00 0.  1.
         21   -1    0    0  502  503 -0.00000000000E+00 -0.00000000000E+00 -0.39410281632E+02  0.39410281632E+02  0.00000000000E+00 0.  1.
          6    1    1    2  501    0 -0.10587197931E+02 -0.24563797088E+02  0.40729416624E+03  0.44332043348E+03  0.17300000000E+03 0.  1.
         -6    1    1    2    0  503  0.10587197931E+02  0.24563797088E+02  0.33664670052E+03  0.37944099655E+03  0.17300000000E+03 0.  1.
</event>
<event>
 4    1  0.6132688E+000  0.1000000E+03  0.7546771E-02  0.1280296E+00
         21   -1    0    0  501  502  0.00000000000E+00  0.00000000000E+00  0.65421508702E+03  0.65421508702E+03  0.00000000000E+00 0. -1.
         21   -1    0    0  502  503 -0.00000000000E+00 -0.00000000000E+00 -0.85131770097E+02  0.85131770097E+02  0.00000000000E+00 0.  1.
          6    1    1    2  501    0  0.99927113861E+02  0.28276267681E+02  0.47626521145E+03  0.51724513245E+03  0.17300000000E+03 0. -1.
         -6    1    1    2    0  503 -0.99927113861E+02 -0.28276267681E+02  0.92818105470E+02  0.22210172467E+03  0.17300000000E+03 0. -1.
</event>
<event>
 4    1  0.6132688E+000  0.1000000E+03  0.7546771E-02  0.1280296E+00
         21   -1    0    0  503  502  0.00000000000E+00  0.00000000000E+00  0.10652691913E+04  0.10652691913E+04  0.00000000000E+00 0.  1.
         21   -1    0    0  501  503 -0.00000000000E+00 -0.00000000000E+00 -0.32528075584E+02  0.32528075584E+02  0.00000000000E+00 0.  1.
          6    1    1    2  501    0  0.35967427069E+02  0.56779119058E+02  0.47418918662E+03  0.50921695659E+03  0.17300000000E+03 0.  1.
         -6    1    1    2    0  502 -0.35967427069E+02 -0.56779119058E+02  0.55855192912E+03  0.58858031031E+03  0.17300000000E+03 0.  1.
</event>
<event>
 4    1  0.6132688E+000  0.1000000E+03  0.7546771E-02  0.1280296E+00
         21   -1    0    0  503  502  0.00000000000E+00  0.00000000000E+00  0.78756463907E+03  0.78756463907E+03  0.00000000000E+00 0.  1.
         21   -1    0    0  501  503 -0.00000000000E+00 -0.00000000000E+00 -0.90655651114E+02  0.90655651114E+02  0.00000000000E+00 0.  1.
          6    1    1    2  501    0 -0.20013881874E+03 -0.27551845089E+02  0.39046588789E+03  0.47244815645E+03  0.17300000000E+03 0.  1.
         -6    1    1    2    0  502  0.20013881874E+03  0.27551845089E+02  0.30644310007E+03  0.40577213374E+03  0.17300000000E+03 0.  1.
</event>
<event>
 4    1  0.6132688E+000  0.1000000E+03  0.7546771E-02  0.1280296E+00
         21   -1    0    0  501  502  0.00000000000E+00  0.00000000000E+00  0.36217299445E+02  0.36217299445E+02  0.00000000000E+00 0. -1.
         21   -1    0    0  502  503 -0.00000000000E+00 -0.00000000000E+00 -0.15427297093E+04  0.15427297093E+04  0.00000000000E+00 0. -1.
          6    1    1    2  501    0 -0.12900112555E+02 -0.21310059980E+02 -0.22175956847E+03  0.28235941240E+03  0.17300000000E+03 0. -1.
         -6    1    1    2    0  503  0.12900112555E+02  0.21310059980E+02 -0.12847528414E+04  0.12965875963E+04  0.17300000000E+03 0. -1.
</event>
<event>
 4    1  0.6132688E+000  0.1000000E+03  0.7546771E-02  0.1280296E+00
         21   -1    0    0  503  502  0.00000000000E+00  0.00000000000E+00  0.95671766467E+02  0.95671766467E+02  0.00000000000E+00 0.  1.
         21   -1    0    0  501  503 -0.00000000000E+00 -0.00000000000E+00 -0.62704170268E+03  0.62704170268E+03  0.00000000000E+00 0. -1.
          6    1    1    2  501    0 -0.70981468785E+02  0.13448283777E+03 -0.14280313676E+03  0.27100874236E+03  0.17300000000E+03 0.  1.
         -6    1    1    2    0  502  0.70981468785E+02 -0.13448283777E+03 -0.38856679945E+03  0.45170472679E+03  0.17300000000E+03 0. -1.
</event>
<event>
 4    1  0.6132688E+000  0.1000000E+03  0.7546771E-02  0.1280296E+00
         21   -1    0    0  501  502  0.00000000000E+00  0.00000000000E+00  0.66366950871E+02  0.66366950871E+02  0.00000000000E+00 0. -1.
         21   -1    0    0  502  503 -0.00000000000E+00 -0.00000000000E+00 -0.51847413127E+03  0.51847413127E+03  0.00000000000E+00 0.  1.
          6    1    1    2  501    0 -0.18190633036E+02  0.56789650820E+02 -0.27398735017E+03  0.32947538849E+03  0.17300000000E+03 0. -1.
         -6    1    1    2    0  503  0.18190633036E+02 -0.56789650820E+02 -0.17811983023E+03  0.25536569365E+03  0.17300000000E+03 0.  1.
</event>
<event>
 4    1  0.6132688E+000  0.1000000E+03  0.7546771E-02  0.1280296E+00
         21   -1    0    0  501  502  0.00000000000E+00  0.00000000000E+00  0.15725881042E+03  0.15725881042E+03  0.00000000000E+00 0. -1.
         21   -1    0    0  502  503 -0.00000000000E+00 -0.00000000000E+00 -0.40311208756E+03  0.40311208756E+03  0.00000000000E+00 0.  1.
          6    1    1    2  501    0 -0.21434589047E+02  0.67539778754E+01  0.79101251041E+02  0.19154912096E+03  0.17300000000E+03 0. -1.
         -6    1    1    2    0  503  0.21434589047E+02 -0.67539778754E+01 -0.32495452818E+03  0.36882177703E+03  0.17300000000E+03 0.  1.
</event>
<event>
 4    1  0.6132688E+000  0.1000000E+03  0.7546771E-02  0.1280296E+00
         21   -1    0    0  501  502  0.00000000000E+00  0.00000000000E+00  0.14208394739E+03  0.14208394739E+03  0.00000000000E+00 0. -1.
         21   -1    0    0  502  503 -0.00000000000E+00 -0.00000000000E+00 -0.13200011803E+04  0.13200011803E+04  0.00000000000E+00 0.  1.
          6    1    1    2  501    0 -0.18065455943E+03 -0.16867392409E+03 -0.64482842093E+02  0.30850283538E+03  0.17300000000E+03 0. -1.
         -6    1    1    2    0  503  0.18065455943E+03  0.16867392409E+03 -0.11134343909E+04  0.11535822924E+04  0.17300000000E+03 0.  1.
</event>
<event>
 4    1  0.6132688E+000  0.1000000E+03  0.7546771E-02  0.1280296E+00
         21   -1    0    0  501  502  0.00000000000E+00  0.00000000000E+00  0.87268370450E+02  0.87268370450E+02  0.00000000000E+00 0.  1.
         21   -1    0    0  502  503 -0.00000000000E+00 -0.00000000000E+00 -0.67580251243E+03  0.67580251243E+03  0.00000000000E+00 0. -1.
          6    1    1    2  501    0  0.66041151672E+02  0.96663194362E+02 -0.99669588291E+02  0.23144812310E+03  0.17300000000E+03 0.  1.
         -6    1    1    2    0  503 -0.66041151672E+02 -0.96663194362E+02 -0.48886455369E+03  0.53162275977E+03  0.17300000000E+03 0.  1.
</event>
<event>
 4    1  0.6132688E+000  0.1000000E+03  0.7546771E-02  0.1280296E+00
         21   -1    0    0  501  502  0.00000000000E+00  0.00000000000E+00  0.60908579326E+03  0.60908579326E+03  0.00000000000E+00 0.  1.
         21   -1    0    0  502  503 -0.00000000000E+00 -0.00000000000E+00 -0.13023321565E+04  0.13023321565E+04  0.00000000000E+00 0. -1.
          6    1    1    2  501    0  0.22946039608E+03  0.10853611578E+03  0.55044202287E+03  0.63035512399E+03  0.17300000000E+03 0.  1.
         -6    1    1    2    0  503 -0.22946039608E+03 -0.10853611578E+03 -0.12436883861E+04  0.12810628257E+04  0.17300000000E+03 0.  1.
</event>
<event>
 4    1  0.6132688E+000  0.1000000E+03  0.7546771E-02  0.1280296E+00
         21   -1    0    0  501  502  0.00000000000E+00  0.00000000000E+00  0.22960063543E+03  0.22960063543E+03  0.00000000000E+00 0.  1.
         21   -1    0    0  502  503 -0.00000000000E+00 -0.00000000000E+00 -0.40308999908E+03  0.40308999908E+03  0.00000000000E+00 0. -1.
          6    1    1    2  501    0 -0.21416746343E+03 -0.11192990776E+03 -0.19156233589E+02  0.29781196741E+03  0.17300000000E+03 0.  1.
         -6    1    1    2    0  503  0.21416746343E+03  0.11192990776E+03 -0.15433313006E+03  0.33487866710E+03  0.17300000000E+03 0.  1.
</event>
<event>
 4    1  0.6132688E+000  0.1000000E+03  0.7546771E-02  0.1280296E+00
         21   -1    0    0  501  502  0.00000000000E+00  0.00000000000E+00  0.21957650075E+03  0.21957650075E+03  0.00000000000E+00 0. -1.
         21   -1    0    0  502  503 -0.00000000000E+00 -0.00000000000E+00 -0.18089511463E+03  0.18089511463E+03  0.00000000000E+00 0. -1.
          6    1    1    2  501    0 -0.86800235856E+02  0.47454167754E+02  0.17063486105E+02  0.20001585322E+03  0.17300000000E+03 0.  1.
         -6    1    1    2    0  503  0.86800235856E+02 -0.47454167754E+02  0.21617900015E+02  0.20045576216E+03  0.17300000000E+03 0.  1.
</event>
<event>
 4    1  0.6132688E+000  0.1000000E+03  0.7546771E-02  0.1280296E+00
         21   -1    0    0  501  502  0.00000000000E+00  0.00000000000E+00  0.57049565530E+02  0.57049565530E+02  0.00000000000E+00 0. -1.
         21   -1    0    0  502  503 -0.00000000000E+00 -0.00000000000E+00 -0.57330069579E+03  0.57330069579E+03  0.00000000000E+00 0. -1.
          6    1    1    2  501    0  0.19123624578E+02  0.19541921970E+02 -0.17960600897E+03  0.25086832839E+03  0.17300000000E+03 0.  1.
         -6    1    1    2    0  503 -0.19123624578E+02 -0.19541921970E+02 -0.33664512128E+03  0.37948193292E+03  0.17300000000E+03 0.  1.
</event>
<event>
 4    1  0.6132688E+000  0.1000000E+03  0.7546771E-02  0.1280296E+00
         21   -1    0    0  501  502  0.00000000000E+00  0.00000000000E+00  0.63981657336E+03  0.63981657336E+03  0.00000000000E+00 0. -1.
         21   -1    0    0  502  503 -0.00000000000E+00 -0.00000000000E+00 -0.21890472415E+03  0.21890472415E+03  0.00000000000E+00 0.  1.
          6    1    1    2  501    0  0.16063919906E+03 -0.28569667292E+03  0.15081614025E+03  0.40012754135E+03  0.17300000000E+03 0.  1.
         -6    1    1    2    0  503 -0.16063919906E+03  0.28569667292E+03  0.27009570896E+03  0.45859375616E+03  0.17300000000E+03 0. -1.
</event>
<event>
 4    1  0.6132688E+000  0.1000000E+03  0.7546771E-02  0.1280296E+00
         21   -1    0    0  501  502  0.00000000000E+00  0.00000000000E+00  0.91078841656E+03  0.91078841656E+03  0.00000000000E+00 0. -1.
         21   -1    0    0  502  503 -0.00000000000E+00 -0.00000000000E+00 -0.12599771329E+03  0.12599771329E+03  0.00000000000E+00 0.  1.
          6    1    1    2  501    0  0.99802696862E+02 -0.68304206433E+01  0.81097771738E+03  0.83523714658E+03  0.17300000000E+03 0.  1.
         -6    1    1    2    0  503 -0.99802696862E+02  0.68304206433E+01 -0.26187014118E+02  0.20154898327E+03  0.17300000000E+03 0. -1.
</event>
<event>
 4    1  0.6132688E+000  0.1000000E+03  0.7546771E-02  0.1280296E+00
         21   -1    0    0  501  502  0.00000000000E+00  0.00000000000E+00  0.21249935466E+03  0.21249935466E+03  0.00000000000E+00 0. -1.
         21   -1    0    0  502  503 -0.00000000000E+00 -0.00000000000E+00 -0.71793781897E+03  0.71793781897E+03  0.00000000000E+00 0. -1.
          6    1    1    2  501    0  0.15806885203E+03  0.14329856957E+03  0.78027869058E+02  0.28554787755E+03  0.17300000000E+03 0. -1.
         -6    1    1    2    0  503 -0.15806885203E+03 -0.14329856957E+03 -0.58346633337E+03  0.64488929608E+03  0.17300000000E+03 0. -1.
</event>
<event>
 4    1  0.6132688E+000  0.1000000E+03  0.7546771E-02  0.1280296E+00
         21   -1    0    0  501  502  0.00000000000E+00  0.00000000000E+00  0.37761319085E+03  0.37761319085E+03  0.00000000000E+00 0.  1.
         21   -1    0    0  502  503 -0.00000000000E+00 -0.00000000000E+00 -0.16091487581E+03  0.16091487581E+03  0.00000000000E+00 0.  1.
          6    1    1    2  501    0 -0.32054175193E+02 -0.96873122862E+02  0.26445290583E+03  0.33207862244E+03  0.17300000000E+03 0.  1.
         -6    1    1    2    0  503  0.32054175193E+02  0.96873122862E+02 -0.47754590788E+02  0.20644944423E+03  0.17300000000E+03 0.  1.
</event>
<event>
 4    1  0.6132688E+000  0.1000000E+03  0.7546771E-02  0.1280296E+00
         21   -1    0    0  501  502  0.00000000000E+00  0.00000000000E+00  0.14223264379E+03  0.14223264379E+03  0.00000000000E+00 0.  1.
         21   -1    0    0  502  503 -0.00000000000E+00 -0.00000000000E+00 -0.38510850350E+03  0.38510850350E+03  0.00000000000E+00 0.  1.
          6    1    1    2  501    0  0.10428944380E+03 -0.10715376946E+03 -0.65245650785E+02  0.23779027176E+03  0.17300000000E+03 0.  1.
         -6    1    1    2    0  503 -0.10428944380E+03  0.10715376946E+03 -0.17763020893E+03  0.28955087553E+03  0.17300000000E+03 0.  1.
</event>
<event>
 4    1  0.6132688E+000  0.1000000E+03  0.7546771E-02  0.1280296E+00
         21   -1    0    0  501  502  0.00000000000E+00  0.00000000000E+00  0.12314638648E+04  0.12314638648E+04  0.00000000000E+00 0. -1.
         21   -1    0    0  502  503 -0.00000000000E+00 -0.00000000000E+00 -0.39073064230E+02  0.39073064230E+02  0.00000000000E+00 0. -1.
          6    1    1    2  501    0  0.10538871738E+03  0.42398691935E+02  0.80670609493E+03  0.83283140817E+03  0.17300000000E+03 0. -1.
         -6    1    1    2    0  503 -0.10538871738E+03 -0.42398691935E+02  0.38568470563E+03  0.43770552086E+03  0.17300000000E+03 0. -1.
</event>
<event>
 4    1  0.6132688E+000  0.1000000E+03  0.7546771E-02  0.1280296E+00
         21   -1    0    0  501  502  0.00000000000E+00  0.00000000000E+00  0.21762363439E+03  0.21762363439E+03  0.00000000000E+00 0. -1.
         21   -1    0    0  502  503 -0.00000000000E+00 -0.00000000000E+00 -0.24363842621E+03  0.24363842621E+03  0.00000000000E+00 0. -1.
          6    1    1    2  501    0  0.12096005909E+03 -0.74096506693E+02  0.41585017705E+02  0.22755206414E+03  0.17300000000E+03 0. -1.
         -6    1    1    2    0  503 -0.12096005909E+03  0.74096506693E+02 -0.67599809522E+02  0.23370999646E+03  0.17300000000E+03 0. -1.
</event>
<event>
 4    1  0.6132688E+000  0.1000000E+03  0.7546771E-02  0.1280296E+00
         21   -1    0    0  501  502  0.00000000000E+00  0.00000000000E+00  0.88576730746E+02  0.88576730746E+02  0.00000000000E+00 0. -1.
         21   -1    0    0  502  503 -0.00000000000E+00 -0.00000000000E+00 -0.13256092866E+04  0.13256092866E+04  0.00000000000E+00 0. -1.
          6    1    1    2  501    0 -0.11058882482E+03 -0.42844652986E+02 -0.59368321735E+02  0.21798887607E+03  0.17300000000E+03 0. -1.
         -6    1    1    2    0  503  0.11058882482E+03  0.42844652986E+02 -0.11776642341E+04  0.11961971413E+04  0.17300000000E+03 0. -1.
</event>
<event>
 4    1  0.6132688E+000  0.1000000E+03  0.7546771E-02  0.1280296E+00
         21   -1    0    0  503  502  0.00000000000E+00  0.00000000000E+00  0.59300559301E+03  0.59300559301E+03  0.00000000000E+00 0. -1.
         21   -1    0    0  501  503 -0.00000000000E+00 -0.00000000000E+00 -0.59690502979E+02  0.59690502979E+02  0.00000000000E+00 0.  1.
          6    1    1    2  501    0  0.60417786085E+02  0.26501743783E+02  0.20873257617E+03  0.27901781243E+03  0.17300000000E+03 0.  1.
         -6    1    1    2    0  502 -0.60417786085E+02 -0.26501743783E+02  0.32458251386E+03  0.37367828356E+03  0.17300000000E+03 0. -1.
</event>
<event>
 4    1  0.6132688E+000  0.1000000E+03  0.7546771E-02  0.1280296E+00
         21   -1    0    0  503  502  0.00000000000E+00  0.00000000000E+00  0.10778399159E+03  0.10778399159E+03  0.00000000000E+00 0. -1.
         21   -1    0    0  501  503 -0.00000000000E+00 -0.00000000000E+00 -0.67282252675E+03  0.67282252675E+03  0.00000000000E+00 0.  1.
          6    1    1    2  501    0 -0.42317639768E+02 -0.40957012256E+02 -0.56919216135E+03  0.59781015050E+03  0.17300000000E+03 0.  1.
         -6    1    1    2    0  502  0.42317639768E+02  0.40957012256E+02  0.41536261959E+01  0.18279636785E+03  0.17300000000E+03 0. -1.
</event>
<event>
 4    1  0.6132688E+000  0.1000000E+03  0.7546771E-02  0.1280296E+00
         21   -1    0    0  503  502  0.00000000000E+00  0.00000000000E+00  0.52780159399E+03  0.52780159399E+03  0.00000000000E+00 0. -1.
         21   -1    0    0  501  503 -0.00000000000E+00 -0.00000000000E+00 -0.10355416882E+03  0.10355416882E+03  0.00000000000E+00 0.  1.
          6    1    1    2  501    0  0.86477595053E+01 -0.23315661561E+02  0.24656969623E+01  0.17479554766E+03  0.17300000000E+03 0.  1.
         -6    1    1    2    0  502 -0.86477595053E+01  0.23315661561E+02  0.42178172820E+03  0.45656021516E+03  0.17300000000E+03 0. -1.
</event>
<event>
 4    1  0.6132688E+000  0.1000000E+03  0.7546771E-02  0.1280296E+00
         21   -1    0    0  503  502  0.00000000000E+00  0.00000000000E+00  0.40398059708E+03  0.40398059708E+03  0.00000000000E+00 0.  1.
         21   -1    0    0  501  503 -0.00000000000E+00 -0.00000000000E+00 -0.91812027533E+02  0.91812027533E+02  0.00000000000E+00 0.  1.
          6    1    1    2  501    0 -0.13525862759E+02 -0.83534209142E+02  0.15530701271E+03  0.24740691432E+03  0.17300000000E+03 0.  1.
         -6    1    1    2    0  502  0.13525862759E+02  0.83534209142E+02  0.15686155684E+03  0.24838571029E+03  0.17300000000E+03 0.  1.
</event>
<event>
 4    1  0.6132688E+000  0.1000000E+03  0.7546771E-02  0.1280296E+00
         21   -1    0    0  501  502  0.00000000000E+00  0.00000000000E+00  0.12750141612E+04  0.12750141612E+04  0.00000000000E+00 0. -1.
         21   -1    0    0  502  503 -0.00000000000E+00 -0.00000000000E+00 -0.11655345105E+03  0.11655345105E+03  0.00000000000E+00 0. -1.
          6    1    1    2  501    0  0.82211152896E+00  0.47313314895E+02  0.11951210139E+04  0.12085042256E+04  0.17300000000E+03 0. -1.
         -6    1    1    2    0  503 -0.82211152896E+00 -0.47313314895E+02 -0.36660303741E+02  0.18306338657E+03  0.17300000000E+03 0. -1.
</event>
<event>
 4    1  0.6132688E+000  0.1000000E+03  0.7546771E-02  0.1280296E+00
         21   -1    0    0  501  502  0.00000000000E+00  0.00000000000E+00  0.17830292992E+03  0.17830292992E+03  0.00000000000E+00 0. -1.
         21   -1    0    0  502  503 -0.00000000000E+00 -0.00000000000E+00 -0.26792882935E+03  0.26792882935E+03  0.00000000000E+00 0. -1.
          6    1    1    2  501    0 -0.21809783943E+02  0.12887691345E+03 -0.72928027488E+02  0.22876280880E+03  0.17300000000E+03 0. -1.
         -6    1    1    2    0  503  0.21809783943E+02 -0.12887691345E+03 -0.16697871939E+02  0.21746895048E+03  0.17300000000E+03 0. -1.
</event>
<event>
 4    1  0.6132688E+000  0.1000000E+03  0.7546771E-02  0.1280296E+00
         21   -1    0    0  501  502  0.00000000000E+00  0.00000000000E+00  0.57615328809E+03  0.57615328809E+03  0.00000000000E+00 0. -1.
         21   -1    0    0  502  503 -0.00000000000E+00 -0.00000000000E+00 -0.64637211711E+02  0.64637211711E+02  0.00000000000E+00 0. -1.
          6    1    1    2  501    0 -0.15051756703E+02  0.68866533826E+02  0.33611845130E+03  0.38454358422E+03  0.17300000000E+03 0. -1.
         -6    1    1    2    0  503  0.15051756703E+02 -0.68866533826E+02  0.17539762508E+03  0.25624691558E+03  0.17300000000E+03 0. -1.
</event>
<event>
 4    1  0.6132688E+000  0.1000000E+03  0.7546771E-02  0.1280296E+00
         21   -1    0    0  501  502  0.00000000000E+00  0.00000000000E+00  0.10988967816E+03  0.10988967816E+03  0.00000000000E+00 0. -1.
         21   -1    0    0  502  503 -0.00000000000E+00 -0.00000000000E+00 -0.41027874132E+03  0.41027874132E+03  0.00000000000E+00 0. -1.
          6    1    1    2  501    0  0.31828031300E+02 -0.34185351121E+02 -0.10671690774E+02  0.17951196838E+03  0.17300000000E+03 0. -1.
         -6    1    1    2    0  503 -0.31828031300E+02  0.34185351121E+02 -0.28971737239E+03  0.34065645109E+03  0.17300000000E+03 0. -1.
</event>
<event>
 4    1  0.6132688E+000  0.1000000E+03  0.7546771E-02  0.1280296E+00
         21   -1    0    0  501  502  0.00000000000E+00  0.00000000000E+00  0.11807791036E+03  0.11807791036E+03  0.00000000000E+00 0. -1.
         21   -1    0    0  502  503 -0.00000000000E+00 -0.00000000000E+00 -0.36776038461E+03  0.36776038461E+03  0.00000000000E+00 0. -1.
          6    1    1    2  501    0  0.36894213416E+02  0.10860532608E+03 -0.10337555557E+03  0.23188748420E+03  0.17300000000E+03 0. -1.
         -6    1    1    2    0  503 -0.36894213416E+02 -0.10860532608E+03 -0.14630691868E+03  0.25395081077E+03  0.17300000000E+03 0. -1.
</event>
<event>
 4    1  0.6132688E+000  0.1000000E+03  0.7546771E-02  0.1280296E+00
         21   -1    0    0  501  502  0.00000000000E+00  0.00000000000E+00  0.94869440483E+02  0.94869440483E+02  0.00000000000E+00 0. -1.
         21   -1    0    0  502  503 -0.00000000000E+00 -0.00000000000E+00 -0.58007880481E+03  0.58007880481E+03  0.00000000000E+00 0. -1.
          6    1    1    2  501    0 -0.82358814290E+02 -0.42020698120E+01 -0.47986008921E+02  0.19756590985E+03  0.17300000000E+03 0. -1.
         -6    1    1    2    0  503  0.82358814290E+02  0.42020698120E+01 -0.43722335541E+03  0.47738233545E+03  0.17300000000E+03 0. -1.
</event>
<event>
 4    1  0.6132688E+000  0.1000000E+03  0.7546771E-02  0.1280296E+00
         21   -1    0    0  503  502  0.00000000000E+00  0.00000000000E+00  0.50367652069E+03  0.50367652069E+03  0.00000000000E+00 0.  1.
         21   -1    0    0  501  503 -0.00000000000E+00 -0.00000000000E+00 -0.12800255868E+03  0.12800255868E+03  0.00000000000E+00 0.  1.
          6    1    1    2  501    0 -0.80307551557E+02 -0.12913331731E+03  0.54920292374E+02  0.23679095209E+03  0.17300000000E+03 0.  1.
         -6    1    1    2    0  502  0.80307551557E+02  0.12913331731E+03  0.32075366964E+03  0.39488812728E+03  0.17300000000E+03 0.  1.
</event>
<event>
 4    1  0.6132688E+000  0.1000000E+03  0.7546771E-02  0.1280296E+00
         21   -1    0    0  503  502  0.00000000000E+00  0.00000000000E+00  0.77712583938E+03  0.77712583938E+03  0.00000000000E+00 0.  1.
         21   -1    0    0  501  503 -0.00000000000E+00 -0.00000000000E+00 -0.67474111895E+02  0.67474111895E+02  0.00000000000E+00 0.  1.
          6    1    1    2  501    0  0.26268243692E+02 -0.13791905485E+03  0.25732411091E+03  0.34037682702E+03  0.17300000000E+03 0.  1.
         -6    1    1    2    0  502 -0.26268243692E+02  0.13791905485E+03  0.45232761657E+03  0.50422312425E+03  0.17300000000E+03 0.  1.
</event>
<event>
 4    1  0.6132688E+000  0.1000000E+03  0.7546771E-02  0.1280296E+00
         21   -1    0    0  503  502  0.00000000000E+00  0.00000000000E+00  0.17312457263E+03  0.17312457263E+03  0.00000000000E+00 0. -1.
         21   -1    0    0  501  503 -0.00000000000E+00 -0.00000000000E+00 -0.23585736200E+03  0.23585736200E+03  0.00000000000E+00 0. -1.
          6    1    1    2  501    0  0.38926085068E+02 -0.17560625851E+02 -0.12779704909E+03  0.21928224150E+03  0.17300000000E+03 0. -1.
         -6    1    1    2    0  502 -0.38926085068E+02  0.17560625851E+02  0.65064259725E+02  0.18969969313E+03  0.17300000000E+03 0. -1.
</event>
<event>
 4    1  0.6132688E+000  0.1000000E+03  0.7546771E-02  0.1280296E+00
         21   -1    0    0  503  502  0.00000000000E+00  0.00000000000E+00  0.12385932720E+04  0.12385932720E+04  0.00000000000E+00 0. -1.
         21   -1    0    0  501  503 -0.00000000000E+00 -0.00000000000E+00 -0.79361147473E+02  0.79361147473E+02  0.00000000000E+00 0. -1.
          6    1    1    2  501    0 -0.21205700942E+03 -0.14507497194E+03  0.68155609867E+03  0.74864052679E+03  0.17300000000E+03 0. -1.
         -6    1    1    2    0  502  0.21205700942E+03  0.14507497194E+03  0.47767602589E+03  0.56931389271E+03  0.17300000000E+03 0. -1.
</event>
<event>
 4    1  0.6132688E+000  0.1000000E+03  0.7546771E-02  0.1280296E+00
         21   -1    0    0  503  502  0.00000000000E+00  0.00000000000E+00  0.43241001339E+03  0.43241001339E+03  0.00000000000E+00 0.  1.
         21   -1    0    0  501  503 -0.00000000000E+00 -0.00000000000E+00 -0.11952084728E+03  0.11952084728E+03  0.00000000000E+00 0.  1.
          6    1    1    2  501    0 -0.66873937255E+02  0.55377613284E+02  0.11718667051E+02  0.19392042361E+03  0.17300000000E+03 0. -1.
         -6    1    1    2    0  502  0.66873937255E+02 -0.55377613284E+02  0.30117049906E+03  0.35801043706E+03  0.17300000000E+03 0. -1.
</event>
<event>
 4    1  0.6132688E+000  0.1000000E+03  0.7546771E-02  0.1280296E+00
         21   -1    0    0  503  502  0.00000000000E+00  0.00000000000E+00  0.18509428901E+03  0.18509428901E+03  0.00000000000E+00 0.  1.
         21   -1    0    0  501  503 -0.00000000000E+00 -0.00000000000E+00 -0.47159723342E+03  0.47159723342E+03  0.00000000000E+00 0.  1.
          6    1    1    2  501    0 -0.26933552499E+02  0.78773231785E+02 -0.39282305102E+03  0.43722944515E+03  0.17300000000E+03 0. -1.
         -6    1    1    2    0  502  0.26933552499E+02 -0.78773231785E+02  0.10632010661E+03  0.21946207728E+03  0.17300000000E+03 0. -1.
</event>
<event>
 4    1  0.6132688E+000  0.1000000E+03  0.7546771E-02  0.1280296E+00
         21   -1    0    0  501  502  0.00000000000E+00  0.00000000000E+00  0.90019291046E+02  0.90019291046E+02  0.00000000000E+00 0.  1.
         21   -1    0    0  502  503 -0.00000000000E+00 -0.00000000000E+00 -0.75780030447E+03  0.75780030447E+03  0.00000000000E+00 0.  1.
          6    1    1    2  501    0  0.13466971617E+03  0.24162797779E+02 -0.10685170699E+03  0.24508378269E+03  0.17300000000E+03 0. -1.
         -6    1    1    2    0  503 -0.13466971617E+03 -0.24162797779E+02 -0.56092930644E+03  0.60273581283E+03  0.17300000000E+03 0. -1.
</event>
<event>
 4    1  0.6132688E+000  0.1000000E+03  0.7546771E-02  0.1280296E+00
         21   -1    0    0  501  502  0.00000000000E+00  0.00000000000E+00  0.19009288730E+03  0.19009288730E+03  0.00000000000E+00 0.  1.
         21   -1    0    0  502  503 -0.00000000000E+00 -0.00000000000E+00 -0.58257111810E+03  0.58257111810E+03  0.00000000000E+00 0.  1.
          6    1    1    2  501    0 -0.31147416009E+02  0.24583875504E+03 -0.34513088944E+02  0.30418252467E+03  0.17300000000E+03 0. -1.
         -6    1    1    2    0  503  0.31147416009E+02 -0.24583875504E+03 -0.35796514185E+03  0.46848148073E+03  0.17300000000E+03 0. -1.
</event>
<event>
 4    1  0.6132688E+000  0.1000000E+03  0.7546771E-02  0.1280296E+00
         21   -1    0    0  503  502  0.00000000000E+00  0.00000000000E+00  0.95181475294E+02  0.95181475294E+02  0.00000000000E+00 0.  1.
         21   -1    0    0  501  503 -0.00000000000E+00 -0.00000000000E+00 -0.43633341286E+03  0.43633341286E+03  0.00000000000E+00 0.  1.
          6    1    1    2  501    0 -0.33085355747E+01 -0.41928938650E+02 -0.29988839504E+03  0.34875640752E+03  0.17300000000E+03 0.  1.
         -6    1    1    2    0  502  0.33085355747E+01  0.41928938650E+02 -0.41263542528E+02  0.18275848064E+03  0.17300000000E+03 0.  1.
</event>
<event>
 4    1  0.6132688E+000  0.1000000E+03  0.7546771E-02  0.1280296E+00
         21   -1    0    0  503  502  0.00000000000E+00  0.00000000000E+00  0.23250611133E+03  0.23250611133E+03  0.00000000000E+00 0. -1.
         21   -1    0    0  501  503 -0.00000000000E+00 -0.00000000000E+00 -0.35440571420E+03  0.35440571420E+03  0.00000000000E+00 0. -1.
          6    1    1    2  501    0 -0.67860867130E+02  0.34913037838E+02 -0.28174725210E+03  0.33931479715E+03  0.17300000000E+03 0. -1.
         -6    1    1    2    0  502  0.67860867130E+02 -0.34913037838E+02  0.15984764923E+03  0.24759702838E+03  0.17300000000E+03 0. -1.
</event>
<event>
 4    1  0.6132688E+000  0.1000000E+03  0.7546771E-02  0.1280296E+00
         21   -1    0    0  503  502  0.00000000000E+00  0.00000000000E+00  0.76321362386E+03  0.76321362386E+03  0.00000000000E+00 0. -1.
         21   -1    0    0  501  503 -0.00000000000E+00 -0.00000000000E+00 -0.13013041332E+03  0.13013041332E+03  0.00000000000E+00 0. -1.
          6    1    1    2  501    0  0.11341693044E+03 -0.44306446214E+01 -0.20373728130E+02  0.20791132610E+03  0.17300000000E+03 0. -1.
         -6    1    1    2    0  502 -0.11341693044E+03  0.44306446214E+01  0.65345693867E+03  0.68543271108E+03  0.17300000000E+03 0. -1.
</event>
<event>
 4    1  0.6132688E+000  0.1000000E+03  0.7546771E-02  0.1280296E+00
         21   -1    0    0  501  502  0.00000000000E+00  0.00000000000E+00  0.29817530802E+02  0.29817530802E+02  0.00000000000E+00 0.  1.
         21   -1    0    0  502  503 -0.00000000000E+00 -0.00000000000E+00 -0.16239596110E+04  0.16239596110E+04  0.00000000000E+00 0.  1.
          6    1    1    2  501    0 -0.11445795866E+03  0.45834576660E+02 -0.58146762817E+03  0.61905979948E+03  0.17300000000E+03 0.  1.
         -6    1    1    2    0  503  0.11445795866E+03 -0.45834576660E+02 -0.10126744520E+04  0.10347173423E+04  0.17300000000E+03 0.  1.
</event>
<event>
 4    1  0.6132688E+000  0.1000000E+03  0.7546771E-02  0.1280296E+00
         21   -1    0    0  501  502  0.00000000000E+00  0.00000000000E+00  0.48256009474E+03  0.48256009474E+03  0.00000000000E+00 0.  1.
         21   -1    0    0  502  503 -0.00000000000E+00 -0.00000000000E+00 -0.66264820172E+03  0.66264820172E+03  0.00000000000E+00 0. -1.
          6    1    1    2  501    0 -0.28723476862E+03 -0.13877050869E+03  0.34909869101E+03  0.50354737856E+03  0.17300000000E+03 0.  1.
         -6    1    1    2    0  503  0.28723476862E+03  0.13877050869E+03 -0.52918679800E+03  0.64166091790E+03  0.17300000000E+03 0. -1.
</event>
<event>
 4    1  0.6132688E+000  0.1000000E+03  0.7546771E-02  0.1280296E+00
         21   -1    0    0  501  502  0.00000000000E+00  0.00000000000E+00  0.16358956723E+03  0.16358956723E+03  0.00000000000E+00 0.  1.
         21   -1    0    0  502  503 -0.00000000000E+00 -0.00000000000E+00 -0.27509974584E+03  0.27509974584E+03  0.00000000000E+00 0. -1.
          6    1    1    2  501    0 -0.51649728379E+02 -0.10956755394E+03 -0.76478336519E+02  0.22461228656E+03  0.17300000000E+03 0.  1.
         -6    1    1    2    0  503  0.51649728379E+02  0.10956755394E+03 -0.35031842088E+02  0.21407702651E+03  0.17300000000E+03 0. -1.
</event>
<event>
 4    1  0.6132688E+000  0.1000000E+03  0.7546771E-02  0.1280296E+00
         21   -1    0    0  501  502  0.00000000000E+00  0.00000000000E+00  0.49936019103E+03  0.49936019103E+03  0.00000000000E+00 0.  1.
         21   -1    0    0  502  503 -0.00000000000E+00 -0.00000000000E+00 -0.12205688397E+03  0.12205688397E+03  0.00000000000E+00 0. -1.
          6    1    1    2  501    0 -0.12417977100E+03 -0.25053538820E+02  0.34651810613E+02  0.21720507202E+03  0.17300000000E+03 0. -1.
         -6    1    1    2    0  503  0.12417977100E+03  0.25053538820E+02  0.34265149645E+03  0.40421200298E+03  0.17300000000E+03 0.  1.
</event>
<event>
 4    1  0.6132688E+000  0.1000000E+03  0.7546771E-02  0.1280296E+00
         21   -1    0    0  501  502  0.00000000000E+00  0.00000000000E+00  0.11632424974E+03  0.11632424974E+03  0.00000000000E+00 0.  1.
         21   -1    0    0  502  503 -0.00000000000E+00 -0.00000000000E+00 -0.46674688597E+03  0.46674688597E+03  0.00000000000E+00 0. -1.
          6    1    1    2  501    0 -0.91141968393E+02 -0.71392417565E+02 -0.44219051322E+02  0.21280991562E+03  0.17300000000E+03 0.  1.
         -6    1    1    2    0  503  0.91141968393E+02  0.71392417565E+02 -0.30620358491E+03  0.37026122008E+03  0.17300000000E+03 0. -1.
</event>
<event>
 4    1  0.6132688E+000  0.1000000E+03  0.7546771E-02  0.1280296E+00
         21   -1    0    0  501  502  0.00000000000E+00  0.00000000000E+00  0.93067110080E+02  0.93067110080E+02  0.00000000000E+00 0.  1.
         21   -1    0    0  502  503 -0.00000000000E+00 -0.00000000000E+00 -0.85575424940E+03  0.85575424940E+03  0.00000000000E+00 0. -1.
          6    1    1    2  501    0  0.17538160044E+03 -0.13694745060E+03 -0.35755412720E+03  0.45528811084E+03  0.17300000000E+03 0.  1.
         -6    1    1    2    0  503 -0.17538160044E+03  0.13694745060E+03 -0.40513301212E+03  0.49353324863E+03  0.17300000000E+03 0. -1.
</event>
<event>
 4    1  0.6132688E+000  0.1000000E+03  0.7546771E-02  0.1280296E+00
         21   -1    0    0  501  502  0.00000000000E+00  0.00000000000E+00  0.46233007631E+03  0.46233007631E+03  0.00000000000E+00 0.  1.
         21   -1    0    0  502  503 -0.00000000000E+00 -0.00000000000E+00 -0.25262408923E+03  0.25262408923E+03  0.00000000000E+00 0. -1.
          6    1    1    2  501    0  0.12780266801E+03  0.83308883756E+02  0.36863113352E+03  0.43484687496E+03  0.17300000000E+03 0.  1.
         -6    1    1    2    0  503 -0.12780266801E+03 -0.83308883756E+02 -0.15892514645E+03  0.28010729058E+03  0.17300000000E+03 0. -1.
</event>
<event>
 4    1  0.6132688E+000  0.1000000E+03  0.7546771E-02  0.1280296E+00
         21   -1    0    0  501  502  0.00000000000E+00  0.00000000000E+00  0.40603126178E+03  0.40603126178E+03  0.00000000000E+00 0. -1.
         21   -1    0    0  502  503 -0.00000000000E+00 -0.00000000000E+00 -0.12325494656E+03  0.12325494656E+03  0.00000000000E+00 0.  1.
          6    1    1    2  501    0 -0.66452822158E+02  0.99801328090E+02  0.23101489644E+03  0.31252706289E+03  0.17300000000E+03 0.  1.
         -6    1    1    2    0  503  0.66452822158E+02 -0.99801328090E+02  0.51761418789E+02  0.21675914545E+03  0.17300000000E+03 0. -1.
</event>
<event>
 4    1  0.6132688E+000  0.1000000E+03  0.7546771E-02  0.1280296E+00
         21   -1    0    0  501  502  0.00000000000E+00  0.00000000000E+00  0.55774851621E+02  0.55774851621E+02  0.00000000000E+00 0. -1.
         21   -1    0    0  502  503 -0.00000000000E+00 -0.00000000000E+00 -0.89152982253E+03  0.89152982253E+03  0.00000000000E+00 0.  1.
          6    1    1    2  501    0  0.13117525594E+03  0.49202790425E+02 -0.39033950301E+03  0.44935708515E+03  0.17300000000E+03 0.  1.
         -6    1    1    2    0  503 -0.13117525594E+03 -0.49202790425E+02 -0.44541546790E+03  0.49794758901E+03  0.17300000000E+03 0. -1.
</event>
<event>
 4    1  0.6132688E+000  0.1000000E+03  0.7546771E-02  0.1280296E+00
         21   -1    0    0  501  502  0.00000000000E+00  0.00000000000E+00  0.10678347980E+04  0.10678347980E+04  0.00000000000E+00 0. -1.
         21   -1    0    0  502  503 -0.00000000000E+00 -0.00000000000E+00 -0.39391896453E+02  0.39391896453E+02  0.00000000000E+00 0.  1.
          6    1    1    2  501    0  0.33551737454E+02  0.38404603950E+02  0.77779260162E+03  0.79843031244E+03  0.17300000000E+03 0.  1.
         -6    1    1    2    0  503 -0.33551737454E+02 -0.38404603950E+02  0.25065029994E+03  0.30879638202E+03  0.17300000000E+03 0. -1.
</event>
<event>
 4    1  0.6132688E+000  0.1000000E+03  0.7546771E-02  0.1280296E+00
         21   -1    0    0  501  502  0.00000000000E+00  0.00000000000E+00  0.11895453670E+04  0.11895453670E+04  0.00000000000E+00 0.  1.
         21   -1    0    0  502  503 -0.00000000000E+00 -0.00000000000E+00 -0.62073741481E+02  0.62073741481E+02  0.00000000000E+00 0. -1.
          6    1    1    2  501    0 -0.18888914871E+03  0.80812671660E+02  0.65871223732E+03  0.71136531402E+03  0.17300000000E+03 0.  1.
         -6    1    1    2    0  503  0.18888914871E+03 -0.80812671660E+02  0.46875938820E+03  0.54025379446E+03  0.17300000000E+03 0. -1.
</event>
<event>
 4    1  0.6132688E+000  0.1000000E+03  0.7546771E-02  0.1280296E+00
         21   -1    0    0  501  502  0.00000000000E+00  0.00000000000E+00  0.80582617428E+02  0.80582617428E+02  0.00000000000E+00 0.  1.
         21   -1    0    0  502  503 -0.00000000000E+00 -0.00000000000E+00 -0.61355790325E+03  0.61355790325E+03  0.00000000000E+00 0. -1.
          6    1    1    2  501    0  0.96696620915E+02  0.21583508396E+02 -0.11278263129E+03  0.22905240940E+03  0.17300000000E+03 0.  1.
         -6    1    1    2    0  503 -0.96696620915E+02 -0.21583508396E+02 -0.42019265453E+03  0.46508811127E+03  0.17300000000E+03 0. -1.
</event>
<event>
 4    1  0.6132688E+000  0.1000000E+03  0.7546771E-02  0.1280296E+00
         21   -1    0    0  501  502  0.00000000000E+00  0.00000000000E+00  0.23706781651E+03  0.23706781651E+03  0.00000000000E+00 0.  1.
         21   -1    0    0  502  503 -0.00000000000E+00 -0.00000000000E+00 -0.13358685835E+03  0.13358685835E+03  0.00000000000E+00 0. -1.
          6    1    1    2  501    0  0.23078327085E+02  0.44004266475E+01  0.15843247672E+02  0.17530539476E+03  0.17300000000E+03 0.  1.
         -6    1    1    2    0  503 -0.23078327085E+02 -0.44004266475E+01  0.87637710489E+02  0.19534928010E+03  0.17300000000E+03 0. -1.
</event>
<event>
 4    1  0.6132688E+000  0.1000000E+03  0.7546771E-02  0.1280296E+00
         21   -1    0    0  501  502  0.00000000000E+00  0.00000000000E+00  0.11438057988E+03  0.11438057988E+03  0.00000000000E+00 0.  1.
         21   -1    0    0  502  503 -0.00000000000E+00 -0.00000000000E+00 -0.35771104589E+03  0.35771104589E+03  0.00000000000E+00 0. -1.
          6    1    1    2  501    0 -0.93041112651E+02 -0.23117422685E+02 -0.72222520133E+02  0.21056152614E+03  0.17300000000E+03 0.  1.
         -6    1    1    2    0  503  0.93041112651E+02  0.23117422685E+02 -0.17110794587E+03  0.26153009963E+03  0.17300000000E+03 0. -1.
</event>
<event>
 4    1  0.6132688E+000  0.1000000E+03  0.7546771E-02  0.1280296E+00
         21   -1    0    0  503  502  0.00000000000E+00  0.00000000000E+00  0.87268780764E+02  0.87268780764E+02  0.00000000000E+00 0.  1.
         21   -1    0    0  501  503 -0.00000000000E+00 -0.00000000000E+00 -0.63321982809E+03  0.63321982809E+03  0.00000000000E+00 0.  1.
          6    1    1    2  501    0 -0.26053976295E+02  0.13968887681E+03 -0.38283869579E+03  0.44349324570E+03  0.17300000000E+03 0.  1.
         -6    1    1    2    0  502  0.26053976295E+02 -0.13968887681E+03 -0.16311235154E+03  0.27699536316E+03  0.17300000000E+03 0.  1.
</event>
<event>
 4    1  0.6132688E+000  0.1000000E+03  0.7546771E-02  0.1280296E+00
         21   -1    0    0  503  502  0.00000000000E+00  0.00000000000E+00  0.14341433151E+03  0.14341433151E+03  0.00000000000E+00 0.  1.
         21   -1    0    0  501  503 -0.00000000000E+00 -0.00000000000E+00 -0.38529961749E+03  0.38529961749E+03  0.00000000000E+00 0.  1.
          6    1    1    2  501    0  0.82478837579E+01  0.91214319885E+02 -0.26731434804E+03  0.33132165702E+03  0.17300000000E+03 0.  1.
         -6    1    1    2    0  502 -0.82478837579E+01 -0.91214319885E+02  0.25429062067E+02  0.19739229199E+03  0.17300000000E+03 0.  1.
</event>
<event>
 4    1  0.6132688E+000  0.1000000E+03  0.7546771E-02  0.1280296E+00
         21   -1    0    0  503  502  0.00000000000E+00  0.00000000000E+00  0.62865866002E+03  0.62865866002E+03  0.00000000000E+00 0.  1.
         21   -1    0    0  501  503 -0.00000000000E+00 -0.00000000000E+00 -0.17113841642E+03  0.17113841642E+03  0.00000000000E+00 0.  1.
          6    1    1    2  501    0  0.23590956927E+03 -0.41221004934E+02  0.55027081018E+02  0.30051535030E+03  0.17300000000E+03 0.  1.
         -6    1    1    2    0  502 -0.23590956927E+03  0.41221004934E+02  0.40249316259E+03  0.49928172613E+03  0.17300000000E+03 0.  1.
</event>
<event>
 4    1  0.6132688E+000  0.1000000E+03  0.7546771E-02  0.1280296E+00
         21   -1    0    0  503  502  0.00000000000E+00  0.00000000000E+00  0.34367555722E+02  0.34367555722E+02  0.00000000000E+00 0.  1.
         21   -1    0    0  501  503 -0.00000000000E+00 -0.00000000000E+00 -0.11813584231E+04  0.11813584231E+04  0.00000000000E+00 0.  1.
          6    1    1    2  501    0  0.95431980246E+02 -0.36453048217E+02 -0.61977233683E+03  0.65152347393E+03  0.17300000000E+03 0.  1.
         -6    1    1    2    0  502 -0.95431980246E+02  0.36453048217E+02 -0.52721853056E+03  0.56420250491E+03  0.17300000000E+03 0.  1.
</event>
<event>
 4    1  0.6132688E+000  0.1000000E+03  0.7546771E-02  0.1280296E+00
         21   -1    0    0  503  502  0.00000000000E+00  0.00000000000E+00  0.48045342929E+03  0.48045342929E+03  0.00000000000E+00 0.  1.
         21   -1    0    0  501  503 -0.00000000000E+00 -0.00000000000E+00 -0.21320982928E+03  0.21320982928E+03  0.00000000000E+00 0.  1.
          6    1    1    2  501    0 -0.11632893269E+03 -0.23266506686E+03  0.20903440930E+03  0.37588540566E+03  0.17300000000E+03 0.  1.
         -6    1    1    2    0  502  0.11632893269E+03  0.23266506686E+03  0.58209190706E+02  0.31777785291E+03  0.17300000000E+03 0.  1.
</event>
<event>
 4    1  0.6132688E+000  0.1000000E+03  0.7546771E-02  0.1280296E+00
         21   -1    0    0  501  502  0.00000000000E+00  0.00000000000E+00  0.15799125085E+03  0.15799125085E+03  0.00000000000E+00 0.  1.
         21   -1    0    0  502  503 -0.00000000000E+00 -0.00000000000E+00 -0.40224245393E+03  0.40224245393E+03  0.00000000000E+00 0.  1.
          6    1    1    2  501    0  0.12948645258E+03 -0.11106420233E+03 -0.19682857603E+03  0.31268592354E+03  0.17300000000E+03 0.  1.
         -6    1    1    2    0  503 -0.12948645258E+03  0.11106420233E+03 -0.47422627049E+02  0.24754778124E+03  0.17300000000E+03 0.  1.
</event>
<event>
 4    1  0.6132688E+000  0.1000000E+03  0.7546771E-02  0.1280296E+00
         21   -1    0    0  501  502  0.00000000000E+00  0.00000000000E+00  0.70448041953E+02  0.70448041953E+02  0.00000000000E+00 0.  1.
         21   -1    0    0  502  503 -0.00000000000E+00 -0.00000000000E+00 -0.56734802026E+03  0.56734802026E+03  0.00000000000E+00 0. -1.
          6    1    1    2  501    0 -0.26214865062E+02  0.89793405756E+02 -0.19117034788E+03  0.27427208530E+03  0.17300000000E+03 0. -1.
         -6    1    1    2    0  503  0.26214865062E+02 -0.89793405756E+02 -0.30572963043E+03  0.36352397691E+03  0.17300000000E+03 0. -1.
</event>
<event>
 4    1  0.6132688E+000  0.1000000E+03  0.7546771E-02  0.1280296E+00
         21   -1    0    0  501  502  0.00000000000E+00  0.00000000000E+00  0.70291931450E+02  0.70291931450E+02  0.00000000000E+00 0.  1.
         21   -1    0    0  502  503 -0.00000000000E+00 -0.00000000000E+00 -0.87880717858E+03  0.87880717858E+03  0.00000000000E+00 0.  1.
          6    1    1    2  501    0  0.77495739629E+02  0.65815323615E+02 -0.12424990193E+03  0.23601755149E+03  0.17300000000E+03 0.  1.
         -6    1    1    2    0  503 -0.77495739629E+02 -0.65815323615E+02 -0.68426534520E+03  0.71308155854E+03  0.17300000000E+03 0.  1.
</event>
<event>
 4    1  0.6132688E+000  0.1000000E+03  0.7546771E-02  0.1280296E+00
         21   -1    0    0  501  502  0.00000000000E+00  0.00000000000E+00  0.11513882886E+03  0.11513882886E+03  0.00000000000E+00 0.  1.
         21   -1    0    0  502  503 -0.00000000000E+00 -0.00000000000E+00 -0.41899406016E+03  0.41899406016E+03  0.00000000000E+00 0.  1.
          6    1    1    2  501    0  0.75901185237E+02 -0.11122157588E+03 -0.16834281001E+03  0.27640465000E+03  0.17300000000E+03 0.  1.
         -6    1    1    2    0  503 -0.75901185237E+02  0.11122157588E+03 -0.13551242129E+03  0.25772823901E+03  0.17300000000E+03 0.  1.
</event>
<event>
 4    1  0.6132688E+000  0.1000000E+03  0.7546771E-02  0.1280296E+00
         21   -1    0    0  501  502  0.00000000000E+00  0.00000000000E+00  0.11819384103E+04  0.11819384103E+04  0.00000000000E+00 0.  1.
         21   -1    0    0  502  503 -0.00000000000E+00 -0.00000000000E+00 -0.30971801375E+02  0.30971801375E+02  0.00000000000E+00 0.  1.
          6    1    1    2  501    0 -0.82044022316E+00  0.63401155313E+02  0.73888065142E+03  0.76150771281E+03  0.17300000000E+03 0.  1.
         -6    1    1    2    0  503  0.82044022316E+00 -0.63401155313E+02  0.41208595755E+03  0.45140249891E+03  0.17300000000E+03 0.  1.
</event>
<event>
 4    1  0.6132688E+000  0.1000000E+03  0.7546771E-02  0.1280296E+00
         21   -1    0    0  501  502  0.00000000000E+00  0.00000000000E+00  0.25285561418E+03  0.25285561418E+03  0.00000000000E+00 0.  1.
         21   -1    0    0  502  503 -0.00000000000E+00 -0.00000000000E+00 -0.37679714521E+03  0.37679714521E+03  0.00000000000E+00 0.  1.
          6    1    1    2  501    0 -0.53110388736E+02  0.73500503405E+01  0.19295991683E+03  0.26464554811E+03  0.17300000000E+03 0.  1.
         -6    1    1    2    0  503  0.53110388736E+02 -0.73500503405E+01 -0.31690144786E+03  0.36500721128E+03  0.17300000000E+03 0.  1.
</event>
<event>
 4    1  0.6132688E+000  0.1000000E+03  0.7546771E-02  0.1280296E+00
         21   -1    0    0  501  502  0.00000000000E+00  0.00000000000E+00  0.14302991019E+03  0.14302991019E+03  0.00000000000E+00 0.  1.
         21   -1    0    0  502  503 -0.00000000000E+00 -0.00000000000E+00 -0.37369259666E+03  0.37369259666E+03  0.00000000000E+00 0.  1.
          6    1    1    2  501    0 -0.14188346019E+03 -0.57914538328E+02 -0.10870031981E+03  0.25540119333E+03  0.17300000000E+03 0.  1.
         -6    1    1    2    0  503  0.14188346019E+03  0.57914538328E+02 -0.12196236665E+03  0.26132131353E+03  0.17300000000E+03 0.  1.
</event>
<event>
 4    1  0.6132688E+000  0.1000000E+03  0.7546771E-02  0.1280296E+00
         21   -1    0    0  501  502  0.00000000000E+00  0.00000000000E+00  0.12090697239E+03  0.12090697239E+03  0.00000000000E+00 0. -1.
         21   -1    0    0  502  503 -0.00000000000E+00 -0.00000000000E+00 -0.67603182514E+03  0.67603182514E+03  0.00000000000E+00 0. -1.
          6    1    1    2  501    0  0.16459598553E+03  0.93445290300E+02 -0.10135271848E+03  0.27572673841E+03  0.17300000000E+03 0. -1.
         -6    1    1    2    0  503 -0.16459598553E+03 -0.93445290300E+02 -0.45377213427E+03  0.52121205912E+03  0.17300000000E+03 0. -1.
</event>
