<event>
 4    1  0.5821292E+000  0.1000000E+03  0.7546771E-02  0.1280296E+00
         21   -1    0    0  503  502  0.00000000000E+00  0.00000000000E+00  0.13210984110E+04  0.13210984110E+04  0.00000000000E+00 0.  1.
         21   -1    0    0  501  503 -0.00000000000E+00 -0.00000000000E+00 -0.28459535340E+02  0.28459535340E+02  0.00000000000E+00 0.  1.
          6    1    1    2  501    0 -0.26293424377E+01 -0.84765715157E+02  0.57033829493E+03  0.60200241741E+03  0.17300000000E+03 0.  1.
         -6    1    1    2    0  502  0.26293424377E+01  0.84765715157E+02  0.72230058076E+03  0.74755552896E+03  0.17300000000E+03 0.  1.
</event>
<event>
 4    1  0.5821292E+000  0.1000000E+03  0.7546771E-02  0.1280296E+00
         21   -1    0    0  501  502  0.00000000000E+00  0.00000000000E+00  0.19187540712E+04  0.19187540712E+04  0.00000000000E+00 0. -1.
         21   -1    0    0  502  503 -0.00000000000E+00 -0.00000000000E+00 -0.18843405502E+02  0.18843405502E+02  0.00000000000E+00 0.  1.
          6    1    1    2  501    0 -0.72512501562E+00  0.53097398451E+02  0.12473480798E+04  0.12604071135E+04  0.17300000000E+03 0. -1.
         -6    1    1    2    0  503  0.72512501562E+00 -0.53097398451E+02  0.65256258593E+03  0.67719036325E+03  0.17300000000E+03 0.  1.
</event>
<event>
 4    1  0.5821292E+000  0.1000000E+03  0.7546771E-02  0.1280296E+00
         21   -1    0    0  501  502  0.00000000000E+00  0.00000000000E+00  0.34423341790E+03  0.34423341790E+03  0.00000000000E+00 0. -1.
         21   -1    0    0  502  503 -0.00000000000E+00 -0.00000000000E+00 -0.19271936235E+03  0.19271936235E+03  0.00000000000E+00 0.  1.
          6    1    1    2  501    0 -0.63793330594E+01  0.19070911866E+03  0.74835872398E+02  0.26821646413E+03  0.17300000000E+03 0. -1.
         -6    1    1    2    0  503  0.63793330594E+01 -0.19070911866E+03  0.76678183154E+02  0.26873631612E+03  0.17300000000E+03 0.  1.
</event>
<event>
 4    1  0.5821292E+000  0.1000000E+03  0.7546771E-02  0.1280296E+00
         21   -1    0    0  501  502  0.00000000000E+00  0.00000000000E+00  0.18180829864E+03  0.18180829864E+03  0.00000000000E+00 0. -1.
         21   -1    0    0  502  503 -0.00000000000E+00 -0.00000000000E+00 -0.38677433001E+03  0.38677433001E+03  0.00000000000E+00 0.  1.
          6    1    1    2  501    0 -0.61048373575E+02  0.72131123530E+02  0.87671717405E+02  0.21574321062E+03  0.17300000000E+03 0. -1.
         -6    1    1    2    0  503  0.61048373575E+02 -0.72131123530E+02 -0.29263774878E+03  0.35283941802E+03  0.17300000000E+03 0.  1.
</event>
<event>
 4    1  0.5821292E+000  0.1000000E+03  0.7546771E-02  0.1280296E+00
         21   -1    0    0  501  502  0.00000000000E+00  0.00000000000E+00  0.26625253354E+03  0.26625253354E+03  0.00000000000E+00 0. -1.
         21   -1    0    0  502  503 -0.00000000000E+00 -0.00000000000E+00 -0.45254793498E+03  0.45254793498E+03  0.00000000000E+00 0.  1.
          6    1    1    2  501    0  0.70989984482E+02  0.14162795123E+03  0.17176556509E+03  0.29074123171E+03  0.17300000000E+03 0. -1.
         -6    1    1    2    0  503 -0.70989984482E+02 -0.14162795123E+03 -0.35806096653E+03  0.42805923681E+03  0.17300000000E+03 0.  1.
</event>
<event>
 4    1  0.5821292E+000  0.1000000E+03  0.7546771E-02  0.1280296E+00
         21   -1    0    0  501  502  0.00000000000E+00  0.00000000000E+00  0.33567824655E+03  0.33567824655E+03  0.00000000000E+00 0. -1.
         21   -1    0    0  502  503 -0.00000000000E+00 -0.00000000000E+00 -0.26161106798E+03  0.26161106798E+03  0.00000000000E+00 0.  1.
          6    1    1    2  501    0  0.12077646825E+03  0.67098199794E+02  0.23554042968E+03  0.32326060340E+03  0.17300000000E+03 0. -1.
         -6    1    1    2    0  503 -0.12077646825E+03 -0.67098199794E+02 -0.16147325111E+03  0.27402871113E+03  0.17300000000E+03 0.  1.
</event>
<event>
 4    1  0.5821292E+000  0.1000000E+03  0.7546771E-02  0.1280296E+00
         21   -1    0    0  501  502  0.00000000000E+00  0.00000000000E+00  0.64096489880E+03  0.64096489880E+03  0.00000000000E+00 0.  1.
         21   -1    0    0  502  503 -0.00000000000E+00 -0.00000000000E+00 -0.15841043144E+03  0.15841043144E+03  0.00000000000E+00 0. -1.
          6    1    1    2  501    0  0.19964929253E+02 -0.26515507289E+03  0.27892207317E+03  0.42241251636E+03  0.17300000000E+03 0.  1.
         -6    1    1    2    0  503 -0.19964929253E+02  0.26515507289E+03  0.20363239419E+03  0.37696281387E+03  0.17300000000E+03 0. -1.
</event>
<event>
 4    1  0.5821292E+000  0.1000000E+03  0.7546771E-02  0.1280296E+00
         21   -1    0    0  501  502  0.00000000000E+00  0.00000000000E+00  0.22512259467E+03  0.22512259467E+03  0.00000000000E+00 0.  1.
         21   -1    0    0  502  503 -0.00000000000E+00 -0.00000000000E+00 -0.20560266610E+04  0.20560266610E+04  0.00000000000E+00 0. -1.
          6    1    1    2  501    0  0.22541621091E+03 -0.30439720894E+02  0.11961993917E+03  0.30980150838E+03  0.17300000000E+03 0.  1.
         -6    1    1    2    0  503 -0.22541621091E+03  0.30439720894E+02 -0.19505240055E+04  0.19713477473E+04  0.17300000000E+03 0. -1.
</event>
<event>
 4    1  0.5821292E+000  0.1000000E+03  0.7546771E-02  0.1280296E+00
         21   -1    0    0  503  502  0.00000000000E+00  0.00000000000E+00  0.28171709899E+03  0.28171709899E+03  0.00000000000E+00 0.  1.
         21   -1    0    0  501  503 -0.00000000000E+00 -0.00000000000E+00 -0.30686571159E+03  0.30686571159E+03  0.00000000000E+00 0. -1.
          6    1    1    2  501    0 -0.44800421320E+02  0.50833640537E+02 -0.24066235549E+03  0.30403701437E+03  0.17300000000E+03 0. -1.
         -6    1    1    2    0  502  0.44800421320E+02 -0.50833640537E+02  0.21551374289E+03  0.28454579620E+03  0.17300000000E+03 0.  1.
</event>
<event>
 4    1  0.5821292E+000  0.1000000E+03  0.7546771E-02  0.1280296E+00
         21   -1    0    0  503  502  0.00000000000E+00  0.00000000000E+00  0.17097614453E+03  0.17097614453E+03  0.00000000000E+00 0.  1.
         21   -1    0    0  501  503 -0.00000000000E+00 -0.00000000000E+00 -0.33828946905E+03  0.33828946905E+03  0.00000000000E+00 0. -1.
          6    1    1    2  501    0 -0.34254264683E+02  0.11043143650E+03 -0.21133405788E+03  0.29657973774E+03  0.17300000000E+03 0. -1.
         -6    1    1    2    0  502  0.34254264683E+02 -0.11043143650E+03  0.44020733372E+02  0.21268587584E+03  0.17300000000E+03 0.  1.
</event>
<event>
 4    1  0.5821292E+000  0.1000000E+03  0.7546771E-02  0.1280296E+00
         21   -1    0    0  503  502  0.00000000000E+00  0.00000000000E+00  0.13517463318E+03  0.13517463318E+03  0.00000000000E+00 0. -1.
         21   -1    0    0  501  503 -0.00000000000E+00 -0.00000000000E+00 -0.38114096281E+03  0.38114096281E+03  0.00000000000E+00 0. -1.
          6    1    1    2  501    0  0.56804233931E+02 -0.22602821725E+02 -0.27495474266E+03  0.33055516794E+03  0.17300000000E+03 0.  1.
         -6    1    1    2    0  502 -0.56804233931E+02  0.22602821725E+02  0.28988413029E+02  0.18576042806E+03  0.17300000000E+03 0.  1.
</event>
<event>
 4    1  0.5821292E+000  0.1000000E+03  0.7546771E-02  0.1280296E+00
         21   -1    0    0  503  502  0.00000000000E+00  0.00000000000E+00  0.16248369497E+03  0.16248369497E+03  0.00000000000E+00 0. -1.
         21   -1    0    0  501  503 -0.00000000000E+00 -0.00000000000E+00 -0.28031849324E+03  0.28031849324E+03  0.00000000000E+00 0. -1.
          6    1    1    2  501    0 -0.98919236924E+02 -0.75832320305E+02 -0.68347437035E+02  0.22391053657E+03  0.17300000000E+03 0.  1.
         -6    1    1    2    0  502  0.98919236924E+02  0.75832320305E+02 -0.49487361239E+02  0.21889165164E+03  0.17300000000E+03 0.  1.
</event>
<event>
 4    1  0.5821292E+000  0.1000000E+03  0.7546771E-02  0.1280296E+00
         21   -1    0    0  501  502  0.00000000000E+00  0.00000000000E+00  0.42341966632E+03  0.42341966632E+03  0.00000000000E+00 0. -1.
         21   -1    0    0  502  503 -0.00000000000E+00 -0.00000000000E+00 -0.12643052019E+03  0.12643052019E+03  0.00000000000E+00 0.  1.
          6    1    1    2  501    0 -0.25539591327E+02  0.16984430896E+02  0.32737618390E+03  0.37154395083E+03  0.17300000000E+03 0. -1.
         -6    1    1    2    0  503  0.25539591327E+02 -0.16984430896E+02 -0.30387037762E+02  0.17830623568E+03  0.17300000000E+03 0.  1.
</event>
<event>
 4    1  0.5821292E+000  0.1000000E+03  0.7546771E-02  0.1280296E+00
         21   -1    0    0  501  502  0.00000000000E+00  0.00000000000E+00  0.10051504349E+04  0.10051504349E+04  0.00000000000E+00 0. -1.
         21   -1    0    0  502  503 -0.00000000000E+00 -0.00000000000E+00 -0.48890502954E+02  0.48890502954E+02  0.00000000000E+00 0.  1.
          6    1    1    2  501    0  0.11123881100E+03  0.30334663985E+02  0.66103494726E+03  0.69295776669E+03  0.17300000000E+03 0. -1.
         -6    1    1    2    0  503 -0.11123881100E+03 -0.30334663985E+02  0.29522498464E+03  0.36108317112E+03  0.17300000000E+03 0.  1.
</event>
<event>
 4    1  0.5821292E+000  0.1000000E+03  0.7546771E-02  0.1280296E+00
         21   -1    0    0  501  502  0.00000000000E+00  0.00000000000E+00  0.22027459240E+03  0.22027459240E+03  0.00000000000E+00 0. -1.
         21   -1    0    0  502  503 -0.00000000000E+00 -0.00000000000E+00 -0.31710352170E+03  0.31710352170E+03  0.00000000000E+00 0.  1.
          6    1    1    2  501    0 -0.26055709110E+02  0.17525503216E+03 -0.14229622672E+03  0.28560539633E+03  0.17300000000E+03 0. -1.
         -6    1    1    2    0  503  0.26055709110E+02 -0.17525503216E+03  0.45467297429E+02  0.25177271776E+03  0.17300000000E+03 0.  1.
</event>
<event>
 4    1  0.5821292E+000  0.1000000E+03  0.7546771E-02  0.1280296E+00
         21   -1    0    0  503  502  0.00000000000E+00  0.00000000000E+00  0.66045805894E+03  0.66045805894E+03  0.00000000000E+00 0.  1.
         21   -1    0    0  501  503 -0.00000000000E+00 -0.00000000000E+00 -0.21167395013E+03  0.21167395013E+03  0.00000000000E+00 0. -1.
          6    1    1    2  501    0 -0.24319163173E+03  0.72022833150E+02 -0.24498369559E+02  0.30799127966E+03  0.17300000000E+03 0. -1.
         -6    1    1    2    0  502  0.24319163173E+03 -0.72022833150E+02  0.47328247837E+03  0.56414072940E+03  0.17300000000E+03 0.  1.
</event>
<event>
 4    1  0.5821292E+000  0.1000000E+03  0.7546771E-02  0.1280296E+00
         21   -1    0    0  501  502  0.00000000000E+00  0.00000000000E+00  0.11692962369E+04  0.11692962369E+04  0.00000000000E+00 0.  1.
         21   -1    0    0  502  503 -0.00000000000E+00 -0.00000000000E+00 -0.67478653270E+02  0.67478653270E+02  0.00000000000E+00 0.  1.
          6    1    1    2  501    0 -0.16283863561E+03  0.14864760280E+03  0.50908038173E+03  0.58112336567E+03  0.17300000000E+03 0. -1.
         -6    1    1    2    0  503  0.16283863561E+03 -0.14864760280E+03  0.59273720196E+03  0.65565152455E+03  0.17300000000E+03 0. -1.
</event>
<event>
 4    1  0.5821292E+000  0.1000000E+03  0.7546771E-02  0.1280296E+00
         21   -1    0    0  503  502  0.00000000000E+00  0.00000000000E+00  0.28260952706E+03  0.28260952706E+03  0.00000000000E+00 0. -1.
         21   -1    0    0  501  503 -0.00000000000E+00 -0.00000000000E+00 -0.26463402048E+03  0.26463402048E+03  0.00000000000E+00 0. -1.
          6    1    1    2  501    0 -0.66643323751E+02  0.79106836265E+02 -0.17593592773E+03  0.26754751879E+03  0.17300000000E+03 0. -1.
         -6    1    1    2    0  502  0.66643323751E+02 -0.79106836265E+02  0.19391143430E+03  0.27969602875E+03  0.17300000000E+03 0. -1.
</event>
<event>
 4    1  0.5821292E+000  0.1000000E+03  0.7546771E-02  0.1280296E+00
         21   -1    0    0  503  502  0.00000000000E+00  0.00000000000E+00  0.11350322522E+04  0.11350322522E+04  0.00000000000E+00 0. -1.
         21   -1    0    0  501  503 -0.00000000000E+00 -0.00000000000E+00 -0.45145815439E+02  0.45145815439E+02  0.00000000000E+00 0. -1.
          6    1    1    2  501    0  0.10504835573E+03 -0.80509327848E+02  0.70555245578E+03  0.73841057466E+03  0.17300000000E+03 0. -1.
         -6    1    1    2    0  502 -0.10504835573E+03  0.80509327848E+02  0.38433398094E+03  0.44176749294E+03  0.17300000000E+03 0. -1.
</event>
<event>
 4    1  0.5821292E+000  0.1000000E+03  0.7546771E-02  0.1280296E+00
         21   -1    0    0  503  502  0.00000000000E+00  0.00000000000E+00  0.78249082892E+03  0.78249082892E+03  0.00000000000E+00 0. -1.
         21   -1    0    0  501  503 -0.00000000000E+00 -0.00000000000E+00 -0.79849035768E+02  0.79849035768E+02  0.00000000000E+00 0. -1.
          6    1    1    2  501    0 -0.13568583900E+03 -0.16579953377E+02  0.14819797262E+03  0.26566366114E+03  0.17300000000E+03 0. -1.
         -6    1    1    2    0  502  0.13568583900E+03  0.16579953377E+02  0.55444382052E+03  0.59667620354E+03  0.17300000000E+03 0. -1.
</event>
<event>
 4    1  0.5821292E+000  0.1000000E+03  0.7546771E-02  0.1280296E+00
         21   -1    0    0  501  502  0.00000000000E+00  0.00000000000E+00  0.41357177942E+03  0.41357177942E+03  0.00000000000E+00 0.  1.
         21   -1    0    0  502  503 -0.00000000000E+00 -0.00000000000E+00 -0.25806175527E+03  0.25806175527E+03  0.00000000000E+00 0. -1.
          6    1    1    2  501    0  0.52373285385E+01  0.27576355768E+02  0.36115574512E+03  0.40143537119E+03  0.17300000000E+03 0.  1.
         -6    1    1    2    0  503 -0.52373285385E+01 -0.27576355768E+02 -0.20564572097E+03  0.27019816351E+03  0.17300000000E+03 0. -1.
</event>
<event>
 4    1  0.5821292E+000  0.1000000E+03  0.7546771E-02  0.1280296E+00
         21   -1    0    0  501  502  0.00000000000E+00  0.00000000000E+00  0.27247301105E+03  0.27247301105E+03  0.00000000000E+00 0. -1.
         21   -1    0    0  502  503 -0.00000000000E+00 -0.00000000000E+00 -0.18425130257E+03  0.18425130257E+03  0.00000000000E+00 0. -1.
          6    1    1    2  501    0 -0.11618083316E+03 -0.62744943615E+02  0.98421526106E+02  0.23885290608E+03  0.17300000000E+03 0. -1.
         -6    1    1    2    0  503  0.11618083316E+03  0.62744943615E+02 -0.10199817621E+02  0.21787140754E+03  0.17300000000E+03 0. -1.
</event>
<event>
 4    1  0.5821292E+000  0.1000000E+03  0.7546771E-02  0.1280296E+00
         21   -1    0    0  501  502  0.00000000000E+00  0.00000000000E+00  0.66369517783E+03  0.66369517783E+03  0.00000000000E+00 0. -1.
         21   -1    0    0  502  503 -0.00000000000E+00 -0.00000000000E+00 -0.83640844952E+02  0.83640844952E+02  0.00000000000E+00 0. -1.
          6    1    1    2  501    0  0.10748153817E+03  0.94434044796E+02  0.17662316087E+03  0.28564805412E+03  0.17300000000E+03 0. -1.
         -6    1    1    2    0  503 -0.10748153817E+03 -0.94434044796E+02  0.40343117201E+03  0.46168796867E+03  0.17300000000E+03 0. -1.
</event>
<event>
 4    1  0.5821292E+000  0.1000000E+03  0.7546771E-02  0.1280296E+00
         21   -1    0    0  503  502  0.00000000000E+00  0.00000000000E+00  0.35837260241E+02  0.35837260241E+02  0.00000000000E+00 0. -1.
         21   -1    0    0  501  503 -0.00000000000E+00 -0.00000000000E+00 -0.96075886698E+03  0.96075886698E+03  0.00000000000E+00 0.  1.
          6    1    1    2  501    0 -0.16464180821E+01 -0.55983281222E+02 -0.36324036559E+03  0.40621349271E+03  0.17300000000E+03 0.  1.
         -6    1    1    2    0  502  0.16464180821E+01  0.55983281222E+02 -0.56168124115E+03  0.59038263451E+03  0.17300000000E+03 0. -1.
</event>
<event>
 4    1  0.5821292E+000  0.1000000E+03  0.7546771E-02  0.1280296E+00
         21   -1    0    0  503  502  0.00000000000E+00  0.00000000000E+00  0.12147512122E+04  0.12147512122E+04  0.00000000000E+00 0. -1.
         21   -1    0    0  501  503 -0.00000000000E+00 -0.00000000000E+00 -0.27022353235E+02  0.27022353235E+02  0.00000000000E+00 0.  1.
          6    1    1    2  501    0 -0.12779001029E+02 -0.47148483525E+02  0.67126743100E+03  0.69492103601E+03  0.17300000000E+03 0.  1.
         -6    1    1    2    0  502  0.12779001029E+02  0.47148483525E+02  0.51646142798E+03  0.54685252944E+03  0.17300000000E+03 0. -1.
</event>
<event>
 4    1  0.5821292E+000  0.1000000E+03  0.7546771E-02  0.1280296E+00
         21   -1    0    0  501  502  0.00000000000E+00  0.00000000000E+00  0.58605715220E+03  0.58605715220E+03  0.00000000000E+00 0. -1.
         21   -1    0    0  502  503 -0.00000000000E+00 -0.00000000000E+00 -0.57269369880E+02  0.57269369880E+02  0.00000000000E+00 0.  1.
          6    1    1    2  501    0 -0.58379086424E+02  0.13883335652E+02  0.25426818349E+03  0.31334034830E+03  0.17300000000E+03 0. -1.
         -6    1    1    2    0  503  0.58379086424E+02 -0.13883335652E+02  0.27451959883E+03  0.32998617378E+03  0.17300000000E+03 0.  1.
</event>
<event>
 4    1  0.5821292E+000  0.1000000E+03  0.7546771E-02  0.1280296E+00
         21   -1    0    0  503  502  0.00000000000E+00  0.00000000000E+00  0.21479020939E+02  0.21479020939E+02  0.00000000000E+00 0.  1.
         21   -1    0    0  501  503 -0.00000000000E+00 -0.00000000000E+00 -0.15707077826E+04  0.15707077826E+04  0.00000000000E+00 0.  1.
          6    1    1    2  501    0 -0.39071483882E+02  0.41478316201E+02 -0.87729322928E+03  0.89600192059E+03  0.17300000000E+03 0.  1.
         -6    1    1    2    0  502  0.39071483882E+02 -0.41478316201E+02 -0.67193553242E+03  0.69618488298E+03  0.17300000000E+03 0.  1.
</event>
<event>
 4    1  0.5821292E+000  0.1000000E+03  0.7546771E-02  0.1280296E+00
         21   -1    0    0  503  502  0.00000000000E+00  0.00000000000E+00  0.38225938325E+03  0.38225938325E+03  0.00000000000E+00 0.  1.
         21   -1    0    0  501  503 -0.00000000000E+00 -0.00000000000E+00 -0.36181469109E+03  0.36181469109E+03  0.00000000000E+00 0.  1.
          6    1    1    2  501    0 -0.12601698839E+03  0.15082911354E+03 -0.25397654757E+03  0.36477772626E+03  0.17300000000E+03 0.  1.
         -6    1    1    2    0  502  0.12601698839E+03 -0.15082911354E+03  0.27442123973E+03  0.37929634809E+03  0.17300000000E+03 0.  1.
</event>
<event>
 4    1  0.5821292E+000  0.1000000E+03  0.7546771E-02  0.1280296E+00
         21   -1    0    0  501  502  0.00000000000E+00  0.00000000000E+00  0.11573250075E+03  0.11573250075E+03  0.00000000000E+00 0. -1.
         21   -1    0    0  502  503 -0.00000000000E+00 -0.00000000000E+00 -0.32553344355E+03  0.32553344355E+03  0.00000000000E+00 0. -1.
          6    1    1    2  501    0 -0.56993451768E+02  0.66791959900E+02 -0.11175656250E+03  0.22389271698E+03  0.17300000000E+03 0. -1.
         -6    1    1    2    0  503  0.56993451768E+02 -0.66791959900E+02 -0.98044380293E+02  0.21737322733E+03  0.17300000000E+03 0. -1.
</event>
<event>
 4    1  0.5821292E+000  0.1000000E+03  0.7546771E-02  0.1280296E+00
         21   -1    0    0  501  502  0.00000000000E+00  0.00000000000E+00  0.85891428166E+03  0.85891428166E+03  0.00000000000E+00 0. -1.
         21   -1    0    0  502  503 -0.00000000000E+00 -0.00000000000E+00 -0.40299189082E+02  0.40299189082E+02  0.00000000000E+00 0. -1.
          6    1    1    2  501    0 -0.25717441156E+02 -0.34678663566E+02  0.53765192179E+03  0.56644733691E+03  0.17300000000E+03 0. -1.
         -6    1    1    2    0  503  0.25717441156E+02  0.34678663566E+02  0.28096317078E+03  0.33276613383E+03  0.17300000000E+03 0. -1.
</event>
<event>
 4    1  0.5821292E+000  0.1000000E+03  0.7546771E-02  0.1280296E+00
         21   -1    0    0  501  502  0.00000000000E+00  0.00000000000E+00  0.12711694751E+04  0.12711694751E+04  0.00000000000E+00 0. -1.
         21   -1    0    0  502  503 -0.00000000000E+00 -0.00000000000E+00 -0.31033692901E+02  0.31033692901E+02  0.00000000000E+00 0.  1.
          6    1    1    2  501    0  0.74636638674E+02 -0.59664077410E+02  0.68477759162E+03  0.71272700240E+03  0.17300000000E+03 0.  1.
         -6    1    1    2    0  503 -0.74636638674E+02  0.59664077410E+02  0.55535819055E+03  0.58947616557E+03  0.17300000000E+03 0. -1.
</event>
<event>
 4    1  0.5821292E+000  0.1000000E+03  0.7546771E-02  0.1280296E+00
         21   -1    0    0  501  502  0.00000000000E+00  0.00000000000E+00  0.94690216498E+02  0.94690216498E+02  0.00000000000E+00 0. -1.
         21   -1    0    0  502  503 -0.00000000000E+00 -0.00000000000E+00 -0.10419217115E+04  0.10419217115E+04  0.00000000000E+00 0.  1.
          6    1    1    2  501    0 -0.12697349463E+03  0.14618700796E+03 -0.15383456027E+03  0.30180619869E+03  0.17300000000E+03 0.  1.
         -6    1    1    2    0  503  0.12697349463E+03 -0.14618700796E+03 -0.79339693471E+03  0.83480572928E+03  0.17300000000E+03 0. -1.
</event>
<event>
 4    1  0.5821292E+000  0.1000000E+03  0.7546771E-02  0.1280296E+00
         21   -1    0    0  501  502  0.00000000000E+00  0.00000000000E+00  0.38272035664E+03  0.38272035664E+03  0.00000000000E+00 0. -1.
         21   -1    0    0  502  503 -0.00000000000E+00 -0.00000000000E+00 -0.10573174902E+03  0.10573174902E+03  0.00000000000E+00 0.  1.
          6    1    1    2  501    0 -0.44226892572E+02  0.79838114407E+02  0.19552457053E+03  0.27656644811E+03  0.17300000000E+03 0.  1.
         -6    1    1    2    0  503  0.44226892572E+02 -0.79838114407E+02  0.81464037088E+02  0.21188565755E+03  0.17300000000E+03 0. -1.
</event>
<event>
 4    1  0.5821292E+000  0.1000000E+03  0.7546771E-02  0.1280296E+00
         21   -1    0    0  503  502  0.00000000000E+00  0.00000000000E+00  0.73514693204E+03  0.73514693204E+03  0.00000000000E+00 0.  1.
         21   -1    0    0  501  503 -0.00000000000E+00 -0.00000000000E+00 -0.89020093767E+02  0.89020093767E+02  0.00000000000E+00 0.  1.
          6    1    1    2  501    0  0.48572154537E+02 -0.13197346378E+03  0.12098339500E+03  0.25365770480E+03  0.17300000000E+03 0.  1.
         -6    1    1    2    0  502 -0.48572154537E+02  0.13197346378E+03  0.52514344328E+03  0.57050932101E+03  0.17300000000E+03 0.  1.
</event>
<event>
 4    1  0.5821292E+000  0.1000000E+03  0.7546771E-02  0.1280296E+00
         21   -1    0    0  503  502  0.00000000000E+00  0.00000000000E+00  0.16200726966E+03  0.16200726966E+03  0.00000000000E+00 0.  1.
         21   -1    0    0  501  503 -0.00000000000E+00 -0.00000000000E+00 -0.26828970521E+03  0.26828970521E+03  0.00000000000E+00 0.  1.
          6    1    1    2  501    0  0.38156072768E+02 -0.92543474838E+02  0.80480236827E+01  0.20003487523E+03  0.17300000000E+03 0.  1.
         -6    1    1    2    0  502 -0.38156072768E+02  0.92543474838E+02 -0.11433045923E+03  0.23026209964E+03  0.17300000000E+03 0.  1.
</event>
<event>
 4    1  0.5821292E+000  0.1000000E+03  0.7546771E-02  0.1280296E+00
         21   -1    0    0  503  502  0.00000000000E+00  0.00000000000E+00  0.95463086370E+02  0.95463086370E+02  0.00000000000E+00 0.  1.
         21   -1    0    0  501  503 -0.00000000000E+00 -0.00000000000E+00 -0.52409948359E+03  0.52409948359E+03  0.00000000000E+00 0.  1.
          6    1    1    2  501    0 -0.76168398563E+02 -0.11522963249E+03 -0.25862890576E+03  0.34043707794E+03  0.17300000000E+03 0.  1.
         -6    1    1    2    0  502  0.76168398563E+02  0.11522963249E+03 -0.17000749146E+03  0.27912549202E+03  0.17300000000E+03 0.  1.
</event>
<event>
 4    1  0.5821292E+000  0.1000000E+03  0.7546771E-02  0.1280296E+00
         21   -1    0    0  503  502  0.00000000000E+00  0.00000000000E+00  0.25884185148E+04  0.25884185148E+04  0.00000000000E+00 0. -1.
         21   -1    0    0  501  503 -0.00000000000E+00 -0.00000000000E+00 -0.23184257388E+03  0.23184257388E+03  0.00000000000E+00 0. -1.
          6    1    1    2  501    0  0.16029470228E+03  0.29326494354E+02 -0.16384040517E+03  0.28866436084E+03  0.17300000000E+03 0. -1.
         -6    1    1    2    0  502 -0.16029470228E+03 -0.29326494354E+02  0.25204163461E+04  0.25315967279E+04  0.17300000000E+03 0. -1.
</event>
<event>
 4    1  0.5821292E+000  0.1000000E+03  0.7546771E-02  0.1280296E+00
         21   -1    0    0  501  502  0.00000000000E+00  0.00000000000E+00  0.67310147526E+02  0.67310147526E+02  0.00000000000E+00 0.  1.
         21   -1    0    0  502  503 -0.00000000000E+00 -0.00000000000E+00 -0.60188920532E+03  0.60188920532E+03  0.00000000000E+00 0. -1.
          6    1    1    2  501    0 -0.30261451510E+02 -0.52335263190E+02 -0.40567115150E+03  0.44514359299E+03  0.17300000000E+03 0.  1.
         -6    1    1    2    0  503  0.30261451510E+02  0.52335263190E+02 -0.12890790630E+03  0.22405575986E+03  0.17300000000E+03 0. -1.
</event>
<event>
 4    1  0.5821292E+000  0.1000000E+03  0.7546771E-02  0.1280296E+00
         21   -1    0    0  501  502  0.00000000000E+00  0.00000000000E+00  0.56946706222E+02  0.56946706222E+02  0.00000000000E+00 0. -1.
         21   -1    0    0  502  503 -0.00000000000E+00 -0.00000000000E+00 -0.69864601893E+03  0.69864601893E+03  0.00000000000E+00 0. -1.
          6    1    1    2  501    0 -0.47350747517E+02 -0.50509437178E+02 -0.18607401556E+03  0.26333597514E+03  0.17300000000E+03 0. -1.
         -6    1    1    2    0  503  0.47350747517E+02  0.50509437178E+02 -0.45562529715E+03  0.49225675002E+03  0.17300000000E+03 0. -1.
</event>
<event>
 4    1  0.5821292E+000  0.1000000E+03  0.7546771E-02  0.1280296E+00
         21   -1    0    0  503  502  0.00000000000E+00  0.00000000000E+00  0.42178866747E+03  0.42178866747E+03  0.00000000000E+00 0.  1.
         21   -1    0    0  501  503 -0.00000000000E+00 -0.00000000000E+00 -0.31028193368E+03  0.31028193368E+03  0.00000000000E+00 0.  1.
          6    1    1    2  501    0 -0.23812100239E+03 -0.17019854875E+03 -0.69298843676E+02  0.34698773395E+03  0.17300000000E+03 0.  1.
         -6    1    1    2    0  502  0.23812100239E+03  0.17019854875E+03  0.18080557746E+03  0.38508286721E+03  0.17300000000E+03 0.  1.
</event>
<event>
 4    1  0.5821292E+000  0.1000000E+03  0.7546771E-02  0.1280296E+00
         21   -1    0    0  503  502  0.00000000000E+00  0.00000000000E+00  0.10951429546E+04  0.10951429546E+04  0.00000000000E+00 0.  1.
         21   -1    0    0  501  503 -0.00000000000E+00 -0.00000000000E+00 -0.31871726379E+02  0.31871726379E+02  0.00000000000E+00 0. -1.
          6    1    1    2  501    0 -0.68700315336E+01  0.55829566473E+01  0.32057147557E+03  0.36438089643E+03  0.17300000000E+03 0. -1.
         -6    1    1    2    0  502  0.68700315336E+01 -0.55829566473E+01  0.74269975265E+03  0.76263378454E+03  0.17300000000E+03 0.  1.
</event>
<event>
 4    1  0.5821292E+000  0.1000000E+03  0.7546771E-02  0.1280296E+00
         21   -1    0    0  503  502  0.00000000000E+00  0.00000000000E+00  0.56399729310E+02  0.56399729310E+02  0.00000000000E+00 0.  1.
         21   -1    0    0  501  503 -0.00000000000E+00 -0.00000000000E+00 -0.95466478852E+03  0.95466478852E+03  0.00000000000E+00 0. -1.
          6    1    1    2  501    0  0.60880193086E+02 -0.97008139813E+02 -0.67551021638E+03  0.70665410884E+03  0.17300000000E+03 0. -1.
         -6    1    1    2    0  502 -0.60880193086E+02  0.97008139813E+02 -0.22275484283E+03  0.30441040900E+03  0.17300000000E+03 0.  1.
</event>
<event>
 4    1  0.5821292E+000  0.1000000E+03  0.7546771E-02  0.1280296E+00
         21   -1    0    0  501  502  0.00000000000E+00  0.00000000000E+00  0.10274661683E+04  0.10274661683E+04  0.00000000000E+00 0.  1.
         21   -1    0    0  502  503 -0.00000000000E+00 -0.00000000000E+00 -0.79903938198E+02  0.79903938198E+02  0.00000000000E+00 0. -1.
          6    1    1    2  501    0 -0.13274724176E+03 -0.11235765602E+03  0.75990234688E+03  0.79851527841E+03  0.17300000000E+03 0.  1.
         -6    1    1    2    0  503  0.13274724176E+03  0.11235765602E+03  0.18765988323E+03  0.30885482809E+03  0.17300000000E+03 0. -1.
</event>
<event>
 4    1  0.5821292E+000  0.1000000E+03  0.7546771E-02  0.1280296E+00
         21   -1    0    0  501  502  0.00000000000E+00  0.00000000000E+00  0.10248961865E+03  0.10248961865E+03  0.00000000000E+00 0.  1.
         21   -1    0    0  502  503 -0.00000000000E+00 -0.00000000000E+00 -0.85058902321E+03  0.85058902321E+03  0.00000000000E+00 0. -1.
          6    1    1    2  501    0  0.51412241322E+02 -0.64811958123E+00  0.30973965275E+01  0.18050549156E+03  0.17300000000E+03 0.  1.
         -6    1    1    2    0  503 -0.51412241322E+02  0.64811958123E+00 -0.75119680108E+03  0.77257315030E+03  0.17300000000E+03 0. -1.
</event>
<event>
 4    1  0.5821292E+000  0.1000000E+03  0.7546771E-02  0.1280296E+00
         21   -1    0    0  501  502  0.00000000000E+00  0.00000000000E+00  0.52617811118E+03  0.52617811118E+03  0.00000000000E+00 0.  1.
         21   -1    0    0  502  503 -0.00000000000E+00 -0.00000000000E+00 -0.14178447537E+03  0.14178447537E+03  0.00000000000E+00 0.  1.
          6    1    1    2  501    0 -0.36390931779E+02  0.18841841735E+03  0.83866255169E+02  0.27164010872E+03  0.17300000000E+03 0.  1.
         -6    1    1    2    0  503  0.36390931779E+02 -0.18841841735E+03  0.30052738064E+03  0.39632247782E+03  0.17300000000E+03 0.  1.
</event>
<event>
 4    1  0.5821292E+000  0.1000000E+03  0.7546771E-02  0.1280296E+00
         21   -1    0    0  501  502  0.00000000000E+00  0.00000000000E+00  0.39969431388E+03  0.39969431388E+03  0.00000000000E+00 0.  1.
         21   -1    0    0  502  503 -0.00000000000E+00 -0.00000000000E+00 -0.28314338944E+03  0.28314338944E+03  0.00000000000E+00 0.  1.
          6    1    1    2  501    0 -0.25039451881E+02 -0.30298049364E+02  0.34835892631E+03  0.39093207528E+03  0.17300000000E+03 0.  1.
         -6    1    1    2    0  503  0.25039451881E+02  0.30298049364E+02 -0.23180800187E+03  0.29190562803E+03  0.17300000000E+03 0.  1.
</event>
<event>
 4    1  0.5821292E+000  0.1000000E+03  0.7546771E-02  0.1280296E+00
         21   -1    0    0  501  502  0.00000000000E+00  0.00000000000E+00  0.60864990648E+03  0.60864990648E+03  0.00000000000E+00 0.  1.
         21   -1    0    0  502  503 -0.00000000000E+00 -0.00000000000E+00 -0.31921858839E+03  0.31921858839E+03  0.00000000000E+00 0.  1.
          6    1    1    2  501    0  0.49410025606E+02 -0.35262591838E+03  0.34874351934E+03  0.52757694342E+03  0.17300000000E+03 0.  1.
         -6    1    1    2    0  503 -0.49410025606E+02  0.35262591838E+03 -0.59312201243E+02  0.40029155145E+03  0.17300000000E+03 0.  1.
</event>
<event>
 4    1  0.5821292E+000  0.1000000E+03  0.7546771E-02  0.1280296E+00
         21   -1    0    0  501  502  0.00000000000E+00  0.00000000000E+00  0.22877372079E+03  0.22877372079E+03  0.00000000000E+00 0.  1.
         21   -1    0    0  502  503 -0.00000000000E+00 -0.00000000000E+00 -0.91775367534E+03  0.91775367534E+03  0.00000000000E+00 0. -1.
          6    1    1    2  501    0  0.22219303848E+03 -0.16178122486E+03  0.59915830200E+02  0.33024508743E+03  0.17300000000E+03 0.  1.
         -6    1    1    2    0  503 -0.22219303848E+03  0.16178122486E+03 -0.74889578475E+03  0.81628230869E+03  0.17300000000E+03 0. -1.
</event>
<event>
 4    1  0.5821292E+000  0.1000000E+03  0.7546771E-02  0.1280296E+00
         21   -1    0    0  501  502  0.00000000000E+00  0.00000000000E+00  0.82384332170E+03  0.82384332170E+03  0.00000000000E+00 0.  1.
         21   -1    0    0  502  503 -0.00000000000E+00 -0.00000000000E+00 -0.14851610438E+03  0.14851610438E+03  0.00000000000E+00 0. -1.
          6    1    1    2  501    0 -0.27753730036E+02 -0.25391191247E+03  0.56682434453E+03  0.64533740507E+03  0.17300000000E+03 0.  1.
         -6    1    1    2    0  503  0.27753730036E+02  0.25391191247E+03  0.10850287278E+03  0.32702202101E+03  0.17300000000E+03 0. -1.
</event>
<event>
 4    1  0.5821292E+000  0.1000000E+03  0.7546771E-02  0.1280296E+00
         21   -1    0    0  501  502  0.00000000000E+00  0.00000000000E+00  0.69457563785E+02  0.69457563785E+02  0.00000000000E+00 0.  1.
         21   -1    0    0  502  503 -0.00000000000E+00 -0.00000000000E+00 -0.66134592008E+03  0.66134592008E+03  0.00000000000E+00 0. -1.
          6    1    1    2  501    0 -0.10686966078E+03 -0.29145332780E+02 -0.19173782059E+03  0.28100349938E+03  0.17300000000E+03 0.  1.
         -6    1    1    2    0  503  0.10686966078E+03  0.29145332780E+02 -0.40015053570E+03  0.44979998449E+03  0.17300000000E+03 0. -1.
</event>
<event>
 4    1  0.5821292E+000  0.1000000E+03  0.7546771E-02  0.1280296E+00
         21   -1    0    0  503  502  0.00000000000E+00  0.00000000000E+00  0.93568471081E+02  0.93568471081E+02  0.00000000000E+00 0. -1.
         21   -1    0    0  501  503 -0.00000000000E+00 -0.00000000000E+00 -0.43318073669E+03  0.43318073669E+03  0.00000000000E+00 0.  1.
          6    1    1    2  501    0  0.40613649500E+02  0.18434204803E+02 -0.29122081766E+03  0.34165458152E+03  0.17300000000E+03 0. -1.
         -6    1    1    2    0  502 -0.40613649500E+02 -0.18434204803E+02 -0.48391447943E+02  0.18509462625E+03  0.17300000000E+03 0.  1.
</event>
<event>
 4    1  0.5821292E+000  0.1000000E+03  0.7546771E-02  0.1280296E+00
         21   -1    0    0  503  502  0.00000000000E+00  0.00000000000E+00  0.25640962144E+03  0.25640962144E+03  0.00000000000E+00 0. -1.
         21   -1    0    0  501  503 -0.00000000000E+00 -0.00000000000E+00 -0.25417316536E+03  0.25417316536E+03  0.00000000000E+00 0.  1.
          6    1    1    2  501    0  0.13046523764E+03 -0.48216031512E+02 -0.12496819550E+03  0.25473910931E+03  0.17300000000E+03 0. -1.
         -6    1    1    2    0  502 -0.13046523764E+03  0.48216031512E+02  0.12720465158E+03  0.25584367749E+03  0.17300000000E+03 0.  1.
</event>
<event>
 4    1  0.5821292E+000  0.1000000E+03  0.7546771E-02  0.1280296E+00
         21   -1    0    0  503  502  0.00000000000E+00  0.00000000000E+00  0.51412640826E+03  0.51412640826E+03  0.00000000000E+00 0. -1.
         21   -1    0    0  501  503 -0.00000000000E+00 -0.00000000000E+00 -0.89145841151E+02  0.89145841151E+02  0.00000000000E+00 0.  1.
          6    1    1    2  501    0 -0.57252545307E+02  0.53245071622E+02  0.73079384002E+02  0.20342686146E+03  0.17300000000E+03 0. -1.
         -6    1    1    2    0  502  0.57252545307E+02 -0.53245071622E+02  0.35190118311E+03  0.39984538795E+03  0.17300000000E+03 0.  1.
</event>
<event>
 4    1  0.5821292E+000  0.1000000E+03  0.7546771E-02  0.1280296E+00
         21   -1    0    0  503  502  0.00000000000E+00  0.00000000000E+00  0.35905310565E+03  0.35905310565E+03  0.00000000000E+00 0.  1.
         21   -1    0    0  501  503 -0.00000000000E+00 -0.00000000000E+00 -0.11477874172E+03  0.11477874172E+03  0.00000000000E+00 0. -1.
          6    1    1    2  501    0 -0.78097273368E+02 -0.70715519319E+02  0.10635866395E+03  0.22878162989E+03  0.17300000000E+03 0. -1.
         -6    1    1    2    0  502  0.78097273368E+02  0.70715519319E+02  0.13791569999E+03  0.24505021747E+03  0.17300000000E+03 0.  1.
</event>
<event>
 4    1  0.5821292E+000  0.1000000E+03  0.7546771E-02  0.1280296E+00
         21   -1    0    0  503  502  0.00000000000E+00  0.00000000000E+00  0.96768410696E+02  0.96768410696E+02  0.00000000000E+00 0.  1.
         21   -1    0    0  501  503 -0.00000000000E+00 -0.00000000000E+00 -0.96041413171E+03  0.96041413171E+03  0.00000000000E+00 0. -1.
          6    1    1    2  501    0 -0.21769760699E+03  0.10492295216E+03 -0.54951971029E+03  0.62474153534E+03  0.17300000000E+03 0. -1.
         -6    1    1    2    0  502  0.21769760699E+03 -0.10492295216E+03 -0.31412601072E+03  0.43244100707E+03  0.17300000000E+03 0.  1.
</event>
<event>
 4    1  0.5821292E+000  0.1000000E+03  0.7546771E-02  0.1280296E+00
         21   -1    0    0  503  502  0.00000000000E+00  0.00000000000E+00  0.22462780288E+03  0.22462780288E+03  0.00000000000E+00 0.  1.
         21   -1    0    0  501  503 -0.00000000000E+00 -0.00000000000E+00 -0.13185872200E+04  0.13185872200E+04  0.00000000000E+00 0.  1.
          6    1    1    2  501    0  0.11482952768E+03  0.38703525670E+02 -0.12581065649E+04  0.12757134913E+04  0.17300000000E+03 0.  1.
         -6    1    1    2    0  502 -0.11482952768E+03 -0.38703525670E+02  0.16414714770E+03  0.26750153163E+03  0.17300000000E+03 0.  1.
</event>
<event>
 4    1  0.5821292E+000  0.1000000E+03  0.7546771E-02  0.1280296E+00
         21   -1    0    0  503  502  0.00000000000E+00  0.00000000000E+00  0.59391857812E+03  0.59391857812E+03  0.00000000000E+00 0.  1.
         21   -1    0    0  501  503 -0.00000000000E+00 -0.00000000000E+00 -0.88787936217E+02  0.88787936217E+02  0.00000000000E+00 0.  1.
          6    1    1    2  501    0  0.24759441216E+02 -0.12809165224E+03  0.13952025581E+03  0.25771186058E+03  0.17300000000E+03 0.  1.
         -6    1    1    2    0  502 -0.24759441216E+02  0.12809165224E+03  0.36561038609E+03  0.42499465376E+03  0.17300000000E+03 0.  1.
</event>
<event>
 4    1  0.5821292E+000  0.1000000E+03  0.7546771E-02  0.1280296E+00
         21   -1    0    0  503  502  0.00000000000E+00  0.00000000000E+00  0.45989606410E+02  0.45989606410E+02  0.00000000000E+00 0. -1.
         21   -1    0    0  501  503 -0.00000000000E+00 -0.00000000000E+00 -0.91974279226E+03  0.91974279226E+03  0.00000000000E+00 0. -1.
          6    1    1    2  501    0 -0.20760347054E+02  0.22535867584E+02 -0.68789245032E+03  0.70997456331E+03  0.17300000000E+03 0. -1.
         -6    1    1    2    0  502  0.20760347054E+02 -0.22535867584E+02 -0.18586073553E+03  0.25575783536E+03  0.17300000000E+03 0. -1.
</event>
<event>
 4    1  0.5821292E+000  0.1000000E+03  0.7546771E-02  0.1280296E+00
         21   -1    0    0  503  502  0.00000000000E+00  0.00000000000E+00  0.22299257608E+03  0.22299257608E+03  0.00000000000E+00 0. -1.
         21   -1    0    0  501  503 -0.00000000000E+00 -0.00000000000E+00 -0.17802349830E+03  0.17802349830E+03  0.00000000000E+00 0. -1.
          6    1    1    2  501    0 -0.32914869351E+02 -0.84681753974E+02 -0.16679449797E+02  0.19611627196E+03  0.17300000000E+03 0. -1.
         -6    1    1    2    0  502  0.32914869351E+02  0.84681753974E+02  0.61648527583E+02  0.20489980242E+03  0.17300000000E+03 0. -1.
</event>
<event>
 4    1  0.5821292E+000  0.1000000E+03  0.7546771E-02  0.1280296E+00
         21   -1    0    0  503  502  0.00000000000E+00  0.00000000000E+00  0.63613771927E+03  0.63613771927E+03  0.00000000000E+00 0. -1.
         21   -1    0    0  501  503 -0.00000000000E+00 -0.00000000000E+00 -0.22633803640E+03  0.22633803640E+03  0.00000000000E+00 0. -1.
          6    1    1    2  501    0  0.11464442778E+03  0.10585067368E+03 -0.13548638221E+03  0.26950560236E+03  0.17300000000E+03 0. -1.
         -6    1    1    2    0  502 -0.11464442778E+03 -0.10585067368E+03  0.54528606508E+03  0.59297015331E+03  0.17300000000E+03 0. -1.
</event>
<event>
 4    1  0.5821292E+000  0.1000000E+03  0.7546771E-02  0.1280296E+00
         21   -1    0    0  503  502  0.00000000000E+00  0.00000000000E+00  0.20362920271E+03  0.20362920271E+03  0.00000000000E+00 0. -1.
         21   -1    0    0  501  503 -0.00000000000E+00 -0.00000000000E+00 -0.23105315588E+03  0.23105315588E+03  0.00000000000E+00 0. -1.
          6    1    1    2  501    0 -0.11859912473E+03  0.20497111738E+02 -0.65139722933E+02  0.22058573725E+03  0.17300000000E+03 0. -1.
         -6    1    1    2    0  502  0.11859912473E+03 -0.20497111738E+02  0.37715769765E+02  0.21409662133E+03  0.17300000000E+03 0. -1.
</event>
<event>
 4    1  0.5821292E+000  0.1000000E+03  0.7546771E-02  0.1280296E+00
         21   -1    0    0  503  502  0.00000000000E+00  0.00000000000E+00  0.31064649634E+03  0.31064649634E+03  0.00000000000E+00 0.  1.
         21   -1    0    0  501  503 -0.00000000000E+00 -0.00000000000E+00 -0.11846063685E+03  0.11846063685E+03  0.00000000000E+00 0.  1.
          6    1    1    2  501    0  0.18270099686E+02 -0.67790366324E+02  0.46817093420E+02  0.19248420856E+03  0.17300000000E+03 0.  1.
         -6    1    1    2    0  502 -0.18270099686E+02  0.67790366324E+02  0.14536876607E+03  0.23662292462E+03  0.17300000000E+03 0.  1.
</event>
<event>
 4    1  0.5821292E+000  0.1000000E+03  0.7546771E-02  0.1280296E+00
         21   -1    0    0  503  502  0.00000000000E+00  0.00000000000E+00  0.36445995469E+03  0.36445995469E+03  0.00000000000E+00 0.  1.
         21   -1    0    0  501  503 -0.00000000000E+00 -0.00000000000E+00 -0.14083111117E+03  0.14083111117E+03  0.00000000000E+00 0.  1.
          6    1    1    2  501    0  0.24614040431E+02  0.11033628532E+03  0.82883904493E+01  0.20682757132E+03  0.17300000000E+03 0.  1.
         -6    1    1    2    0  502 -0.24614040431E+02 -0.11033628532E+03  0.21534045307E+03  0.29846349454E+03  0.17300000000E+03 0.  1.
</event>
<event>
 4    1  0.5821292E+000  0.1000000E+03  0.7546771E-02  0.1280296E+00
         21   -1    0    0  503  502  0.00000000000E+00  0.00000000000E+00  0.13378277074E+04  0.13378277074E+04  0.00000000000E+00 0.  1.
         21   -1    0    0  501  503 -0.00000000000E+00 -0.00000000000E+00 -0.34792362622E+02  0.34792362622E+02  0.00000000000E+00 0.  1.
          6    1    1    2  501    0 -0.58568247327E+02  0.74178803211E+02  0.37265861538E+03  0.42158768727E+03  0.17300000000E+03 0.  1.
         -6    1    1    2    0  502  0.58568247327E+02 -0.74178803211E+02  0.93037672942E+03  0.95103238277E+03  0.17300000000E+03 0.  1.
</event>
<event>
 4    1  0.5821292E+000  0.1000000E+03  0.7546771E-02  0.1280296E+00
         21   -1    0    0  503  502  0.00000000000E+00  0.00000000000E+00  0.19195212093E+03  0.19195212093E+03  0.00000000000E+00 0.  1.
         21   -1    0    0  501  503 -0.00000000000E+00 -0.00000000000E+00 -0.30163194875E+03  0.30163194875E+03  0.00000000000E+00 0.  1.
          6    1    1    2  501    0  0.15643260110E+03  0.35218382659E+02 -0.10358113006E+03  0.25762287101E+03  0.17300000000E+03 0.  1.
         -6    1    1    2    0  502 -0.15643260110E+03 -0.35218382659E+02 -0.60986977603E+01  0.23596119867E+03  0.17300000000E+03 0.  1.
</event>
<event>
 4    1  0.5821292E+000  0.1000000E+03  0.7546771E-02  0.1280296E+00
         21   -1    0    0  503  502  0.00000000000E+00  0.00000000000E+00  0.23092832630E+04  0.23092832630E+04  0.00000000000E+00 0.  1.
         21   -1    0    0  501  503 -0.00000000000E+00 -0.00000000000E+00 -0.26460534245E+02  0.26460534245E+02  0.00000000000E+00 0.  1.
          6    1    1    2  501    0  0.12005177023E+03 -0.86273448589E+02  0.68529776191E+03  0.72209248573E+03  0.17300000000E+03 0.  1.
         -6    1    1    2    0  502 -0.12005177023E+03  0.86273448589E+02  0.15975249669E+04  0.16136513116E+04  0.17300000000E+03 0.  1.
</event>
<event>
 4    1  0.5821292E+000  0.1000000E+03  0.7546771E-02  0.1280296E+00
         21   -1    0    0  503  502  0.00000000000E+00  0.00000000000E+00  0.40654867022E+02  0.40654867022E+02  0.00000000000E+00 0.  1.
         21   -1    0    0  501  503 -0.00000000000E+00 -0.00000000000E+00 -0.12192723728E+04  0.12192723728E+04  0.00000000000E+00 0.  1.
          6    1    1    2  501    0 -0.91915357473E+02 -0.33995321179E+02 -0.87277044787E+03  0.89513204025E+03  0.17300000000E+03 0.  1.
         -6    1    1    2    0  502  0.91915357473E+02  0.33995321179E+02 -0.30584705791E+03  0.36479519958E+03  0.17300000000E+03 0.  1.
</event>
<event>
 4    1  0.5821292E+000  0.1000000E+03  0.7546771E-02  0.1280296E+00
         21   -1    0    0  503  502  0.00000000000E+00  0.00000000000E+00  0.15255130969E+03  0.15255130969E+03  0.00000000000E+00 0.  1.
         21   -1    0    0  501  503 -0.00000000000E+00 -0.00000000000E+00 -0.20329048148E+03  0.20329048148E+03  0.00000000000E+00 0. -1.
          6    1    1    2  501    0 -0.11429012533E+02 -0.28091860051E+02 -0.38286494836E+02  0.17976270641E+03  0.17300000000E+03 0. -1.
         -6    1    1    2    0  502  0.11429012533E+02  0.28091860051E+02 -0.12452676958E+02  0.17607908477E+03  0.17300000000E+03 0.  1.
</event>
<event>
 4    1  0.5821292E+000  0.1000000E+03  0.7546771E-02  0.1280296E+00
         21   -1    0    0  503  502  0.00000000000E+00  0.00000000000E+00  0.98064652314E+02  0.98064652314E+02  0.00000000000E+00 0.  1.
         21   -1    0    0  501  503 -0.00000000000E+00 -0.00000000000E+00 -0.59821869195E+03  0.59821869195E+03  0.00000000000E+00 0. -1.
          6    1    1    2  501    0 -0.19008467998E+02 -0.23958131697E+02 -0.48973426602E+03  0.52029219218E+03  0.17300000000E+03 0. -1.
         -6    1    1    2    0  502  0.19008467998E+02  0.23958131697E+02 -0.10419773618E+02  0.17599115209E+03  0.17300000000E+03 0.  1.
</event>
<event>
 4    1  0.5821292E+000  0.1000000E+03  0.7546771E-02  0.1280296E+00
         21   -1    0    0  503  502  0.00000000000E+00  0.00000000000E+00  0.22160192274E+03  0.22160192274E+03  0.00000000000E+00 0.  1.
         21   -1    0    0  501  503 -0.00000000000E+00 -0.00000000000E+00 -0.23471500392E+03  0.23471500392E+03  0.00000000000E+00 0. -1.
          6    1    1    2  501    0 -0.33611916409E+02 -0.12048324451E+03 -0.86828853453E+02  0.23046523149E+03  0.17300000000E+03 0. -1.
         -6    1    1    2    0  502  0.33611916409E+02  0.12048324451E+03  0.73715772274E+02  0.22585169518E+03  0.17300000000E+03 0.  1.
</event>
<event>
 4    1  0.5821292E+000  0.1000000E+03  0.7546771E-02  0.1280296E+00
         21   -1    0    0  503  502  0.00000000000E+00  0.00000000000E+00  0.35957942031E+03  0.35957942031E+03  0.00000000000E+00 0.  1.
         21   -1    0    0  501  503 -0.00000000000E+00 -0.00000000000E+00 -0.13951005956E+04  0.13951005956E+04  0.00000000000E+00 0. -1.
          6    1    1    2  501    0  0.14884633544E+03  0.22585265452E+03 -0.12997706308E+04  0.13388417927E+04  0.17300000000E+03 0. -1.
         -6    1    1    2    0  502 -0.14884633544E+03 -0.22585265452E+03  0.26424945553E+03  0.41583822320E+03  0.17300000000E+03 0.  1.
</event>
<event>
 4    1  0.5821292E+000  0.1000000E+03  0.7546771E-02  0.1280296E+00
         21   -1    0    0  503  502  0.00000000000E+00  0.00000000000E+00  0.41516657724E+02  0.41516657724E+02  0.00000000000E+00 0.  1.
         21   -1    0    0  501  503 -0.00000000000E+00 -0.00000000000E+00 -0.88171727702E+03  0.88171727702E+03  0.00000000000E+00 0. -1.
          6    1    1    2  501    0  0.31975786627E+01 -0.12431696898E+02 -0.22539885873E+03  0.28442647049E+03  0.17300000000E+03 0.  1.
         -6    1    1    2    0  502 -0.31975786627E+01  0.12431696898E+02 -0.61480176057E+03  0.63880746426E+03  0.17300000000E+03 0. -1.
</event>
<event>
 4    1  0.5821292E+000  0.1000000E+03  0.7546771E-02  0.1280296E+00
         21   -1    0    0  503  502  0.00000000000E+00  0.00000000000E+00  0.31547414925E+02  0.31547414925E+02  0.00000000000E+00 0. -1.
         21   -1    0    0  501  503 -0.00000000000E+00 -0.00000000000E+00 -0.26008343277E+04  0.26008343277E+04  0.00000000000E+00 0. -1.
          6    1    1    2  501    0  0.14842850185E+03 -0.17315347652E+03 -0.12370124119E+04  0.12697014822E+04  0.17300000000E+03 0. -1.
         -6    1    1    2    0  502 -0.14842850185E+03  0.17315347652E+03 -0.13322745009E+04  0.13626802605E+04  0.17300000000E+03 0. -1.
</event>
<event>
 4    1  0.5821292E+000  0.1000000E+03  0.7546771E-02  0.1280296E+00
         21   -1    0    0  503  502  0.00000000000E+00  0.00000000000E+00  0.78934713531E+02  0.78934713531E+02  0.00000000000E+00 0. -1.
         21   -1    0    0  501  503 -0.00000000000E+00 -0.00000000000E+00 -0.90547518404E+03  0.90547518404E+03  0.00000000000E+00 0. -1.
          6    1    1    2  501    0 -0.19605388580E+03 -0.40231450042E+02 -0.48430671638E+03  0.55184933745E+03  0.17300000000E+03 0. -1.
         -6    1    1    2    0  502  0.19605388580E+03  0.40231450042E+02 -0.34223375413E+03  0.43256056013E+03  0.17300000000E+03 0. -1.
</event>
<event>
 4    1  0.5821292E+000  0.1000000E+03  0.7546771E-02  0.1280296E+00
         21   -1    0    0  503  502  0.00000000000E+00  0.00000000000E+00  0.59200589519E+02  0.59200589519E+02  0.00000000000E+00 0. -1.
         21   -1    0    0  501  503 -0.00000000000E+00 -0.00000000000E+00 -0.78872592449E+03  0.78872592449E+03  0.00000000000E+00 0.  1.
          6    1    1    2  501    0 -0.77356192971E+02  0.97265951147E+02 -0.29349552023E+03  0.36264757856E+03  0.17300000000E+03 0.  1.
         -6    1    1    2    0  502  0.77356192971E+02 -0.97265951147E+02 -0.43602981474E+03  0.48527893544E+03  0.17300000000E+03 0.  1.
</event>
<event>
 4    1  0.5821292E+000  0.1000000E+03  0.7546771E-02  0.1280296E+00
         21   -1    0    0  503  502  0.00000000000E+00  0.00000000000E+00  0.94808236645E+02  0.94808236645E+02  0.00000000000E+00 0. -1.
         21   -1    0    0  501  503 -0.00000000000E+00 -0.00000000000E+00 -0.52351571116E+03  0.52351571116E+03  0.00000000000E+00 0.  1.
          6    1    1    2  501    0  0.61166990655E+02  0.67602867816E+02 -0.36247528277E+03  0.41186026648E+03  0.17300000000E+03 0.  1.
         -6    1    1    2    0  502 -0.61166990655E+02 -0.67602867816E+02 -0.66232191736E+02  0.20646368132E+03  0.17300000000E+03 0.  1.
</event>
<event>
 4    1  0.5821292E+000  0.1000000E+03  0.7546771E-02  0.1280296E+00
         21   -1    0    0  501  502  0.00000000000E+00  0.00000000000E+00  0.30633476958E+03  0.30633476958E+03  0.00000000000E+00 0.  1.
         21   -1    0    0  502  503 -0.00000000000E+00 -0.00000000000E+00 -0.10372745976E+03  0.10372745976E+03  0.00000000000E+00 0.  1.
          6    1    1    2  501    0  0.31049294170E+02  0.29345554469E+02  0.10658799285E+03  0.20764204886E+03  0.17300000000E+03 0.  1.
         -6    1    1    2    0  503 -0.31049294170E+02 -0.29345554469E+02  0.96019316968E+02  0.20242018048E+03  0.17300000000E+03 0.  1.
</event>
<event>
 4    1  0.5821292E+000  0.1000000E+03  0.7546771E-02  0.1280296E+00
         21   -1    0    0  501  502  0.00000000000E+00  0.00000000000E+00  0.61662461799E+03  0.61662461799E+03  0.00000000000E+00 0.  1.
         21   -1    0    0  502  503 -0.00000000000E+00 -0.00000000000E+00 -0.40298026154E+03  0.40298026154E+03  0.00000000000E+00 0.  1.
          6    1    1    2  501    0  0.26850072447E+03  0.12518039742E+02  0.49801008862E+03  0.59177055412E+03  0.17300000000E+03 0.  1.
         -6    1    1    2    0  503 -0.26850072447E+03 -0.12518039742E+02 -0.28436573217E+03  0.42783432540E+03  0.17300000000E+03 0.  1.
</event>
<event>
 4    1  0.5821292E+000  0.1000000E+03  0.7546771E-02  0.1280296E+00
         21   -1    0    0  501  502  0.00000000000E+00  0.00000000000E+00  0.35252078870E+03  0.35252078870E+03  0.00000000000E+00 0.  1.
         21   -1    0    0  502  503 -0.00000000000E+00 -0.00000000000E+00 -0.31676841833E+03  0.31676841833E+03  0.00000000000E+00 0.  1.
          6    1    1    2  501    0  0.21257290643E+03 -0.14929488194E+02  0.20874861121E+03  0.34484070648E+03  0.17300000000E+03 0.  1.
         -6    1    1    2    0  503 -0.21257290643E+03  0.14929488194E+02 -0.17299624084E+03  0.32444850055E+03  0.17300000000E+03 0.  1.
</event>
<event>
 4    1  0.5821292E+000  0.1000000E+03  0.7546771E-02  0.1280296E+00
         21   -1    0    0  501  502  0.00000000000E+00  0.00000000000E+00  0.20780098527E+04  0.20780098527E+04  0.00000000000E+00 0. -1.
         21   -1    0    0  502  503 -0.00000000000E+00 -0.00000000000E+00 -0.61355768703E+02  0.61355768703E+02  0.00000000000E+00 0.  1.
          6    1    1    2  501    0  0.56762333979E+01 -0.68397147778E+02  0.19212084299E+04  0.19302023781E+04  0.17300000000E+03 0. -1.
         -6    1    1    2    0  503 -0.56762333979E+01  0.68397147778E+02  0.95445654107E+02  0.20916324328E+03  0.17300000000E+03 0.  1.
</event>
<event>
 4    1  0.5821292E+000  0.1000000E+03  0.7546771E-02  0.1280296E+00
         21   -1    0    0  503  502  0.00000000000E+00  0.00000000000E+00  0.18075082131E+04  0.18075082131E+04  0.00000000000E+00 0.  1.
         21   -1    0    0  501  503 -0.00000000000E+00 -0.00000000000E+00 -0.11129090230E+03  0.11129090230E+03  0.00000000000E+00 0.  1.
          6    1    1    2  501    0 -0.13146725064E+03  0.14935598421E+02  0.94220858830E+01  0.21800111420E+03  0.17300000000E+03 0.  1.
         -6    1    1    2    0  502  0.13146725064E+03 -0.14935598421E+02  0.16867952249E+04  0.17007980012E+04  0.17300000000E+03 0.  1.
</event>
<event>
 4    1  0.5821292E+000  0.1000000E+03  0.7546771E-02  0.1280296E+00
         21   -1    0    0  501  502  0.00000000000E+00  0.00000000000E+00  0.25073452483E+03  0.25073452483E+03  0.00000000000E+00 0.  1.
         21   -1    0    0  502  503 -0.00000000000E+00 -0.00000000000E+00 -0.34403401066E+03  0.34403401066E+03  0.00000000000E+00 0.  1.
          6    1    1    2  501    0 -0.21132629945E+03 -0.26165047899E+02  0.59491742426E+02  0.28073418386E+03  0.17300000000E+03 0.  1.
         -6    1    1    2    0  503  0.21132629945E+03  0.26165047899E+02 -0.15279122826E+03  0.31403435163E+03  0.17300000000E+03 0.  1.
</event>
<event>
 4    1  0.5821292E+000  0.1000000E+03  0.7546771E-02  0.1280296E+00
         21   -1    0    0  501  502  0.00000000000E+00  0.00000000000E+00  0.17842991203E+04  0.17842991203E+04  0.00000000000E+00 0.  1.
         21   -1    0    0  502  503 -0.00000000000E+00 -0.00000000000E+00 -0.20394914234E+02  0.20394914234E+02  0.00000000000E+00 0.  1.
          6    1    1    2  501    0  0.61268219021E+02 -0.13479711927E+02  0.64420968099E+03  0.66997806709E+03  0.17300000000E+03 0.  1.
         -6    1    1    2    0  503 -0.61268219021E+02  0.13479711927E+02  0.11196945250E+04  0.11347159674E+04  0.17300000000E+03 0.  1.
</event>
<event>
 4    1  0.5821292E+000  0.1000000E+03  0.7546771E-02  0.1280296E+00
         21   -1    0    0  501  502  0.00000000000E+00  0.00000000000E+00  0.15095554846E+03  0.15095554846E+03  0.00000000000E+00 0.  1.
         21   -1    0    0  502  503 -0.00000000000E+00 -0.00000000000E+00 -0.30327246227E+03  0.30327246227E+03  0.00000000000E+00 0.  1.
          6    1    1    2  501    0 -0.19120957096E+02  0.11855492586E+03 -0.36008116534E+02  0.21365033560E+03  0.17300000000E+03 0.  1.
         -6    1    1    2    0  503  0.19120957096E+02 -0.11855492586E+03 -0.11630879727E+03  0.24057767513E+03  0.17300000000E+03 0.  1.
</event>
<event>
 4    1  0.5821292E+000  0.1000000E+03  0.7546771E-02  0.1280296E+00
         21   -1    0    0  503  502  0.00000000000E+00  0.00000000000E+00  0.18670347616E+03  0.18670347616E+03  0.00000000000E+00 0. -1.
         21   -1    0    0  501  503 -0.00000000000E+00 -0.00000000000E+00 -0.87791809612E+03  0.87791809612E+03  0.00000000000E+00 0.  1.
          6    1    1    2  501    0 -0.19938639158E+02 -0.14290838099E+03 -0.78790071423E+03  0.81947354452E+03  0.17300000000E+03 0.  1.
         -6    1    1    2    0  502  0.19938639158E+02  0.14290838099E+03  0.96686094267E+02  0.24514802776E+03  0.17300000000E+03 0. -1.
</event>
<event>
 4    1  0.5821292E+000  0.1000000E+03  0.7546771E-02  0.1280296E+00
         21   -1    0    0  503  502  0.00000000000E+00  0.00000000000E+00  0.13437611421E+04  0.13437611421E+04  0.00000000000E+00 0. -1.
         21   -1    0    0  501  503 -0.00000000000E+00 -0.00000000000E+00 -0.89888026022E+02  0.89888026022E+02  0.00000000000E+00 0.  1.
          6    1    1    2  501    0 -0.73672402243E+02 -0.18883525866E+02  0.25345370779E+02  0.19067144050E+03  0.17300000000E+03 0.  1.
         -6    1    1    2    0  502  0.73672402243E+02  0.18883525866E+02  0.12285277453E+04  0.12429777276E+04  0.17300000000E+03 0. -1.
</event>
<event>
 4    1  0.5821292E+000  0.1000000E+03  0.7546771E-02  0.1280296E+00
         21   -1    0    0  503  502  0.00000000000E+00  0.00000000000E+00  0.86377392023E+02  0.86377392023E+02  0.00000000000E+00 0.  1.
         21   -1    0    0  501  503 -0.00000000000E+00 -0.00000000000E+00 -0.62734908486E+03  0.62734908486E+03  0.00000000000E+00 0. -1.
          6    1    1    2  501    0 -0.12499798745E+03 -0.46061880992E+02 -0.39421075636E+03  0.45064100366E+03  0.17300000000E+03 0.  1.
         -6    1    1    2    0  502  0.12499798745E+03  0.46061880992E+02 -0.14676093647E+03  0.26308547322E+03  0.17300000000E+03 0.  1.
</event>
<event>
 4    1  0.5821292E+000  0.1000000E+03  0.7546771E-02  0.1280296E+00
         21   -1    0    0  503  502  0.00000000000E+00  0.00000000000E+00  0.19329360636E+03  0.19329360636E+03  0.00000000000E+00 0.  1.
         21   -1    0    0  501  503 -0.00000000000E+00 -0.00000000000E+00 -0.38500684859E+03  0.38500684859E+03  0.00000000000E+00 0. -1.
          6    1    1    2  501    0 -0.40240548220E+02 -0.81175972514E+02 -0.29775057580E+03  0.35608039208E+03  0.17300000000E+03 0.  1.
         -6    1    1    2    0  502  0.40240548220E+02  0.81175972514E+02  0.10603733356E+03  0.22222006287E+03  0.17300000000E+03 0.  1.
</event>
<event>
 4    1  0.5821292E+000  0.1000000E+03  0.7546771E-02  0.1280296E+00
         21   -1    0    0  503  502  0.00000000000E+00  0.00000000000E+00  0.54921441007E+02  0.54921441007E+02  0.00000000000E+00 0.  1.
         21   -1    0    0  501  503 -0.00000000000E+00 -0.00000000000E+00 -0.17061622057E+04  0.17061622057E+04  0.00000000000E+00 0. -1.
          6    1    1    2  501    0  0.76496847066E+02  0.20955197068E+03 -0.11661229109E+04  0.11998064174E+04  0.17300000000E+03 0.  1.
         -6    1    1    2    0  502 -0.76496847066E+02 -0.20955197068E+03 -0.48511785386E+03  0.56127722933E+03  0.17300000000E+03 0.  1.
</event>
<event>
 4    1  0.5821292E+000  0.1000000E+03  0.7546771E-02  0.1280296E+00
         21   -1    0    0  503  502  0.00000000000E+00  0.00000000000E+00  0.10762845648E+03  0.10762845648E+03  0.00000000000E+00 0. -1.
         21   -1    0    0  501  503 -0.00000000000E+00 -0.00000000000E+00 -0.69728756988E+03  0.69728756988E+03  0.00000000000E+00 0.  1.
          6    1    1    2  501    0  0.15049418620E+03 -0.18445382694E+02 -0.51337625369E+03  0.56255925028E+03  0.17300000000E+03 0.  1.
         -6    1    1    2    0  502 -0.15049418620E+03  0.18445382694E+02 -0.76282859707E+02  0.24235677607E+03  0.17300000000E+03 0. -1.
</event>
<event>
 4    1  0.5821292E+000  0.1000000E+03  0.7546771E-02  0.1280296E+00
         21   -1    0    0  503  502  0.00000000000E+00  0.00000000000E+00  0.19683645458E+03  0.19683645458E+03  0.00000000000E+00 0. -1.
         21   -1    0    0  501  503 -0.00000000000E+00 -0.00000000000E+00 -0.21457899211E+03  0.21457899211E+03  0.00000000000E+00 0.  1.
          6    1    1    2  501    0 -0.56904551720E+02 -0.45537893470E+02 -0.92592090981E+02  0.20931823394E+03  0.17300000000E+03 0.  1.
         -6    1    1    2    0  502  0.56904551720E+02  0.45537893470E+02  0.74849553453E+02  0.20209721275E+03  0.17300000000E+03 0. -1.
</event>
<event>
 4    1  0.5821292E+000  0.1000000E+03  0.7546771E-02  0.1280296E+00
         21   -1    0    0  503  502  0.00000000000E+00  0.00000000000E+00  0.32446968972E+03  0.32446968972E+03  0.00000000000E+00 0. -1.
         21   -1    0    0  501  503 -0.00000000000E+00 -0.00000000000E+00 -0.31586947749E+03  0.31586947749E+03  0.00000000000E+00 0.  1.
          6    1    1    2  501    0  0.22654263247E+03  0.95774348829E+02 -0.10555870409E+03  0.31869410134E+03  0.17300000000E+03 0.  1.
         -6    1    1    2    0  502 -0.22654263247E+03 -0.95774348829E+02  0.11415891632E+03  0.32164506586E+03  0.17300000000E+03 0. -1.
</event>
<event>
 4    1  0.5821292E+000  0.1000000E+03  0.7546771E-02  0.1280296E+00
         21   -1    0    0  503  502  0.00000000000E+00  0.00000000000E+00  0.30108016320E+03  0.30108016320E+03  0.00000000000E+00 0. -1.
         21   -1    0    0  501  503 -0.00000000000E+00 -0.00000000000E+00 -0.15766186097E+03  0.15766186097E+03  0.00000000000E+00 0.  1.
          6    1    1    2  501    0 -0.53985407329E+02  0.71767996515E+02 -0.30766082196E+02  0.19733378155E+03  0.17300000000E+03 0.  1.
         -6    1    1    2    0  502  0.53985407329E+02 -0.71767996515E+02  0.17418438442E+03  0.26140824261E+03  0.17300000000E+03 0. -1.
</event>
<event>
 4    1  0.5821292E+000  0.1000000E+03  0.7546771E-02  0.1280296E+00
         21   -1    0    0  501  502  0.00000000000E+00  0.00000000000E+00  0.65918441295E+03  0.65918441295E+03  0.00000000000E+00 0.  1.
         21   -1    0    0  502  503 -0.00000000000E+00 -0.00000000000E+00 -0.75058200098E+02  0.75058200098E+02  0.00000000000E+00 0.  1.
          6    1    1    2  501    0  0.82347900456E+02 -0.50105451463E+02  0.12491330967E+03  0.23414539908E+03  0.17300000000E+03 0.  1.
         -6    1    1    2    0  503 -0.82347900456E+02  0.50105451463E+02  0.45921290318E+03  0.50009721397E+03  0.17300000000E+03 0.  1.
</event>
<event>
 4    1  0.5821292E+000  0.1000000E+03  0.7546771E-02  0.1280296E+00
         21   -1    0    0  501  502  0.00000000000E+00  0.00000000000E+00  0.76319149700E+03  0.76319149700E+03  0.00000000000E+00 0.  1.
         21   -1    0    0  502  503 -0.00000000000E+00 -0.00000000000E+00 -0.56996411797E+02  0.56996411797E+02  0.00000000000E+00 0.  1.
          6    1    1    2  501    0  0.77666395915E+00 -0.11091639276E+03  0.42309028307E+03  0.47035883856E+03  0.17300000000E+03 0.  1.
         -6    1    1    2    0  503 -0.77666395915E+00  0.11091639276E+03  0.28310480214E+03  0.34982907023E+03  0.17300000000E+03 0.  1.
</event>
<event>
 4    1  0.5821292E+000  0.1000000E+03  0.7546771E-02  0.1280296E+00
         21   -1    0    0  503  502  0.00000000000E+00  0.00000000000E+00  0.82305403397E+03  0.82305403397E+03  0.00000000000E+00 0. -1.
         21   -1    0    0  501  503 -0.00000000000E+00 -0.00000000000E+00 -0.71992120907E+02  0.71992120907E+02  0.00000000000E+00 0. -1.
          6    1    1    2  501    0  0.13285092347E+03 -0.25080699533E+02  0.18230688832E+03  0.28538256934E+03  0.17300000000E+03 0. -1.
         -6    1    1    2    0  502 -0.13285092347E+03  0.25080699533E+02  0.56875502475E+03  0.60966358554E+03  0.17300000000E+03 0. -1.
</event>
<event>
 4    1  0.5821292E+000  0.1000000E+03  0.7546771E-02  0.1280296E+00
         21   -1    0    0  503  502  0.00000000000E+00  0.00000000000E+00  0.78244209018E+03  0.78244209018E+03  0.00000000000E+00 0. -1.
         21   -1    0    0  501  503 -0.00000000000E+00 -0.00000000000E+00 -0.62233505084E+02  0.62233505084E+02  0.00000000000E+00 0. -1.
          6    1    1    2  501    0  0.53981012167E+01  0.12122008892E+02  0.99158621893E+02  0.19984372618E+03  0.17300000000E+03 0. -1.
         -6    1    1    2    0  502 -0.53981012167E+01 -0.12122008892E+02  0.62104996320E+03  0.64483186909E+03  0.17300000000E+03 0. -1.
</event>
<event>
 4    1  0.5821292E+000  0.1000000E+03  0.7546771E-02  0.1280296E+00
         21   -1    0    0  503  502  0.00000000000E+00  0.00000000000E+00  0.12738206082E+03  0.12738206082E+03  0.00000000000E+00 0. -1.
         21   -1    0    0  501  503 -0.00000000000E+00 -0.00000000000E+00 -0.28705308568E+03  0.28705308568E+03  0.00000000000E+00 0. -1.
          6    1    1    2  501    0  0.11649566858E+02 -0.47639873217E+02 -0.15032432996E+03  0.23437507142E+03  0.17300000000E+03 0. -1.
         -6    1    1    2    0  502 -0.11649566858E+02  0.47639873217E+02 -0.93466949059E+01  0.18006007507E+03  0.17300000000E+03 0. -1.
</event>
<event>
 4    1  0.5821292E+000  0.1000000E+03  0.7546771E-02  0.1280296E+00
         21   -1    0    0  503  502  0.00000000000E+00  0.00000000000E+00  0.42574391403E+02  0.42574391403E+02  0.00000000000E+00 0. -1.
         21   -1    0    0  501  503 -0.00000000000E+00 -0.00000000000E+00 -0.11709021902E+04  0.11709021902E+04  0.00000000000E+00 0. -1.
          6    1    1    2  501    0  0.44371699751E+02  0.13357620725E+02 -0.92645827222E+03  0.94361072691E+03  0.17300000000E+03 0. -1.
         -6    1    1    2    0  502 -0.44371699751E+02 -0.13357620725E+02 -0.20186952658E+03  0.26986585470E+03  0.17300000000E+03 0. -1.
</event>
<event>
 4    1  0.5821292E+000  0.1000000E+03  0.7546771E-02  0.1280296E+00
         21   -1    0    0  503  502  0.00000000000E+00  0.00000000000E+00  0.19257446261E+03  0.19257446261E+03  0.00000000000E+00 0. -1.
         21   -1    0    0  501  503 -0.00000000000E+00 -0.00000000000E+00 -0.27681433435E+03  0.27681433435E+03  0.00000000000E+00 0. -1.
          6    1    1    2  501    0  0.10770179703E+03  0.43052823312E+02 -0.14338918896E+03  0.25286890317E+03  0.17300000000E+03 0. -1.
         -6    1    1    2    0  502 -0.10770179703E+03 -0.43052823312E+02  0.59149317230E+02  0.21651989379E+03  0.17300000000E+03 0. -1.
</event>
<event>
 4    1  0.5821292E+000  0.1000000E+03  0.7546771E-02  0.1280296E+00
         21   -1    0    0  503  502  0.00000000000E+00  0.00000000000E+00  0.52986963777E+02  0.52986963777E+02  0.00000000000E+00 0. -1.
         21   -1    0    0  501  503 -0.00000000000E+00 -0.00000000000E+00 -0.76855857887E+03  0.76855857887E+03  0.00000000000E+00 0. -1.
          6    1    1    2  501    0  0.56665019425E+02 -0.41992279241E+02 -0.51307873899E+03  0.54603394432E+03  0.17300000000E+03 0. -1.
         -6    1    1    2    0  502 -0.56665019425E+02  0.41992279241E+02 -0.20249287610E+03  0.27551159833E+03  0.17300000000E+03 0. -1.
</event>
<event>
 4    1  0.5821292E+000  0.1000000E+03  0.7546771E-02  0.1280296E+00
         21   -1    0    0  501  502  0.00000000000E+00  0.00000000000E+00  0.22155242751E+03  0.22155242751E+03  0.00000000000E+00 0. -1.
         21   -1    0    0  502  503 -0.00000000000E+00 -0.00000000000E+00 -0.76483531751E+03  0.76483531751E+03  0.00000000000E+00 0. -1.
          6    1    1    2  501    0 -0.79959434003E+02 -0.14646671004E+03  0.12874152201E+03  0.27267084135E+03  0.17300000000E+03 0. -1.
         -6    1    1    2    0  503  0.79959434003E+02  0.14646671004E+03 -0.67202441201E+03  0.71371690366E+03  0.17300000000E+03 0. -1.
</event>
<event>
 4    1  0.5821292E+000  0.1000000E+03  0.7546771E-02  0.1280296E+00
         21   -1    0    0  501  502  0.00000000000E+00  0.00000000000E+00  0.52896388238E+03  0.52896388238E+03  0.00000000000E+00 0. -1.
         21   -1    0    0  502  503 -0.00000000000E+00 -0.00000000000E+00 -0.75678048927E+02  0.75678048927E+02  0.00000000000E+00 0. -1.
          6    1    1    2  501    0 -0.46314939527E+02 -0.11104744863E+02  0.36037944193E+03  0.40258009283E+03  0.17300000000E+03 0. -1.
         -6    1    1    2    0  503  0.46314939527E+02  0.11104744863E+02  0.92906391531E+02  0.20206183848E+03  0.17300000000E+03 0. -1.
</event>
<event>
 4    1  0.5821292E+000  0.1000000E+03  0.7546771E-02  0.1280296E+00
         21   -1    0    0  501  502  0.00000000000E+00  0.00000000000E+00  0.96267015332E+03  0.96267015332E+03  0.00000000000E+00 0. -1.
         21   -1    0    0  502  503 -0.00000000000E+00 -0.00000000000E+00 -0.14495270099E+03  0.14495270099E+03  0.00000000000E+00 0.  1.
          6    1    1    2  501    0 -0.21896767870E+03 -0.14861660122E+03  0.70380428769E+03  0.77155895033E+03  0.17300000000E+03 0.  1.
         -6    1    1    2    0  503  0.21896767870E+03  0.14861660122E+03  0.11391316464E+03  0.33606390397E+03  0.17300000000E+03 0. -1.
</event>
<event>
 4    1  0.5821292E+000  0.1000000E+03  0.7546771E-02  0.1280296E+00
         21   -1    0    0  501  502  0.00000000000E+00  0.00000000000E+00  0.97339721049E+02  0.97339721049E+02  0.00000000000E+00 0. -1.
         21   -1    0    0  502  503 -0.00000000000E+00 -0.00000000000E+00 -0.97916375695E+03  0.97916375695E+03  0.00000000000E+00 0.  1.
          6    1    1    2  501    0 -0.58906743959E+02  0.94377756806E+02 -0.39516398726E+02  0.20944620128E+03  0.17300000000E+03 0.  1.
         -6    1    1    2    0  503  0.58906743959E+02 -0.94377756806E+02 -0.84230763717E+03  0.86705727672E+03  0.17300000000E+03 0. -1.
</event>
<event>
 4    1  0.5821292E+000  0.1000000E+03  0.7546771E-02  0.1280296E+00
         21   -1    0    0  501  502  0.00000000000E+00  0.00000000000E+00  0.11662154248E+04  0.11662154248E+04  0.00000000000E+00 0. -1.
         21   -1    0    0  502  503 -0.00000000000E+00 -0.00000000000E+00 -0.35277295244E+02  0.35277295244E+02  0.00000000000E+00 0.  1.
          6    1    1    2  501    0  0.60557940847E+02  0.48295033655E+01  0.82233212811E+03  0.84252579618E+03  0.17300000000E+03 0.  1.
         -6    1    1    2    0  503 -0.60557940847E+02 -0.48295033655E+01  0.30860600146E+03  0.35896692388E+03  0.17300000000E+03 0. -1.
</event>
<event>
 4    1  0.5821292E+000  0.1000000E+03  0.7546771E-02  0.1280296E+00
         21   -1    0    0  501  502  0.00000000000E+00  0.00000000000E+00  0.22323698894E+04  0.22323698894E+04  0.00000000000E+00 0. -1.
         21   -1    0    0  502  503 -0.00000000000E+00 -0.00000000000E+00 -0.17914756822E+02  0.17914756822E+02  0.00000000000E+00 0.  1.
          6    1    1    2  501    0  0.46936604145E+02  0.49433602384E+02  0.15213071564E+04  0.15326288493E+04  0.17300000000E+03 0.  1.
         -6    1    1    2    0  503 -0.46936604145E+02 -0.49433602384E+02  0.69314797620E+03  0.71765579686E+03  0.17300000000E+03 0. -1.
</event>
<event>
 4    1  0.5821292E+000  0.1000000E+03  0.7546771E-02  0.1280296E+00
         21   -1    0    0  503  502  0.00000000000E+00  0.00000000000E+00  0.87865803837E+03  0.87865803837E+03  0.00000000000E+00 0.  1.
         21   -1    0    0  501  503 -0.00000000000E+00 -0.00000000000E+00 -0.56543250304E+02  0.56543250304E+02  0.00000000000E+00 0.  1.
          6    1    1    2  501    0  0.10122206175E+03 -0.96901037893E+02  0.43379412519E+03  0.48758800229E+03  0.17300000000E+03 0.  1.
         -6    1    1    2    0  502 -0.10122206175E+03  0.96901037893E+02  0.38832066287E+03  0.44761328638E+03  0.17300000000E+03 0.  1.
</event>
<event>
 4    1  0.5821292E+000  0.1000000E+03  0.7546771E-02  0.1280296E+00
         21   -1    0    0  503  502  0.00000000000E+00  0.00000000000E+00  0.12231451898E+04  0.12231451898E+04  0.00000000000E+00 0.  1.
         21   -1    0    0  501  503 -0.00000000000E+00 -0.00000000000E+00 -0.38223575892E+02  0.38223575892E+02  0.00000000000E+00 0.  1.
          6    1    1    2  501    0 -0.11804045764E+01  0.77767162714E+02  0.28969056163E+03  0.34626398376E+03  0.17300000000E+03 0.  1.
         -6    1    1    2    0  502  0.11804045764E+01 -0.77767162714E+02  0.89523105224E+03  0.91510478189E+03  0.17300000000E+03 0.  1.
</event>
<event>
 4    1  0.5821292E+000  0.1000000E+03  0.7546771E-02  0.1280296E+00
         21   -1    0    0  503  502  0.00000000000E+00  0.00000000000E+00  0.40340520050E+03  0.40340520050E+03  0.00000000000E+00 0.  1.
         21   -1    0    0  501  503 -0.00000000000E+00 -0.00000000000E+00 -0.14335378171E+04  0.14335378171E+04  0.00000000000E+00 0.  1.
          6    1    1    2  501    0  0.50233451287E+03  0.66282444193E+02 -0.11673096512E+04  0.12842406889E+04  0.17300000000E+03 0.  1.
         -6    1    1    2    0  502 -0.50233451287E+03 -0.66282444193E+02  0.13717703468E+03  0.55270232863E+03  0.17300000000E+03 0.  1.
</event>
<event>
 4    1  0.5821292E+000  0.1000000E+03  0.7546771E-02  0.1280296E+00
         21   -1    0    0  503  502  0.00000000000E+00  0.00000000000E+00  0.67723809804E+02  0.67723809804E+02  0.00000000000E+00 0.  1.
         21   -1    0    0  501  503 -0.00000000000E+00 -0.00000000000E+00 -0.69981512983E+03  0.69981512983E+03  0.00000000000E+00 0.  1.
          6    1    1    2  501    0  0.12386867268E+02  0.16102682020E+02 -0.54624338427E+03  0.57334419480E+03  0.17300000000E+03 0.  1.
         -6    1    1    2    0  502 -0.12386867268E+02 -0.16102682020E+02 -0.85847935756E+02  0.19419474484E+03  0.17300000000E+03 0.  1.
</event>
<event>
 4    1  0.5821292E+000  0.1000000E+03  0.7546771E-02  0.1280296E+00
         21   -1    0    0  501  502  0.00000000000E+00  0.00000000000E+00  0.14914327852E+03  0.14914327852E+03  0.00000000000E+00 0.  1.
         21   -1    0    0  502  503 -0.00000000000E+00 -0.00000000000E+00 -0.26295904735E+03  0.26295904735E+03  0.00000000000E+00 0. -1.
          6    1    1    2  501    0 -0.44988787021E+02  0.56888159391E+02 -0.12295366710E+03  0.22429190331E+03  0.17300000000E+03 0.  1.
         -6    1    1    2    0  503  0.44988787021E+02 -0.56888159391E+02  0.91378982664E+01  0.18781042256E+03  0.17300000000E+03 0. -1.
</event>
<event>
 4    1  0.5821292E+000  0.1000000E+03  0.7546771E-02  0.1280296E+00
         21   -1    0    0  503  502  0.00000000000E+00  0.00000000000E+00  0.19426538734E+03  0.19426538734E+03  0.00000000000E+00 0.  1.
         21   -1    0    0  501  503 -0.00000000000E+00 -0.00000000000E+00 -0.28138763355E+03  0.28138763355E+03  0.00000000000E+00 0.  1.
          6    1    1    2  501    0  0.18336251033E+02 -0.13795051075E+03 -0.11809077389E+03  0.25147761808E+03  0.17300000000E+03 0.  1.
         -6    1    1    2    0  502 -0.18336251033E+02  0.13795051075E+03  0.30968527681E+02  0.22417540281E+03  0.17300000000E+03 0.  1.
</event>
<event>
 4    1  0.5821292E+000  0.1000000E+03  0.7546771E-02  0.1280296E+00
         21   -1    0    0  503  502  0.00000000000E+00  0.00000000000E+00  0.16494615268E+03  0.16494615268E+03  0.00000000000E+00 0.  1.
         21   -1    0    0  501  503 -0.00000000000E+00 -0.00000000000E+00 -0.56046299687E+03  0.56046299687E+03  0.00000000000E+00 0.  1.
          6    1    1    2  501    0  0.18448768536E+03 -0.11915253503E+03 -0.34033105161E+03  0.44043984532E+03  0.17300000000E+03 0.  1.
         -6    1    1    2    0  502 -0.18448768536E+03  0.11915253503E+03 -0.55185792574E+02  0.28496930423E+03  0.17300000000E+03 0.  1.
</event>
<event>
 4    1  0.5821292E+000  0.1000000E+03  0.7546771E-02  0.1280296E+00
         21   -1    0    0  503  502  0.00000000000E+00  0.00000000000E+00  0.89919352364E+02  0.89919352364E+02  0.00000000000E+00 0.  1.
         21   -1    0    0  501  503 -0.00000000000E+00 -0.00000000000E+00 -0.90821174910E+03  0.90821174910E+03  0.00000000000E+00 0. -1.
          6    1    1    2  501    0  0.17068323769E+03  0.45585380043E+02 -0.65934763556E+03  0.70418683530E+03  0.17300000000E+03 0. -1.
         -6    1    1    2    0  502 -0.17068323769E+03 -0.45585380043E+02 -0.15894476118E+03  0.29394426616E+03  0.17300000000E+03 0.  1.
</event>
<event>
 4    1  0.5821292E+000  0.1000000E+03  0.7546771E-02  0.1280296E+00
         21   -1    0    0  503  502  0.00000000000E+00  0.00000000000E+00  0.12617254564E+04  0.12617254564E+04  0.00000000000E+00 0.  1.
         21   -1    0    0  501  503 -0.00000000000E+00 -0.00000000000E+00 -0.10894389005E+04  0.10894389005E+04  0.00000000000E+00 0. -1.
          6    1    1    2  501    0  0.37188656852E+03  0.35249149005E+02 -0.10145871350E+04  0.10949238224E+04  0.17300000000E+03 0. -1.
         -6    1    1    2    0  502 -0.37188656852E+03 -0.35249149005E+02  0.11868736909E+04  0.12562405345E+04  0.17300000000E+03 0.  1.
</event>
<event>
 4    1  0.5821292E+000  0.1000000E+03  0.7546771E-02  0.1280296E+00
         21   -1    0    0  503  502  0.00000000000E+00  0.00000000000E+00  0.12480256293E+03  0.12480256293E+03  0.00000000000E+00 0.  1.
         21   -1    0    0  501  503 -0.00000000000E+00 -0.00000000000E+00 -0.77646550606E+03  0.77646550606E+03  0.00000000000E+00 0. -1.
          6    1    1    2  501    0  0.20145456509E+03  0.16233704310E+03 -0.31683439807E+03  0.44412868986E+03  0.17300000000E+03 0. -1.
         -6    1    1    2    0  502 -0.20145456509E+03 -0.16233704310E+03 -0.33482854506E+03  0.45713937913E+03  0.17300000000E+03 0.  1.
</event>
<event>
 4    1  0.5821292E+000  0.1000000E+03  0.7546771E-02  0.1280296E+00
         21   -1    0    0  503  502  0.00000000000E+00  0.00000000000E+00  0.22823609662E+04  0.22823609662E+04  0.00000000000E+00 0.  1.
         21   -1    0    0  501  503 -0.00000000000E+00 -0.00000000000E+00 -0.18475310829E+02  0.18475310829E+02  0.00000000000E+00 0. -1.
          6    1    1    2  501    0 -0.55637317325E+02  0.16721743817E+01  0.59634195551E+03  0.62341882804E+03  0.17300000000E+03 0. -1.
         -6    1    1    2    0  502  0.55637317325E+02 -0.16721743817E+01  0.16675436999E+04  0.16774174490E+04  0.17300000000E+03 0.  1.
</event>
<event>
 4    1  0.5821292E+000  0.1000000E+03  0.7546771E-02  0.1280296E+00
         21   -1    0    0  503  502  0.00000000000E+00  0.00000000000E+00  0.55959953361E+03  0.55959953361E+03  0.00000000000E+00 0.  1.
         21   -1    0    0  501  503 -0.00000000000E+00 -0.00000000000E+00 -0.45046008184E+03  0.45046008184E+03  0.00000000000E+00 0.  1.
          6    1    1    2  501    0  0.11330113870E+03  0.10783601916E+03 -0.39266373894E+03  0.45670512033E+03  0.17300000000E+03 0.  1.
         -6    1    1    2    0  502 -0.11330113870E+03 -0.10783601916E+03  0.50180319071E+03  0.55335449511E+03  0.17300000000E+03 0.  1.
</event>
<event>
 4    1  0.5821292E+000  0.1000000E+03  0.7546771E-02  0.1280296E+00
         21   -1    0    0  503  502  0.00000000000E+00  0.00000000000E+00  0.66351261786E+02  0.66351261786E+02  0.00000000000E+00 0.  1.
         21   -1    0    0  501  503 -0.00000000000E+00 -0.00000000000E+00 -0.57742592841E+03  0.57742592841E+03  0.00000000000E+00 0.  1.
          6    1    1    2  501    0 -0.66004893486E+02  0.53065457571E+02 -0.31277312718E+03  0.36732630975E+03  0.17300000000E+03 0.  1.
         -6    1    1    2    0  502  0.66004893486E+02 -0.53065457571E+02 -0.19830153944E+03  0.27645088044E+03  0.17300000000E+03 0.  1.
</event>
<event>
 4    1  0.5821292E+000  0.1000000E+03  0.7546771E-02  0.1280296E+00
         21   -1    0    0  501  502  0.00000000000E+00  0.00000000000E+00  0.21152212621E+03  0.21152212621E+03  0.00000000000E+00 0.  1.
         21   -1    0    0  502  503 -0.00000000000E+00 -0.00000000000E+00 -0.32231159042E+03  0.32231159042E+03  0.00000000000E+00 0.  1.
          6    1    1    2  501    0 -0.11173021279E+03  0.15561251217E+03 -0.15172603662E+02  0.25856933750E+03  0.17300000000E+03 0.  1.
         -6    1    1    2    0  503  0.11173021279E+03 -0.15561251217E+03 -0.95616860550E+02  0.27526437913E+03  0.17300000000E+03 0.  1.
</event>
<event>
 4    1  0.5821292E+000  0.1000000E+03  0.7546771E-02  0.1280296E+00
         21   -1    0    0  501  502  0.00000000000E+00  0.00000000000E+00  0.12871284334E+03  0.12871284334E+03  0.00000000000E+00 0.  1.
         21   -1    0    0  502  503 -0.00000000000E+00 -0.00000000000E+00 -0.57188909045E+03  0.57188909045E+03  0.00000000000E+00 0.  1.
          6    1    1    2  501    0 -0.24386578247E+02  0.91086335504E+02  0.19233645696E+02  0.19796554963E+03  0.17300000000E+03 0.  1.
         -6    1    1    2    0  503  0.24386578247E+02 -0.91086335504E+02 -0.46240989281E+03  0.50263638416E+03  0.17300000000E+03 0.  1.
</event>
<event>
 4    1  0.5821292E+000  0.1000000E+03  0.7546771E-02  0.1280296E+00
         21   -1    0    0  503  502  0.00000000000E+00  0.00000000000E+00  0.73272668838E+02  0.73272668838E+02  0.00000000000E+00 0. -1.
         21   -1    0    0  501  503 -0.00000000000E+00 -0.00000000000E+00 -0.12794342572E+04  0.12794342572E+04  0.00000000000E+00 0.  1.
          6    1    1    2  501    0 -0.27307944782E+02  0.92959367663E+02 -0.11184499901E+04  0.11358902008E+04  0.17300000000E+03 0.  1.
         -6    1    1    2    0  502  0.27307944782E+02 -0.92959367663E+02 -0.87711598281E+02  0.21681672527E+03  0.17300000000E+03 0. -1.
</event>
<event>
 4    1  0.5821292E+000  0.1000000E+03  0.7546771E-02  0.1280296E+00
         21   -1    0    0  503  502  0.00000000000E+00  0.00000000000E+00  0.15190672618E+03  0.15190672618E+03  0.00000000000E+00 0. -1.
         21   -1    0    0  501  503 -0.00000000000E+00 -0.00000000000E+00 -0.47777634277E+03  0.47777634277E+03  0.00000000000E+00 0.  1.
          6    1    1    2  501    0  0.12483009171E+03  0.82336217180E+02 -0.32938956556E+03  0.40098415225E+03  0.17300000000E+03 0.  1.
         -6    1    1    2    0  502 -0.12483009171E+03 -0.82336217180E+02  0.35199489663E+01  0.22869891669E+03  0.17300000000E+03 0. -1.
</event>
<event>
 4    1  0.5821292E+000  0.1000000E+03  0.7546771E-02  0.1280296E+00
         21   -1    0    0  503  502  0.00000000000E+00  0.00000000000E+00  0.64329124054E+02  0.64329124054E+02  0.00000000000E+00 0.  1.
         21   -1    0    0  501  503 -0.00000000000E+00 -0.00000000000E+00 -0.11901705789E+04  0.11901705789E+04  0.00000000000E+00 0.  1.
          6    1    1    2  501    0 -0.56711343119E+02 -0.83620346365E+02 -0.99556650757E+03  0.10155245983E+04  0.17300000000E+03 0.  1.
         -6    1    1    2    0  502  0.56711343119E+02  0.83620346365E+02 -0.13027494732E+03  0.23897510469E+03  0.17300000000E+03 0.  1.
</event>
<event>
 4    1  0.5821292E+000  0.1000000E+03  0.7546771E-02  0.1280296E+00
         21   -1    0    0  503  502  0.00000000000E+00  0.00000000000E+00  0.77031094413E+03  0.77031094413E+03  0.00000000000E+00 0.  1.
         21   -1    0    0  501  503 -0.00000000000E+00 -0.00000000000E+00 -0.62644620318E+02  0.62644620318E+02  0.00000000000E+00 0.  1.
          6    1    1    2  501    0  0.67121075831E+02 -0.11709655547E+02  0.13204871298E+03  0.22805310227E+03  0.17300000000E+03 0.  1.
         -6    1    1    2    0  502 -0.67121075831E+02  0.11709655547E+02  0.57561761083E+03  0.60490246218E+03  0.17300000000E+03 0.  1.
</event>
<event>
 4    1  0.5821292E+000  0.1000000E+03  0.7546771E-02  0.1280296E+00
         21   -1    0    0  501  502  0.00000000000E+00  0.00000000000E+00  0.33763691569E+03  0.33763691569E+03  0.00000000000E+00 0. -1.
         21   -1    0    0  502  503 -0.00000000000E+00 -0.00000000000E+00 -0.12824798340E+03  0.12824798340E+03  0.00000000000E+00 0. -1.
          6    1    1    2  501    0 -0.48705532213E+02  0.16096966401E+02  0.22071076059E+03  0.28508521714E+03  0.17300000000E+03 0. -1.
         -6    1    1    2    0  503  0.48705532213E+02 -0.16096966401E+02 -0.11321828299E+02  0.18079968195E+03  0.17300000000E+03 0. -1.
</event>
<event>
 4    1  0.5821292E+000  0.1000000E+03  0.7546771E-02  0.1280296E+00
         21   -1    0    0  501  502  0.00000000000E+00  0.00000000000E+00  0.18076645504E+03  0.18076645504E+03  0.00000000000E+00 0. -1.
         21   -1    0    0  502  503 -0.00000000000E+00 -0.00000000000E+00 -0.20412461656E+03  0.20412461656E+03  0.00000000000E+00 0. -1.
          6    1    1    2  501    0 -0.69292926673E+01  0.83178849082E+02 -0.99017444223E+01  0.19233767331E+03  0.17300000000E+03 0. -1.
         -6    1    1    2    0  503  0.69292926673E+01 -0.83178849082E+02 -0.13456417099E+02  0.19255339829E+03  0.17300000000E+03 0. -1.
</event>
<event>
 4    1  0.5821292E+000  0.1000000E+03  0.7546771E-02  0.1280296E+00
         21   -1    0    0  501  502  0.00000000000E+00  0.00000000000E+00  0.98443309898E+02  0.98443309898E+02  0.00000000000E+00 0. -1.
         21   -1    0    0  502  503 -0.00000000000E+00 -0.00000000000E+00 -0.54296421107E+03  0.54296421107E+03  0.00000000000E+00 0.  1.
          6    1    1    2  501    0  0.13784745062E+03  0.11332141372E+02 -0.31418879591E+03  0.38441375697E+03  0.17300000000E+03 0. -1.
         -6    1    1    2    0  503 -0.13784745062E+03 -0.11332141372E+02 -0.13033210526E+03  0.25699376400E+03  0.17300000000E+03 0.  1.
</event>
<event>
 4    1  0.5821292E+000  0.1000000E+03  0.7546771E-02  0.1280296E+00
         21   -1    0    0  501  502  0.00000000000E+00  0.00000000000E+00  0.13825779346E+03  0.13825779346E+03  0.00000000000E+00 0. -1.
         21   -1    0    0  502  503 -0.00000000000E+00 -0.00000000000E+00 -0.76409432701E+03  0.76409432701E+03  0.00000000000E+00 0.  1.
          6    1    1    2  501    0 -0.96097172442E+02  0.24443784017E+03 -0.19905439316E+03  0.37220448102E+03  0.17300000000E+03 0. -1.
         -6    1    1    2    0  503  0.96097172442E+02 -0.24443784017E+03 -0.42678214039E+03  0.53014763945E+03  0.17300000000E+03 0.  1.
</event>
<event>
 4    1  0.5821292E+000  0.1000000E+03  0.7546771E-02  0.1280296E+00
         21   -1    0    0  501  502  0.00000000000E+00  0.00000000000E+00  0.82371424484E+03  0.82371424484E+03  0.00000000000E+00 0. -1.
         21   -1    0    0  502  503 -0.00000000000E+00 -0.00000000000E+00 -0.33860127415E+03  0.33860127415E+03  0.00000000000E+00 0.  1.
          6    1    1    2  501    0  0.30330320510E+03 -0.39548751149E+03  0.21608927233E+03  0.57011119931E+03  0.17300000000E+03 0. -1.
         -6    1    1    2    0  503 -0.30330320510E+03  0.39548751149E+03  0.26902369837E+03  0.59220431968E+03  0.17300000000E+03 0.  1.
</event>
<event>
 4    1  0.5821292E+000  0.1000000E+03  0.7546771E-02  0.1280296E+00
         21   -1    0    0  501  502  0.00000000000E+00  0.00000000000E+00  0.20699290305E+03  0.20699290305E+03  0.00000000000E+00 0. -1.
         21   -1    0    0  502  503 -0.00000000000E+00 -0.00000000000E+00 -0.35939751291E+03  0.35939751291E+03  0.00000000000E+00 0. -1.
          6    1    1    2  501    0  0.64888423568E+02  0.15637146375E+03  0.54314240095E+02  0.24807575227E+03  0.17300000000E+03 0. -1.
         -6    1    1    2    0  503 -0.64888423568E+02 -0.15637146375E+03 -0.20671884996E+03  0.31831466368E+03  0.17300000000E+03 0. -1.
</event>
<event>
 4    1  0.5821292E+000  0.1000000E+03  0.7546771E-02  0.1280296E+00
         21   -1    0    0  501  502  0.00000000000E+00  0.00000000000E+00  0.10007905426E+04  0.10007905426E+04  0.00000000000E+00 0. -1.
         21   -1    0    0  502  503 -0.00000000000E+00 -0.00000000000E+00 -0.15832777403E+03  0.15832777403E+03  0.00000000000E+00 0. -1.
          6    1    1    2  501    0  0.11336974874E+03  0.14340941443E+02  0.91596781052E+03  0.93914024110E+03  0.17300000000E+03 0. -1.
         -6    1    1    2    0  503 -0.11336974874E+03 -0.14340941443E+02 -0.73505041943E+02  0.21997807555E+03  0.17300000000E+03 0. -1.
</event>
<event>
 4    1  0.5821292E+000  0.1000000E+03  0.7546771E-02  0.1280296E+00
         21   -1    0    0  503  502  0.00000000000E+00  0.00000000000E+00  0.79727840784E+03  0.79727840784E+03  0.00000000000E+00 0. -1.
         21   -1    0    0  501  503 -0.00000000000E+00 -0.00000000000E+00 -0.82459923183E+03  0.82459923183E+03  0.00000000000E+00 0.  1.
          6    1    1    2  501    0  0.12071050381E+03 -0.20824868296E+03 -0.76846455179E+03  0.82365363293E+03  0.17300000000E+03 0.  1.
         -6    1    1    2    0  502 -0.12071050381E+03  0.20824868296E+03  0.74114372780E+03  0.79822400674E+03  0.17300000000E+03 0. -1.
</event>
<event>
 4    1  0.5821292E+000  0.1000000E+03  0.7546771E-02  0.1280296E+00
         21   -1    0    0  503  502  0.00000000000E+00  0.00000000000E+00  0.31931808864E+03  0.31931808864E+03  0.00000000000E+00 0. -1.
         21   -1    0    0  501  503 -0.00000000000E+00 -0.00000000000E+00 -0.13756789959E+03  0.13756789959E+03  0.00000000000E+00 0.  1.
          6    1    1    2  501    0 -0.62679235985E+02  0.99816795499E+02  0.79609000126E+02  0.22396131851E+03  0.17300000000E+03 0.  1.
         -6    1    1    2    0  502  0.62679235985E+02 -0.99816795499E+02  0.10214118892E+03  0.23292466972E+03  0.17300000000E+03 0. -1.
</event>
<event>
 4    1  0.5821292E+000  0.1000000E+03  0.7546771E-02  0.1280296E+00
         21   -1    0    0  503  502  0.00000000000E+00  0.00000000000E+00  0.48245681374E+03  0.48245681374E+03  0.00000000000E+00 0. -1.
         21   -1    0    0  501  503 -0.00000000000E+00 -0.00000000000E+00 -0.13295438042E+03  0.13295438042E+03  0.00000000000E+00 0.  1.
          6    1    1    2  501    0 -0.12301195794E+03  0.12090047610E+03  0.93551038286E+02  0.26159064143E+03  0.17300000000E+03 0.  1.
         -6    1    1    2    0  502  0.12301195794E+03 -0.12090047610E+03  0.25595139503E+03  0.35382055273E+03  0.17300000000E+03 0. -1.
</event>
<event>
 4    1  0.5821292E+000  0.1000000E+03  0.7546771E-02  0.1280296E+00
         21   -1    0    0  503  502  0.00000000000E+00  0.00000000000E+00  0.63268128865E+03  0.63268128865E+03  0.00000000000E+00 0. -1.
         21   -1    0    0  501  503 -0.00000000000E+00 -0.00000000000E+00 -0.83878827236E+02  0.83878827236E+02  0.00000000000E+00 0.  1.
          6    1    1    2  501    0 -0.11343724561E+03  0.15351615974E+02  0.11859609260E+03  0.23895127952E+03  0.17300000000E+03 0.  1.
         -6    1    1    2    0  502  0.11343724561E+03 -0.15351615974E+02  0.43020636881E+03  0.47760883636E+03  0.17300000000E+03 0. -1.
</event>
<event>
 4    1  0.5821292E+000  0.1000000E+03  0.7546771E-02  0.1280296E+00
         21   -1    0    0  501  502  0.00000000000E+00  0.00000000000E+00  0.58159599632E+03  0.58159599632E+03  0.00000000000E+00 0. -1.
         21   -1    0    0  502  503 -0.00000000000E+00 -0.00000000000E+00 -0.19735184484E+03  0.19735184484E+03  0.00000000000E+00 0.  1.
          6    1    1    2  501    0  0.12466851540E+03 -0.11442444505E+03  0.46468866071E+03  0.52392723136E+03  0.17300000000E+03 0.  1.
         -6    1    1    2    0  503 -0.12466851540E+03  0.11442444505E+03 -0.80444509238E+02  0.25502060980E+03  0.17300000000E+03 0. -1.
</event>
<event>
 4    1  0.5821292E+000  0.1000000E+03  0.7546771E-02  0.1280296E+00
         21   -1    0    0  501  502  0.00000000000E+00  0.00000000000E+00  0.45372610862E+03  0.45372610862E+03  0.00000000000E+00 0. -1.
         21   -1    0    0  502  503 -0.00000000000E+00 -0.00000000000E+00 -0.77718423619E+02  0.77718423619E+02  0.00000000000E+00 0.  1.
          6    1    1    2  501    0 -0.19384854908E+02 -0.29240471148E+02  0.27864493475E+03  0.32985266016E+03  0.17300000000E+03 0.  1.
         -6    1    1    2    0  503  0.19384854908E+02  0.29240471148E+02  0.97362750256E+02  0.20159187208E+03  0.17300000000E+03 0. -1.
</event>
<event>
 4    1  0.5821292E+000  0.1000000E+03  0.7546771E-02  0.1280296E+00
         21   -1    0    0  501  502  0.00000000000E+00  0.00000000000E+00  0.43987043236E+03  0.43987043236E+03  0.00000000000E+00 0. -1.
         21   -1    0    0  502  503 -0.00000000000E+00 -0.00000000000E+00 -0.17440804002E+03  0.17440804002E+03  0.00000000000E+00 0.  1.
          6    1    1    2  501    0  0.91233648065E+02  0.16532550453E+03  0.24972776411E+03  0.35769967452E+03  0.17300000000E+03 0.  1.
         -6    1    1    2    0  503 -0.91233648065E+02 -0.16532550453E+03  0.15734628230E+02  0.25657879786E+03  0.17300000000E+03 0. -1.
</event>
<event>
 4    1  0.5821292E+000  0.1000000E+03  0.7546771E-02  0.1280296E+00
         21   -1    0    0  501  502  0.00000000000E+00  0.00000000000E+00  0.21520109868E+04  0.21520109868E+04  0.00000000000E+00 0. -1.
         21   -1    0    0  502  503 -0.00000000000E+00 -0.00000000000E+00 -0.66491145669E+02  0.66491145669E+02  0.00000000000E+00 0.  1.
          6    1    1    2  501    0  0.36879415856E+02 -0.13327896235E+03  0.19420002725E+04  0.19545888139E+04  0.17300000000E+03 0. -1.
         -6    1    1    2    0  503 -0.36879415856E+02  0.13327896235E+03  0.14351956860E+03  0.26391331851E+03  0.17300000000E+03 0.  1.
</event>
<event>
 4    1  0.5821292E+000  0.1000000E+03  0.7546771E-02  0.1280296E+00
         21   -1    0    0  501  502  0.00000000000E+00  0.00000000000E+00  0.36301264063E+03  0.36301264063E+03  0.00000000000E+00 0. -1.
         21   -1    0    0  502  503 -0.00000000000E+00 -0.00000000000E+00 -0.12763412174E+03  0.12763412174E+03  0.00000000000E+00 0.  1.
          6    1    1    2  501    0 -0.12486862000E+03  0.10515942108E+02  0.87512904973E+02  0.23084684498E+03  0.17300000000E+03 0. -1.
         -6    1    1    2    0  503  0.12486862000E+03 -0.10515942108E+02  0.14786561391E+03  0.25979991739E+03  0.17300000000E+03 0.  1.
</event>
<event>
 4    1  0.5821292E+000  0.1000000E+03  0.7546771E-02  0.1280296E+00
         21   -1    0    0  503  502  0.00000000000E+00  0.00000000000E+00  0.51773514871E+03  0.51773514871E+03  0.00000000000E+00 0. -1.
         21   -1    0    0  501  503 -0.00000000000E+00 -0.00000000000E+00 -0.71393523152E+02  0.71393523152E+02  0.00000000000E+00 0. -1.
          6    1    1    2  501    0 -0.73681297395E+02  0.25551499902E+02  0.17589450022E+03  0.25874637764E+03  0.17300000000E+03 0.  1.
         -6    1    1    2    0  502  0.73681297395E+02 -0.25551499902E+02  0.27044712534E+03  0.33038229423E+03  0.17300000000E+03 0.  1.
</event>
<event>
 4    1  0.5821292E+000  0.1000000E+03  0.7546771E-02  0.1280296E+00
         21   -1    0    0  503  502  0.00000000000E+00  0.00000000000E+00  0.26495193189E+03  0.26495193189E+03  0.00000000000E+00 0. -1.
         21   -1    0    0  501  503 -0.00000000000E+00 -0.00000000000E+00 -0.24609271368E+03  0.24609271368E+03  0.00000000000E+00 0. -1.
          6    1    1    2  501    0  0.75423598822E+02 -0.15064532910E+03 -0.73639054027E+02  0.25245681753E+03  0.17300000000E+03 0.  1.
         -6    1    1    2    0  502 -0.75423598822E+02  0.15064532910E+03  0.92498272235E+02  0.25858782803E+03  0.17300000000E+03 0.  1.
</event>
<event>
 4    1  0.5821292E+000  0.1000000E+03  0.7546771E-02  0.1280296E+00
         21   -1    0    0  503  502  0.00000000000E+00  0.00000000000E+00  0.30621657467E+03  0.30621657467E+03  0.00000000000E+00 0. -1.
         21   -1    0    0  501  503 -0.00000000000E+00 -0.00000000000E+00 -0.96192118743E+03  0.96192118743E+03  0.00000000000E+00 0. -1.
          6    1    1    2  501    0  0.90613269744E+02  0.20245819288E+03 -0.87010602791E+03  0.91444714682E+03  0.17300000000E+03 0.  1.
         -6    1    1    2    0  502 -0.90613269744E+02 -0.20245819288E+03  0.21440141515E+03  0.35369061528E+03  0.17300000000E+03 0.  1.
</event>
<event>
 4    1  0.5821292E+000  0.1000000E+03  0.7546771E-02  0.1280296E+00
         21   -1    0    0  503  502  0.00000000000E+00  0.00000000000E+00  0.39680147891E+03  0.39680147891E+03  0.00000000000E+00 0. -1.
         21   -1    0    0  501  503 -0.00000000000E+00 -0.00000000000E+00 -0.42754645162E+03  0.42754645162E+03  0.00000000000E+00 0. -1.
          6    1    1    2  501    0 -0.19029755084E+03 -0.23223393231E+02 -0.33648463289E+03  0.42415019983E+03  0.17300000000E+03 0. -1.
         -6    1    1    2    0  502  0.19029755084E+03  0.23223393231E+02  0.30573966018E+03  0.40019773070E+03  0.17300000000E+03 0. -1.
</event>
<event>
 4    1  0.5821292E+000  0.1000000E+03  0.7546771E-02  0.1280296E+00
         21   -1    0    0  501  502  0.00000000000E+00  0.00000000000E+00  0.34185755184E+03  0.34185755184E+03  0.00000000000E+00 0. -1.
         21   -1    0    0  502  503 -0.00000000000E+00 -0.00000000000E+00 -0.18179707658E+03  0.18179707658E+03  0.00000000000E+00 0. -1.
          6    1    1    2  501    0  0.12738261308E+02 -0.51854872224E+02  0.26001671988E+03  0.31684205165E+03  0.17300000000E+03 0. -1.
         -6    1    1    2    0  503 -0.12738261308E+02  0.51854872224E+02 -0.99956244622E+02  0.20681257678E+03  0.17300000000E+03 0. -1.
</event>
<event>
 4    1  0.5821292E+000  0.1000000E+03  0.7546771E-02  0.1280296E+00
         21   -1    0    0  501  502  0.00000000000E+00  0.00000000000E+00  0.28664811437E+03  0.28664811437E+03  0.00000000000E+00 0. -1.
         21   -1    0    0  502  503 -0.00000000000E+00 -0.00000000000E+00 -0.16543828920E+03  0.16543828920E+03  0.00000000000E+00 0. -1.
          6    1    1    2  501    0 -0.39370495717E+01 -0.38993620044E+01  0.19777413581E+03  0.26281992729E+03  0.17300000000E+03 0. -1.
         -6    1    1    2    0  503  0.39370495717E+01  0.38993620044E+01 -0.76564310637E+02  0.18926647629E+03  0.17300000000E+03 0. -1.
</event>
<event>
 4    1  0.5821292E+000  0.1000000E+03  0.7546771E-02  0.1280296E+00
         21   -1    0    0  503  502  0.00000000000E+00  0.00000000000E+00  0.10441386151E+04  0.10441386151E+04  0.00000000000E+00 0.  1.
         21   -1    0    0  501  503 -0.00000000000E+00 -0.00000000000E+00 -0.10748392603E+03  0.10748392603E+03  0.00000000000E+00 0.  1.
          6    1    1    2  501    0 -0.17107366008E+03 -0.16331689773E+03  0.18926178780E+03  0.34883754182E+03  0.17300000000E+03 0.  1.
         -6    1    1    2    0  502  0.17107366008E+03  0.16331689773E+03  0.74739290122E+03  0.80278499927E+03  0.17300000000E+03 0.  1.
</event>
<event>
 4    1  0.5821292E+000  0.1000000E+03  0.7546771E-02  0.1280296E+00
         21   -1    0    0  501  502  0.00000000000E+00  0.00000000000E+00  0.99844759948E+02  0.99844759948E+02  0.00000000000E+00 0.  1.
         21   -1    0    0  502  503 -0.00000000000E+00 -0.00000000000E+00 -0.39246201170E+03  0.39246201170E+03  0.00000000000E+00 0.  1.
          6    1    1    2  501    0 -0.95385605717E+02 -0.12437330533E+02 -0.14409311597E+03  0.24483653126E+03  0.17300000000E+03 0.  1.
         -6    1    1    2    0  503  0.95385605717E+02  0.12437330533E+02 -0.14852413578E+03  0.24747024039E+03  0.17300000000E+03 0.  1.
</event>
<event>
 4    1  0.5821292E+000  0.1000000E+03  0.7546771E-02  0.1280296E+00
         21   -1    0    0  501  502  0.00000000000E+00  0.00000000000E+00  0.10809831428E+03  0.10809831428E+03  0.00000000000E+00 0.  1.
         21   -1    0    0  502  503 -0.00000000000E+00 -0.00000000000E+00 -0.37561989809E+03  0.37561989809E+03  0.00000000000E+00 0.  1.
          6    1    1    2  501    0  0.72874716516E+02 -0.61067107760E+02 -0.85228310444E+02  0.21501809426E+03  0.17300000000E+03 0.  1.
         -6    1    1    2    0  503 -0.72874716516E+02  0.61067107760E+02 -0.18229327337E+03  0.26870011811E+03  0.17300000000E+03 0.  1.
</event>
<event>
 4    1  0.5821292E+000  0.1000000E+03  0.7546771E-02  0.1280296E+00
         21   -1    0    0  501  502  0.00000000000E+00  0.00000000000E+00  0.33773296187E+03  0.33773296187E+03  0.00000000000E+00 0.  1.
         21   -1    0    0  502  503 -0.00000000000E+00 -0.00000000000E+00 -0.19349882982E+03  0.19349882982E+03  0.00000000000E+00 0.  1.
          6    1    1    2  501    0  0.11383889776E+03 -0.13767980424E+03  0.13364756856E+03  0.28232197173E+03  0.17300000000E+03 0.  1.
         -6    1    1    2    0  503 -0.11383889776E+03  0.13767980424E+03  0.10586563485E+02  0.24890981995E+03  0.17300000000E+03 0.  1.
</event>
<event>
 4    1  0.5821292E+000  0.1000000E+03  0.7546771E-02  0.1280296E+00
         21   -1    0    0  501  502  0.00000000000E+00  0.00000000000E+00  0.61638638556E+03  0.61638638556E+03  0.00000000000E+00 0. -1.
         21   -1    0    0  502  503 -0.00000000000E+00 -0.00000000000E+00 -0.13048882725E+03  0.13048882725E+03  0.00000000000E+00 0. -1.
          6    1    1    2  501    0 -0.11230308898E+03 -0.40537189365E+02  0.49364202508E+03  0.53653210197E+03  0.17300000000E+03 0. -1.
         -6    1    1    2    0  503  0.11230308898E+03  0.40537189365E+02 -0.77444667734E+01  0.21034311085E+03  0.17300000000E+03 0. -1.
</event>
<event>
 4    1  0.5821292E+000  0.1000000E+03  0.7546771E-02  0.1280296E+00
         21   -1    0    0  501  502  0.00000000000E+00  0.00000000000E+00  0.54898639195E+03  0.54898639195E+03  0.00000000000E+00 0. -1.
         21   -1    0    0  502  503 -0.00000000000E+00 -0.00000000000E+00 -0.38283713269E+03  0.38283713269E+03  0.00000000000E+00 0. -1.
          6    1    1    2  501    0  0.39378649378E+02 -0.92587866455E+02  0.50224809292E+03  0.54065269618E+03  0.17300000000E+03 0. -1.
         -6    1    1    2    0  503 -0.39378649378E+02  0.92587866455E+02 -0.33609883367E+03  0.39117082845E+03  0.17300000000E+03 0. -1.
</event>
<event>
 4    1  0.5821292E+000  0.1000000E+03  0.7546771E-02  0.1280296E+00
         21   -1    0    0  501  502  0.00000000000E+00  0.00000000000E+00  0.76256700530E+02  0.76256700530E+02  0.00000000000E+00 0.  1.
         21   -1    0    0  502  503 -0.00000000000E+00 -0.00000000000E+00 -0.60511651813E+03  0.60511651813E+03  0.00000000000E+00 0. -1.
          6    1    1    2  501    0  0.45772737190E+02  0.18456660072E+02 -0.78259065297E+02  0.19618683206E+03  0.17300000000E+03 0.  1.
         -6    1    1    2    0  503 -0.45772737190E+02 -0.18456660072E+02 -0.45060075230E+03  0.48518638661E+03  0.17300000000E+03 0. -1.
</event>
<event>
 4    1  0.5821292E+000  0.1000000E+03  0.7546771E-02  0.1280296E+00
         21   -1    0    0  501  502  0.00000000000E+00  0.00000000000E+00  0.29189304793E+03  0.29189304793E+03  0.00000000000E+00 0.  1.
         21   -1    0    0  502  503 -0.00000000000E+00 -0.00000000000E+00 -0.16853565800E+03  0.16853565800E+03  0.00000000000E+00 0. -1.
          6    1    1    2  501    0 -0.49143762573E+02  0.11390198353E+03  0.12630375993E+03  0.24752860648E+03  0.17300000000E+03 0.  1.
         -6    1    1    2    0  503  0.49143762573E+02 -0.11390198353E+03 -0.29463699987E+01  0.21290009946E+03  0.17300000000E+03 0. -1.
</event>
<event>
 4    1  0.5821292E+000  0.1000000E+03  0.7546771E-02  0.1280296E+00
         21   -1    0    0  501  502  0.00000000000E+00  0.00000000000E+00  0.15509623100E+03  0.15509623100E+03  0.00000000000E+00 0.  1.
         21   -1    0    0  502  503 -0.00000000000E+00 -0.00000000000E+00 -0.29562708082E+03  0.29562708082E+03  0.00000000000E+00 0. -1.
          6    1    1    2  501    0  0.49204138514E+02  0.34560068518E+02  0.46487908164E+02  0.18895917863E+03  0.17300000000E+03 0.  1.
         -6    1    1    2    0  503 -0.49204138514E+02 -0.34560068518E+02 -0.18701875799E+03  0.26176413318E+03  0.17300000000E+03 0. -1.
</event>
<event>
 4    1  0.5821292E+000  0.1000000E+03  0.7546771E-02  0.1280296E+00
         21   -1    0    0  501  502  0.00000000000E+00  0.00000000000E+00  0.18733321747E+04  0.18733321747E+04  0.00000000000E+00 0. -1.
         21   -1    0    0  502  503 -0.00000000000E+00 -0.00000000000E+00 -0.37032426545E+02  0.37032426545E+02  0.00000000000E+00 0. -1.
          6    1    1    2  501    0 -0.14534366939E+03  0.39107049118E+02  0.13880706839E+04  0.14068842763E+04  0.17300000000E+03 0.  1.
         -6    1    1    2    0  503  0.14534366939E+03 -0.39107049118E+02  0.44822906429E+03  0.50348032494E+03  0.17300000000E+03 0.  1.
</event>
<event>
 4    1  0.5821292E+000  0.1000000E+03  0.7546771E-02  0.1280296E+00
         21   -1    0    0  501  502  0.00000000000E+00  0.00000000000E+00  0.26323766463E+03  0.26323766463E+03  0.00000000000E+00 0. -1.
         21   -1    0    0  502  503 -0.00000000000E+00 -0.00000000000E+00 -0.15251463088E+03  0.15251463088E+03  0.00000000000E+00 0. -1.
          6    1    1    2  501    0  0.71307525777E+02 -0.69528056366E+02  0.73321452922E+02  0.21265923284E+03  0.17300000000E+03 0.  1.
         -6    1    1    2    0  503 -0.71307525777E+02  0.69528056366E+02  0.37401580833E+02  0.20309306267E+03  0.17300000000E+03 0.  1.
</event>
<event>
 4    1  0.5821292E+000  0.1000000E+03  0.7546771E-02  0.1280296E+00
         21   -1    0    0  503  502  0.00000000000E+00  0.00000000000E+00  0.73151805191E+03  0.73151805191E+03  0.00000000000E+00 0.  1.
         21   -1    0    0  501  503 -0.00000000000E+00 -0.00000000000E+00 -0.46953467352E+02  0.46953467352E+02  0.00000000000E+00 0. -1.
          6    1    1    2  501    0 -0.33934410329E+02 -0.49952268421E+02  0.40061932984E+03  0.44053560670E+03  0.17300000000E+03 0. -1.
         -6    1    1    2    0  502  0.33934410329E+02  0.49952268421E+02  0.28394525471E+03  0.33793591256E+03  0.17300000000E+03 0. -1.
</event>
<event>
 4    1  0.5821292E+000  0.1000000E+03  0.7546771E-02  0.1280296E+00
         21   -1    0    0  501  502  0.00000000000E+00  0.00000000000E+00  0.56502274771E+02  0.56502274771E+02  0.00000000000E+00 0.  1.
         21   -1    0    0  502  503 -0.00000000000E+00 -0.00000000000E+00 -0.74467926272E+03  0.74467926272E+03  0.00000000000E+00 0. -1.
          6    1    1    2  501    0  0.71061198101E+02  0.56946385688E+02 -0.46533428385E+03  0.50473515872E+03  0.17300000000E+03 0.  1.
         -6    1    1    2    0  503 -0.71061198101E+02 -0.56946385688E+02 -0.22284270410E+03  0.29644637877E+03  0.17300000000E+03 0. -1.
</event>
<event>
 4    1  0.5821292E+000  0.1000000E+03  0.7546771E-02  0.1280296E+00
         21   -1    0    0  503  502  0.00000000000E+00  0.00000000000E+00  0.66773801656E+03  0.66773801656E+03  0.00000000000E+00 0. -1.
         21   -1    0    0  501  503 -0.00000000000E+00 -0.00000000000E+00 -0.13370258302E+03  0.13370258302E+03  0.00000000000E+00 0. -1.
          6    1    1    2  501    0 -0.91462211403E+02  0.15524518288E+03  0.47127246217E+02  0.25419752213E+03  0.17300000000E+03 0. -1.
         -6    1    1    2    0  502  0.91462211403E+02 -0.15524518288E+03  0.48690818732E+03  0.54724307744E+03  0.17300000000E+03 0. -1.
</event>
<event>
 4    1  0.5821292E+000  0.1000000E+03  0.7546771E-02  0.1280296E+00
         21   -1    0    0  501  502  0.00000000000E+00  0.00000000000E+00  0.79724490369E+03  0.79724490369E+03  0.00000000000E+00 0.  1.
         21   -1    0    0  502  503 -0.00000000000E+00 -0.00000000000E+00 -0.17215908805E+03  0.17215908805E+03  0.00000000000E+00 0.  1.
          6    1    1    2  501    0  0.13250754420E+03 -0.10686290720E+03  0.67874636487E+03  0.72083531963E+03  0.17300000000E+03 0. -1.
         -6    1    1    2    0  503 -0.13250754420E+03  0.10686290720E+03 -0.53660549230E+02  0.24856867210E+03  0.17300000000E+03 0. -1.
</event>
<event>
 4    1  0.5821292E+000  0.1000000E+03  0.7546771E-02  0.1280296E+00
         21   -1    0    0  501  502  0.00000000000E+00  0.00000000000E+00  0.13997033294E+03  0.13997033294E+03  0.00000000000E+00 0.  1.
         21   -1    0    0  502  503 -0.00000000000E+00 -0.00000000000E+00 -0.48352375653E+03  0.48352375653E+03  0.00000000000E+00 0.  1.
          6    1    1    2  501    0  0.26629221388E+02 -0.65763793078E+02  0.44971472259E+02  0.19231595157E+03  0.17300000000E+03 0. -1.
         -6    1    1    2    0  503 -0.26629221388E+02  0.65763793078E+02 -0.38852489585E+03  0.43117813790E+03  0.17300000000E+03 0. -1.
</event>
<event>
 4    1  0.5821292E+000  0.1000000E+03  0.7546771E-02  0.1280296E+00
         21   -1    0    0  501  502  0.00000000000E+00  0.00000000000E+00  0.11621907184E+03  0.11621907184E+03  0.00000000000E+00 0.  1.
         21   -1    0    0  502  503 -0.00000000000E+00 -0.00000000000E+00 -0.95753739229E+03  0.95753739229E+03  0.00000000000E+00 0.  1.
          6    1    1    2  501    0  0.19695382100E+03  0.20829591686E+02 -0.90322209120E+02  0.27804996126E+03  0.17300000000E+03 0. -1.
         -6    1    1    2    0  503 -0.19695382100E+03 -0.20829591686E+02 -0.75099611133E+03  0.79570650288E+03  0.17300000000E+03 0. -1.
</event>
<event>
 4    1  0.5821292E+000  0.1000000E+03  0.7546771E-02  0.1280296E+00
         21   -1    0    0  501  502  0.00000000000E+00  0.00000000000E+00  0.91019957747E+03  0.91019957747E+03  0.00000000000E+00 0. -1.
         21   -1    0    0  502  503 -0.00000000000E+00 -0.00000000000E+00 -0.59098894750E+02  0.59098894750E+02  0.00000000000E+00 0. -1.
          6    1    1    2  501    0  0.10924064145E+03  0.51549910616E+02  0.62676211654E+03  0.66132492903E+03  0.17300000000E+03 0. -1.
         -6    1    1    2    0  503 -0.10924064145E+03 -0.51549910616E+02  0.22433856618E+03  0.30797354319E+03  0.17300000000E+03 0. -1.
</event>
<event>
 4    1  0.5821292E+000  0.1000000E+03  0.7546771E-02  0.1280296E+00
         21   -1    0    0  501  502  0.00000000000E+00  0.00000000000E+00  0.16827341050E+03  0.16827341050E+03  0.00000000000E+00 0. -1.
         21   -1    0    0  502  503 -0.00000000000E+00 -0.00000000000E+00 -0.28304474695E+03  0.28304474695E+03  0.00000000000E+00 0. -1.
          6    1    1    2  501    0 -0.35592315256E+02  0.34263550923E+02  0.70341118755E+02  0.19317783728E+03  0.17300000000E+03 0. -1.
         -6    1    1    2    0  503  0.35592315256E+02 -0.34263550923E+02 -0.18511245521E+03  0.25814032017E+03  0.17300000000E+03 0. -1.
</event>
<event>
 4    1  0.5821292E+000  0.1000000E+03  0.7546771E-02  0.1280296E+00
         21   -1    0    0  503  502  0.00000000000E+00  0.00000000000E+00  0.11096868403E+03  0.11096868403E+03  0.00000000000E+00 0. -1.
         21   -1    0    0  501  503 -0.00000000000E+00 -0.00000000000E+00 -0.45831795634E+03  0.45831795634E+03  0.00000000000E+00 0.  1.
          6    1    1    2  501    0  0.35014871708E+02 -0.13116696781E+03 -0.23677202699E+03  0.32314208555E+03  0.17300000000E+03 0.  1.
         -6    1    1    2    0  502 -0.35014871708E+02  0.13116696781E+03 -0.11057724532E+03  0.24614455482E+03  0.17300000000E+03 0. -1.
</event>
<event>
 4    1  0.5821292E+000  0.1000000E+03  0.7546771E-02  0.1280296E+00
         21   -1    0    0  503  502  0.00000000000E+00  0.00000000000E+00  0.11159061592E+04  0.11159061592E+04  0.00000000000E+00 0. -1.
         21   -1    0    0  501  503 -0.00000000000E+00 -0.00000000000E+00 -0.44921570853E+02  0.44921570853E+02  0.00000000000E+00 0.  1.
          6    1    1    2  501    0  0.15806377551E+02 -0.13905097060E+03  0.59974135659E+03  0.63969032257E+03  0.17300000000E+03 0.  1.
         -6    1    1    2    0  502 -0.15806377551E+02  0.13905097060E+03  0.47124323179E+03  0.52113740750E+03  0.17300000000E+03 0. -1.
</event>
<event>
 4    1  0.5821292E+000  0.1000000E+03  0.7546771E-02  0.1280296E+00
         21   -1    0    0  503  502  0.00000000000E+00  0.00000000000E+00  0.11070560792E+04  0.11070560792E+04  0.00000000000E+00 0. -1.
         21   -1    0    0  501  503 -0.00000000000E+00 -0.00000000000E+00 -0.34814231660E+02  0.34814231660E+02  0.00000000000E+00 0.  1.
          6    1    1    2  501    0  0.81288842484E+02  0.31938990538E+02  0.62736282346E+03  0.65661334687E+03  0.17300000000E+03 0.  1.
         -6    1    1    2    0  502 -0.81288842484E+02 -0.31938990538E+02  0.44487902403E+03  0.48525696394E+03  0.17300000000E+03 0. -1.
</event>
<event>
 4    1  0.5821292E+000  0.1000000E+03  0.7546771E-02  0.1280296E+00
         21   -1    0    0  503  502  0.00000000000E+00  0.00000000000E+00  0.85636599073E+02  0.85636599073E+02  0.00000000000E+00 0. -1.
         21   -1    0    0  501  503 -0.00000000000E+00 -0.00000000000E+00 -0.99710166685E+03  0.99710166685E+03  0.00000000000E+00 0.  1.
          6    1    1    2  501    0 -0.10824681160E+03 -0.15580939164E+03 -0.71421218845E+03  0.75896112475E+03  0.17300000000E+03 0.  1.
         -6    1    1    2    0  502  0.10824681160E+03  0.15580939164E+03 -0.19725287932E+03  0.32377714117E+03  0.17300000000E+03 0. -1.
</event>
<event>
 4    1  0.5821292E+000  0.1000000E+03  0.7546771E-02  0.1280296E+00
         21   -1    0    0  501  502  0.00000000000E+00  0.00000000000E+00  0.33824312988E+03  0.33824312988E+03  0.00000000000E+00 0. -1.
         21   -1    0    0  502  503 -0.00000000000E+00 -0.00000000000E+00 -0.19747342161E+03  0.19747342161E+03  0.00000000000E+00 0.  1.
          6    1    1    2  501    0  0.14984872859E+03  0.73216533505E+01  0.19456860572E+03  0.30048991730E+03  0.17300000000E+03 0. -1.
         -6    1    1    2    0  503 -0.14984872859E+03 -0.73216533505E+01 -0.53798897452E+02  0.23522663419E+03  0.17300000000E+03 0.  1.
</event>
<event>
 4    1  0.5821292E+000  0.1000000E+03  0.7546771E-02  0.1280296E+00
         21   -1    0    0  501  502  0.00000000000E+00  0.00000000000E+00  0.17046706704E+03  0.17046706704E+03  0.00000000000E+00 0. -1.
         21   -1    0    0  502  503 -0.00000000000E+00 -0.00000000000E+00 -0.40774772038E+03  0.40774772038E+03  0.00000000000E+00 0.  1.
          6    1    1    2  501    0  0.93754884432E+02  0.10863889643E+03  0.32458768506E+02  0.22710121053E+03  0.17300000000E+03 0. -1.
         -6    1    1    2    0  503 -0.93754884432E+02 -0.10863889643E+03 -0.26973942185E+03  0.35111357689E+03  0.17300000000E+03 0.  1.
</event>
<event>
 4    1  0.5821292E+000  0.1000000E+03  0.7546771E-02  0.1280296E+00
         21   -1    0    0  501  502  0.00000000000E+00  0.00000000000E+00  0.80896369337E+02  0.80896369337E+02  0.00000000000E+00 0. -1.
         21   -1    0    0  502  503 -0.00000000000E+00 -0.00000000000E+00 -0.14284223823E+04  0.14284223823E+04  0.00000000000E+00 0.  1.
          6    1    1    2  501    0  0.20792739522E+03 -0.15070163035E+03 -0.36232249008E+03  0.47660399693E+03  0.17300000000E+03 0.  1.
         -6    1    1    2    0  503 -0.20792739522E+03  0.15070163035E+03 -0.98520352285E+03  0.10327147547E+04  0.17300000000E+03 0. -1.
</event>
<event>
 4    1  0.5821292E+000  0.1000000E+03  0.7546771E-02  0.1280296E+00
         21   -1    0    0  503  502  0.00000000000E+00  0.00000000000E+00  0.80403757656E+03  0.80403757656E+03  0.00000000000E+00 0.  1.
         21   -1    0    0  501  503 -0.00000000000E+00 -0.00000000000E+00 -0.27324236483E+03  0.27324236483E+03  0.00000000000E+00 0.  1.
          6    1    1    2  501    0  0.33426164285E+03  0.20454264242E+03  0.46753277936E+02  0.43090997603E+03  0.17300000000E+03 0.  1.
         -6    1    1    2    0  502 -0.33426164285E+03 -0.20454264242E+03  0.48404193379E+03  0.64636996536E+03  0.17300000000E+03 0.  1.
</event>
<event>
 4    1  0.5821292E+000  0.1000000E+03  0.7546771E-02  0.1280296E+00
         21   -1    0    0  503  502  0.00000000000E+00  0.00000000000E+00  0.10424550532E+03  0.10424550532E+03  0.00000000000E+00 0.  1.
         21   -1    0    0  501  503 -0.00000000000E+00 -0.00000000000E+00 -0.36644036602E+03  0.36644036602E+03  0.00000000000E+00 0.  1.
          6    1    1    2  501    0 -0.58172212612E+02  0.14906375762E+02 -0.21333607443E+03  0.28115384936E+03  0.17300000000E+03 0.  1.
         -6    1    1    2    0  502  0.58172212612E+02 -0.14906375762E+02 -0.48858786277E+02  0.18953202198E+03  0.17300000000E+03 0.  1.
</event>
<event>
 4    1  0.5821292E+000  0.1000000E+03  0.7546771E-02  0.1280296E+00
         21   -1    0    0  503  502  0.00000000000E+00  0.00000000000E+00  0.16528137923E+04  0.16528137923E+04  0.00000000000E+00 0.  1.
         21   -1    0    0  501  503 -0.00000000000E+00 -0.00000000000E+00 -0.21581334388E+02  0.21581334388E+02  0.00000000000E+00 0.  1.
          6    1    1    2  501    0  0.72143884361E+02 -0.22217019554E+01  0.71344543345E+03  0.73766053339E+03  0.17300000000E+03 0.  1.
         -6    1    1    2    0  502 -0.72143884361E+02  0.22217019554E+01  0.91778702445E+03  0.93673459328E+03  0.17300000000E+03 0.  1.
</event>
<event>
 4    1  0.5821292E+000  0.1000000E+03  0.7546771E-02  0.1280296E+00
         21   -1    0    0  503  502  0.00000000000E+00  0.00000000000E+00  0.41804218651E+02  0.41804218651E+02  0.00000000000E+00 0.  1.
         21   -1    0    0  501  503 -0.00000000000E+00 -0.00000000000E+00 -0.18427266324E+04  0.18427266324E+04  0.00000000000E+00 0. -1.
          6    1    1    2  501    0 -0.99869474830E+02  0.17444725160E+03 -0.62259389710E+03  0.67672587974E+03  0.17300000000E+03 0. -1.
         -6    1    1    2    0  502  0.99869474830E+02 -0.17444725160E+03 -0.11783285166E+04  0.12078049713E+04  0.17300000000E+03 0.  1.
</event>
<event>
 4    1  0.5821292E+000  0.1000000E+03  0.7546771E-02  0.1280296E+00
         21   -1    0    0  503  502  0.00000000000E+00  0.00000000000E+00  0.89654221119E+02  0.89654221119E+02  0.00000000000E+00 0. -1.
         21   -1    0    0  501  503 -0.00000000000E+00 -0.00000000000E+00 -0.77765234071E+03  0.77765234071E+03  0.00000000000E+00 0. -1.
          6    1    1    2  501    0  0.16623618015E+03  0.10666717026E+03 -0.38982203273E+03  0.47000273404E+03  0.17300000000E+03 0. -1.
         -6    1    1    2    0  502 -0.16623618015E+03 -0.10666717026E+03 -0.29817608685E+03  0.39730382778E+03  0.17300000000E+03 0. -1.
</event>
<event>
 4    1  0.5821292E+000  0.1000000E+03  0.7546771E-02  0.1280296E+00
         21   -1    0    0  503  502  0.00000000000E+00  0.00000000000E+00  0.25541437671E+03  0.25541437671E+03  0.00000000000E+00 0. -1.
         21   -1    0    0  501  503 -0.00000000000E+00 -0.00000000000E+00 -0.58877348241E+03  0.58877348241E+03  0.00000000000E+00 0. -1.
          6    1    1    2  501    0  0.20887334137E+02  0.13462346988E+03 -0.51412235905E+03  0.55929469821E+03  0.17300000000E+03 0. -1.
         -6    1    1    2    0  502 -0.20887334137E+02 -0.13462346988E+03  0.18076325336E+03  0.28489316091E+03  0.17300000000E+03 0. -1.
</event>
<event>
 4    1  0.5821292E+000  0.1000000E+03  0.7546771E-02  0.1280296E+00
         21   -1    0    0  501  502  0.00000000000E+00  0.00000000000E+00  0.88924730671E+02  0.88924730671E+02  0.00000000000E+00 0. -1.
         21   -1    0    0  502  503 -0.00000000000E+00 -0.00000000000E+00 -0.60999856012E+03  0.60999856012E+03  0.00000000000E+00 0.  1.
          6    1    1    2  501    0 -0.13713744134E+02 -0.30113745587E+02 -0.31895215750E+02  0.17900058447E+03  0.17300000000E+03 0.  1.
         -6    1    1    2    0  503  0.13713744134E+02  0.30113745587E+02 -0.48917861370E+03  0.51992270633E+03  0.17300000000E+03 0. -1.
</event>
<event>
 4    1  0.5821292E+000  0.1000000E+03  0.7546771E-02  0.1280296E+00
         21   -1    0    0  501  502  0.00000000000E+00  0.00000000000E+00  0.22736103240E+03  0.22736103240E+03  0.00000000000E+00 0. -1.
         21   -1    0    0  502  503 -0.00000000000E+00 -0.00000000000E+00 -0.86002469186E+03  0.86002469186E+03  0.00000000000E+00 0.  1.
          6    1    1    2  501    0  0.19385310578E+03 -0.35185687641E+03 -0.23641395280E+03  0.49719497702E+03  0.17300000000E+03 0.  1.
         -6    1    1    2    0  503 -0.19385310578E+03  0.35185687641E+03 -0.39624970666E+03  0.59019074723E+03  0.17300000000E+03 0. -1.
</event>
<event>
 4    1  0.5821292E+000  0.1000000E+03  0.7546771E-02  0.1280296E+00
         21   -1    0    0  501  502  0.00000000000E+00  0.00000000000E+00  0.97613491161E+03  0.97613491161E+03  0.00000000000E+00 0. -1.
         21   -1    0    0  502  503 -0.00000000000E+00 -0.00000000000E+00 -0.40729541131E+02  0.40729541131E+02  0.00000000000E+00 0.  1.
          6    1    1    2  501    0 -0.28773206665E+02 -0.85289014239E+02  0.36175393934E+03  0.41097083352E+03  0.17300000000E+03 0.  1.
         -6    1    1    2    0  503  0.28773206665E+02  0.85289014239E+02  0.57365143114E+03  0.60589361923E+03  0.17300000000E+03 0. -1.
</event>
<event>
 4    1  0.5821292E+000  0.1000000E+03  0.7546771E-02  0.1280296E+00
         21   -1    0    0  501  502  0.00000000000E+00  0.00000000000E+00  0.26105163465E+02  0.26105163465E+02  0.00000000000E+00 0.  1.
         21   -1    0    0  502  503 -0.00000000000E+00 -0.00000000000E+00 -0.13298570873E+04  0.13298570873E+04  0.00000000000E+00 0.  1.
          6    1    1    2  501    0  0.35965852768E+02 -0.18874019323E+01 -0.43691153321E+03  0.47129374355E+03  0.17300000000E+03 0.  1.
         -6    1    1    2    0  503 -0.35965852768E+02  0.18874019323E+01 -0.86684039062E+03  0.88466850722E+03  0.17300000000E+03 0.  1.
</event>
<event>
 4    1  0.5821292E+000  0.1000000E+03  0.7546771E-02  0.1280296E+00
         21   -1    0    0  503  502  0.00000000000E+00  0.00000000000E+00  0.16671709924E+03  0.16671709924E+03  0.00000000000E+00 0.  1.
         21   -1    0    0  501  503 -0.00000000000E+00 -0.00000000000E+00 -0.75785053839E+03  0.75785053839E+03  0.00000000000E+00 0.  1.
          6    1    1    2  501    0  0.13144667557E+03 -0.17361507215E+03 -0.58344742945E+03  0.64634381310E+03  0.17300000000E+03 0.  1.
         -6    1    1    2    0  502 -0.13144667557E+03  0.17361507215E+03 -0.76860096967E+01  0.27822382454E+03  0.17300000000E+03 0.  1.
</event>
<event>
 4    1  0.5821292E+000  0.1000000E+03  0.7546771E-02  0.1280296E+00
         21   -1    0    0  503  502  0.00000000000E+00  0.00000000000E+00  0.24558541197E+04  0.24558541197E+04  0.00000000000E+00 0.  1.
         21   -1    0    0  501  503 -0.00000000000E+00 -0.00000000000E+00 -0.35416010311E+02  0.35416010311E+02  0.00000000000E+00 0.  1.
          6    1    1    2  501    0 -0.23132175170E+03  0.52322778852E+02  0.10907460779E+04  0.11295589549E+04  0.17300000000E+03 0.  1.
         -6    1    1    2    0  502  0.23132175170E+03 -0.52322778852E+02  0.13296920315E+04  0.13617111752E+04  0.17300000000E+03 0.  1.
</event>
<event>
 4    1  0.5821292E+000  0.1000000E+03  0.7546771E-02  0.1280296E+00
         21   -1    0    0  503  502  0.00000000000E+00  0.00000000000E+00  0.24887960814E+03  0.24887960814E+03  0.00000000000E+00 0.  1.
         21   -1    0    0  501  503 -0.00000000000E+00 -0.00000000000E+00 -0.42623973705E+03  0.42623973705E+03  0.00000000000E+00 0.  1.
          6    1    1    2  501    0 -0.24422092225E+03 -0.12845500353E+03 -0.85600021795E+02  0.33675051675E+03  0.17300000000E+03 0.  1.
         -6    1    1    2    0  502  0.24422092225E+03  0.12845500353E+03 -0.91760107116E+02  0.33836882843E+03  0.17300000000E+03 0.  1.
</event>
<event>
 4    1  0.5821292E+000  0.1000000E+03  0.7546771E-02  0.1280296E+00
         21   -1    0    0  503  502  0.00000000000E+00  0.00000000000E+00  0.21735506371E+03  0.21735506371E+03  0.00000000000E+00 0.  1.
         21   -1    0    0  501  503 -0.00000000000E+00 -0.00000000000E+00 -0.30190823887E+03  0.30190823887E+03  0.00000000000E+00 0. -1.
          6    1    1    2  501    0  0.66826204456E+02 -0.14887884975E+03 -0.13875684605E+03  0.27534181635E+03  0.17300000000E+03 0.  1.
         -6    1    1    2    0  502 -0.66826204456E+02  0.14887884975E+03  0.54203670890E+02  0.24392148623E+03  0.17300000000E+03 0.  1.
</event>
<event>
 4    1  0.5821292E+000  0.1000000E+03  0.7546771E-02  0.1280296E+00
         21   -1    0    0  501  502  0.00000000000E+00  0.00000000000E+00  0.12813999140E+03  0.12813999140E+03  0.00000000000E+00 0. -1.
         21   -1    0    0  502  503 -0.00000000000E+00 -0.00000000000E+00 -0.49902554695E+03  0.49902554695E+03  0.00000000000E+00 0. -1.
          6    1    1    2  501    0  0.30230665108E+02  0.17008759816E+02  0.39188908234E+02  0.18074280498E+03  0.17300000000E+03 0. -1.
         -6    1    1    2    0  503 -0.30230665108E+02 -0.17008759816E+02 -0.41007446378E+03  0.44642273337E+03  0.17300000000E+03 0. -1.
</event>
<event>
 4    1  0.5821292E+000  0.1000000E+03  0.7546771E-02  0.1280296E+00
         21   -1    0    0  501  502  0.00000000000E+00  0.00000000000E+00  0.65950022793E+03  0.65950022793E+03  0.00000000000E+00 0. -1.
         21   -1    0    0  502  503 -0.00000000000E+00 -0.00000000000E+00 -0.99481879440E+02  0.99481879440E+02  0.00000000000E+00 0. -1.
          6    1    1    2  501    0  0.38563552313E+02 -0.84911922531E+02  0.52337538050E+03  0.55905989935E+03  0.17300000000E+03 0. -1.
         -6    1    1    2    0  503 -0.38563552313E+02  0.84911922531E+02  0.36642967993E+02  0.19992220802E+03  0.17300000000E+03 0. -1.
</event>
<event>
 4    1  0.5821292E+000  0.1000000E+03  0.7546771E-02  0.1280296E+00
         21   -1    0    0  503  502  0.00000000000E+00  0.00000000000E+00  0.48738371475E+03  0.48738371475E+03  0.00000000000E+00 0.  1.
         21   -1    0    0  501  503 -0.00000000000E+00 -0.00000000000E+00 -0.20094442638E+03  0.20094442638E+03  0.00000000000E+00 0.  1.
          6    1    1    2  501    0  0.60605667066E+01 -0.18806448558E+03 -0.55353823805E+02  0.26153016464E+03  0.17300000000E+03 0.  1.
         -6    1    1    2    0  502 -0.60605667066E+01  0.18806448558E+03  0.34179311217E+03  0.42679797649E+03  0.17300000000E+03 0.  1.
</event>
<event>
 4    1  0.5821292E+000  0.1000000E+03  0.7546771E-02  0.1280296E+00
         21   -1    0    0  503  502  0.00000000000E+00  0.00000000000E+00  0.42948268999E+03  0.42948268999E+03  0.00000000000E+00 0.  1.
         21   -1    0    0  501  503 -0.00000000000E+00 -0.00000000000E+00 -0.39910358551E+03  0.39910358551E+03  0.00000000000E+00 0.  1.
          6    1    1    2  501    0  0.96702132961E+02 -0.26511528105E+03 -0.23365760609E+03  0.40516946041E+03  0.17300000000E+03 0.  1.
         -6    1    1    2    0  502 -0.96702132961E+02  0.26511528105E+03  0.26403671057E+03  0.42341681508E+03  0.17300000000E+03 0.  1.
</event>
<event>
 4    1  0.5821292E+000  0.1000000E+03  0.7546771E-02  0.1280296E+00
         21   -1    0    0  503  502  0.00000000000E+00  0.00000000000E+00  0.16997400727E+03  0.16997400727E+03  0.00000000000E+00 0.  1.
         21   -1    0    0  501  503 -0.00000000000E+00 -0.00000000000E+00 -0.28719047820E+03  0.28719047820E+03  0.00000000000E+00 0.  1.
          6    1    1    2  501    0 -0.48940348604E+02 -0.34762762868E+02 -0.18650533721E+03  0.26137491886E+03  0.17300000000E+03 0.  1.
         -6    1    1    2    0  502  0.48940348604E+02  0.34762762868E+02  0.69288866280E+02  0.19578956661E+03  0.17300000000E+03 0.  1.
</event>
<event>
 4    1  0.5821292E+000  0.1000000E+03  0.7546771E-02  0.1280296E+00
         21   -1    0    0  503  502  0.00000000000E+00  0.00000000000E+00  0.35668690014E+03  0.35668690014E+03  0.00000000000E+00 0.  1.
         21   -1    0    0  501  503 -0.00000000000E+00 -0.00000000000E+00 -0.11830594457E+03  0.11830594457E+03  0.00000000000E+00 0.  1.
          6    1    1    2  501    0 -0.97748073962E+02  0.28072675724E+02  0.68446366936E+02  0.21202987108E+03  0.17300000000E+03 0.  1.
         -6    1    1    2    0  502  0.97748073962E+02 -0.28072675724E+02  0.16993458864E+03  0.26296297363E+03  0.17300000000E+03 0.  1.
</event>
<event>
 4    1  0.5821292E+000  0.1000000E+03  0.7546771E-02  0.1280296E+00
         21   -1    0    0  501  502  0.00000000000E+00  0.00000000000E+00  0.56394733050E+03  0.56394733050E+03  0.00000000000E+00 0. -1.
         21   -1    0    0  502  503 -0.00000000000E+00 -0.00000000000E+00 -0.21250120456E+03  0.21250120456E+03  0.00000000000E+00 0. -1.
          6    1    1    2  501    0 -0.82402068030E+02 -0.53538475451E+02  0.49342224795E+03  0.53202536024E+03  0.17300000000E+03 0. -1.
         -6    1    1    2    0  503  0.82402068030E+02  0.53538475451E+02 -0.14197612201E+03  0.24442317482E+03  0.17300000000E+03 0. -1.
</event>
<event>
 4    1  0.5821292E+000  0.1000000E+03  0.7546771E-02  0.1280296E+00
         21   -1    0    0  501  502  0.00000000000E+00  0.00000000000E+00  0.46435369005E+03  0.46435369005E+03  0.00000000000E+00 0. -1.
         21   -1    0    0  502  503 -0.00000000000E+00 -0.00000000000E+00 -0.76119835521E+02  0.76119835521E+02  0.00000000000E+00 0. -1.
          6    1    1    2  501    0 -0.22739273948E+01  0.56909410435E+02  0.26113135923E+03  0.31837468259E+03  0.17300000000E+03 0. -1.
         -6    1    1    2    0  503  0.22739273948E+01 -0.56909410435E+02  0.12710249530E+03  0.22209884298E+03  0.17300000000E+03 0. -1.
</event>
<event>
 4    1  0.5821292E+000  0.1000000E+03  0.7546771E-02  0.1280296E+00
         21   -1    0    0  501  502  0.00000000000E+00  0.00000000000E+00  0.66511817517E+03  0.66511817517E+03  0.00000000000E+00 0.  1.
         21   -1    0    0  502  503 -0.00000000000E+00 -0.00000000000E+00 -0.11493551166E+03  0.11493551166E+03  0.00000000000E+00 0.  1.
          6    1    1    2  501    0 -0.17865974315E+02  0.21492258188E+03  0.27848525936E+03  0.39242062754E+03  0.17300000000E+03 0.  1.
         -6    1    1    2    0  503  0.17865974315E+02 -0.21492258188E+03  0.27169740415E+03  0.38763305930E+03  0.17300000000E+03 0.  1.
</event>
<event>
 4    1  0.5821292E+000  0.1000000E+03  0.7546771E-02  0.1280296E+00
         21   -1    0    0  503  502  0.00000000000E+00  0.00000000000E+00  0.11239049632E+03  0.11239049632E+03  0.00000000000E+00 0. -1.
         21   -1    0    0  501  503 -0.00000000000E+00 -0.00000000000E+00 -0.43669189261E+03  0.43669189261E+03  0.00000000000E+00 0. -1.
          6    1    1    2  501    0  0.55355440800E+02 -0.66014623624E+02 -0.29636015539E+03  0.35380855990E+03  0.17300000000E+03 0. -1.
         -6    1    1    2    0  502 -0.55355440800E+02  0.66014623624E+02 -0.27941240899E+02  0.19527382902E+03  0.17300000000E+03 0. -1.
</event>
<event>
 4    1  0.5821292E+000  0.1000000E+03  0.7546771E-02  0.1280296E+00
         21   -1    0    0  503  502  0.00000000000E+00  0.00000000000E+00  0.62584711022E+03  0.62584711022E+03  0.00000000000E+00 0.  1.
         21   -1    0    0  501  503 -0.00000000000E+00 -0.00000000000E+00 -0.18339691846E+03  0.18339691846E+03  0.00000000000E+00 0. -1.
          6    1    1    2  501    0  0.15623969369E+03  0.94378198269E+02 -0.49890877137E+02  0.25639068979E+03  0.17300000000E+03 0. -1.
         -6    1    1    2    0  502 -0.15623969369E+03 -0.94378198269E+02  0.49234106890E+03  0.55285333888E+03  0.17300000000E+03 0.  1.
</event>
<event>
 4    1  0.5821292E+000  0.1000000E+03  0.7546771E-02  0.1280296E+00
         21   -1    0    0  503  502  0.00000000000E+00  0.00000000000E+00  0.86322092470E+03  0.86322092470E+03  0.00000000000E+00 0.  1.
         21   -1    0    0  501  503 -0.00000000000E+00 -0.00000000000E+00 -0.13305208129E+03  0.13305208129E+03  0.00000000000E+00 0. -1.
          6    1    1    2  501    0 -0.12073223677E+03 -0.94434480023E+02  0.77743144852E+00  0.23113577917E+03  0.17300000000E+03 0. -1.
         -6    1    1    2    0  502  0.12073223677E+03  0.94434480023E+02  0.72939141197E+03  0.76513722682E+03  0.17300000000E+03 0.  1.
</event>
<event>
 4    1  0.5821292E+000  0.1000000E+03  0.7546771E-02  0.1280296E+00
         21   -1    0    0  503  502  0.00000000000E+00  0.00000000000E+00  0.54941589132E+03  0.54941589132E+03  0.00000000000E+00 0.  1.
         21   -1    0    0  501  503 -0.00000000000E+00 -0.00000000000E+00 -0.24316751955E+03  0.24316751955E+03  0.00000000000E+00 0.  1.
          6    1    1    2  501    0  0.15968198167E+03 -0.14760936631E+03 -0.10432436645E+03  0.29681548768E+03  0.17300000000E+03 0.  1.
         -6    1    1    2    0  502 -0.15968198167E+03  0.14760936631E+03  0.41057273823E+03  0.49576792319E+03  0.17300000000E+03 0.  1.
</event>
<event>
 4    1  0.5821292E+000  0.1000000E+03  0.7546771E-02  0.1280296E+00
         21   -1    0    0  501  502  0.00000000000E+00  0.00000000000E+00  0.87524653348E+02  0.87524653348E+02  0.00000000000E+00 0. -1.
         21   -1    0    0  502  503 -0.00000000000E+00 -0.00000000000E+00 -0.36273591993E+03  0.36273591993E+03  0.00000000000E+00 0.  1.
          6    1    1    2  501    0  0.20175837493E+02 -0.29756988182E+02 -0.10860594078E+03  0.20740490143E+03  0.17300000000E+03 0.  1.
         -6    1    1    2    0  503 -0.20175837493E+02  0.29756988182E+02 -0.16660532581E+03  0.24285567185E+03  0.17300000000E+03 0. -1.
</event>
<event>
 4    1  0.5821292E+000  0.1000000E+03  0.7546771E-02  0.1280296E+00
         21   -1    0    0  503  502  0.00000000000E+00  0.00000000000E+00  0.37603901600E+03  0.37603901600E+03  0.00000000000E+00 0. -1.
         21   -1    0    0  501  503 -0.00000000000E+00 -0.00000000000E+00 -0.86460895083E+03  0.86460895083E+03  0.00000000000E+00 0. -1.
          6    1    1    2  501    0 -0.91025175898E+02 -0.13818450686E+03 -0.80728893326E+03  0.84203620014E+03  0.17300000000E+03 0. -1.
         -6    1    1    2    0  502  0.91025175898E+02  0.13818450686E+03  0.31871899843E+03  0.39861176669E+03  0.17300000000E+03 0. -1.
</event>
<event>
 4    1  0.5821292E+000  0.1000000E+03  0.7546771E-02  0.1280296E+00
         21   -1    0    0  503  502  0.00000000000E+00  0.00000000000E+00  0.33580771922E+03  0.33580771922E+03  0.00000000000E+00 0. -1.
         21   -1    0    0  501  503 -0.00000000000E+00 -0.00000000000E+00 -0.21633379225E+03  0.21633379225E+03  0.00000000000E+00 0.  1.
          6    1    1    2  501    0  0.19466429802E+03 -0.69449204634E+02  0.59306748885E+02  0.27597766469E+03  0.17300000000E+03 0.  1.
         -6    1    1    2    0  502 -0.19466429802E+03  0.69449204634E+02  0.60167178083E+02  0.27616384677E+03  0.17300000000E+03 0. -1.
</event>
<event>
 4    1  0.5821292E+000  0.1000000E+03  0.7546771E-02  0.1280296E+00
         21   -1    0    0  503  502  0.00000000000E+00  0.00000000000E+00  0.41263643430E+02  0.41263643430E+02  0.00000000000E+00 0. -1.
         21   -1    0    0  501  503 -0.00000000000E+00 -0.00000000000E+00 -0.99715303384E+03  0.99715303384E+03  0.00000000000E+00 0.  1.
          6    1    1    2  501    0 -0.24369752675E+02  0.10300325745E+03 -0.48738807466E+03  0.52790121349E+03  0.17300000000E+03 0.  1.
         -6    1    1    2    0  502  0.24369752675E+02 -0.10300325745E+03 -0.46850131575E+03  0.51051546377E+03  0.17300000000E+03 0. -1.
</event>
<event>
 4    1  0.5821292E+000  0.1000000E+03  0.7546771E-02  0.1280296E+00
         21   -1    0    0  503  502  0.00000000000E+00  0.00000000000E+00  0.27785832017E+03  0.27785832017E+03  0.00000000000E+00 0. -1.
         21   -1    0    0  501  503 -0.00000000000E+00 -0.00000000000E+00 -0.37847929173E+03  0.37847929173E+03  0.00000000000E+00 0.  1.
          6    1    1    2  501    0 -0.19998354008E+03  0.18759719950E+03 -0.57357602461E+02  0.32924917635E+03  0.17300000000E+03 0.  1.
         -6    1    1    2    0  502  0.19998354008E+03 -0.18759719950E+03 -0.43263369098E+02  0.32708843555E+03  0.17300000000E+03 0. -1.
</event>
<event>
 4    1  0.5821292E+000  0.1000000E+03  0.7546771E-02  0.1280296E+00
         21   -1    0    0  503  502  0.00000000000E+00  0.00000000000E+00  0.90434647835E+02  0.90434647835E+02  0.00000000000E+00 0. -1.
         21   -1    0    0  501  503 -0.00000000000E+00 -0.00000000000E+00 -0.35276926478E+03  0.35276926478E+03  0.00000000000E+00 0.  1.
          6    1    1    2  501    0 -0.15783754030E+02 -0.28773757433E+02 -0.94019095045E+02  0.19961374262E+03  0.17300000000E+03 0.  1.
         -6    1    1    2    0  502  0.15783754030E+02  0.28773757433E+02 -0.16831552190E+03  0.24359017000E+03  0.17300000000E+03 0. -1.
</event>
<event>
 4    1  0.5821292E+000  0.1000000E+03  0.7546771E-02  0.1280296E+00
         21   -1    0    0  501  502  0.00000000000E+00  0.00000000000E+00  0.69887359098E+03  0.69887359098E+03  0.00000000000E+00 0. -1.
         21   -1    0    0  502  503 -0.00000000000E+00 -0.00000000000E+00 -0.85123248068E+02  0.85123248068E+02  0.00000000000E+00 0. -1.
          6    1    1    2  501    0  0.13019593460E+01  0.34741052823E+02  0.57749432685E+03  0.60385207907E+03  0.17300000000E+03 0. -1.
         -6    1    1    2    0  503 -0.13019593460E+01 -0.34741052823E+02  0.36256016067E+02  0.18014475999E+03  0.17300000000E+03 0. -1.
</event>
<event>
 4    1  0.5821292E+000  0.1000000E+03  0.7546771E-02  0.1280296E+00
         21   -1    0    0  501  502  0.00000000000E+00  0.00000000000E+00  0.37834762530E+03  0.37834762530E+03  0.00000000000E+00 0. -1.
         21   -1    0    0  502  503 -0.00000000000E+00 -0.00000000000E+00 -0.13996435173E+03  0.13996435173E+03  0.00000000000E+00 0. -1.
          6    1    1    2  501    0 -0.73835168784E+02 -0.12942949872E+03  0.15149062522E+03  0.27401101587E+03  0.17300000000E+03 0. -1.
         -6    1    1    2    0  503  0.73835168784E+02  0.12942949872E+03  0.86892648354E+02  0.24430096116E+03  0.17300000000E+03 0. -1.
</event>
<event>
 4    1  0.5821292E+000  0.1000000E+03  0.7546771E-02  0.1280296E+00
         21   -1    0    0  501  502  0.00000000000E+00  0.00000000000E+00  0.48610413756E+02  0.48610413756E+02  0.00000000000E+00 0. -1.
         21   -1    0    0  502  503 -0.00000000000E+00 -0.00000000000E+00 -0.10713001009E+04  0.10713001009E+04  0.00000000000E+00 0. -1.
          6    1    1    2  501    0 -0.10064886631E+03  0.62761351705E+02 -0.29080385876E+03  0.35855971027E+03  0.17300000000E+03 0. -1.
         -6    1    1    2    0  503  0.10064886631E+03 -0.62761351705E+02 -0.73188582839E+03  0.76135080440E+03  0.17300000000E+03 0. -1.
</event>
<event>
 4    1  0.5821292E+000  0.1000000E+03  0.7546771E-02  0.1280296E+00
         21   -1    0    0  501  502  0.00000000000E+00  0.00000000000E+00  0.13645730552E+04  0.13645730552E+04  0.00000000000E+00 0. -1.
         21   -1    0    0  502  503 -0.00000000000E+00 -0.00000000000E+00 -0.12825463789E+03  0.12825463789E+03  0.00000000000E+00 0. -1.
          6    1    1    2  501    0  0.19672669014E+03 -0.86388212169E+02  0.11793179452E+04  0.12111499204E+04  0.17300000000E+03 0. -1.
         -6    1    1    2    0  503 -0.19672669014E+03  0.86388212169E+02  0.57000472138E+02  0.28167777271E+03  0.17300000000E+03 0. -1.
</event>
<event>
 4    1  0.5821292E+000  0.1000000E+03  0.7546771E-02  0.1280296E+00
         21   -1    0    0  501  502  0.00000000000E+00  0.00000000000E+00  0.47788120719E+03  0.47788120719E+03  0.00000000000E+00 0. -1.
         21   -1    0    0  502  503 -0.00000000000E+00 -0.00000000000E+00 -0.30158151957E+03  0.30158151957E+03  0.00000000000E+00 0. -1.
          6    1    1    2  501    0  0.12329126860E+03 -0.20215417904E+03  0.33565320858E+03  0.44571193101E+03  0.17300000000E+03 0. -1.
         -6    1    1    2    0  503 -0.12329126860E+03  0.20215417904E+03 -0.15935352095E+03  0.33375079574E+03  0.17300000000E+03 0. -1.
</event>
<event>
 4    1  0.5821292E+000  0.1000000E+03  0.7546771E-02  0.1280296E+00
         21   -1    0    0  501  502  0.00000000000E+00  0.00000000000E+00  0.12208477720E+03  0.12208477720E+03  0.00000000000E+00 0. -1.
         21   -1    0    0  502  503 -0.00000000000E+00 -0.00000000000E+00 -0.31744104538E+03  0.31744104538E+03  0.00000000000E+00 0. -1.
          6    1    1    2  501    0  0.46978243373E+02  0.20661319255E+02 -0.98359447780E+01  0.18071964828E+03  0.17300000000E+03 0. -1.
         -6    1    1    2    0  503 -0.46978243373E+02 -0.20661319255E+02 -0.18552032340E+03  0.25880617430E+03  0.17300000000E+03 0. -1.
</event>
<event>
 4    1  0.5821292E+000  0.1000000E+03  0.7546771E-02  0.1280296E+00
         21   -1    0    0  501  502  0.00000000000E+00  0.00000000000E+00  0.73149300752E+02  0.73149300752E+02  0.00000000000E+00 0. -1.
         21   -1    0    0  502  503 -0.00000000000E+00 -0.00000000000E+00 -0.84291653821E+03  0.84291653821E+03  0.00000000000E+00 0. -1.
          6    1    1    2  501    0  0.59492879015E+01 -0.17779694737E+03 -0.36811847354E+03  0.44394522081E+03  0.17300000000E+03 0. -1.
         -6    1    1    2    0  503 -0.59492879015E+01  0.17779694737E+03 -0.40164876392E+03  0.47212061815E+03  0.17300000000E+03 0. -1.
</event>
<event>
 4    1  0.5821292E+000  0.1000000E+03  0.7546771E-02  0.1280296E+00
         21   -1    0    0  501  502  0.00000000000E+00  0.00000000000E+00  0.18421508388E+03  0.18421508388E+03  0.00000000000E+00 0. -1.
         21   -1    0    0  502  503 -0.00000000000E+00 -0.00000000000E+00 -0.39675332931E+03  0.39675332931E+03  0.00000000000E+00 0. -1.
          6    1    1    2  501    0 -0.33020039596E+02 -0.19451136445E+03 -0.36353745550E+02  0.26490675478E+03  0.17300000000E+03 0. -1.
         -6    1    1    2    0  503  0.33020039596E+02  0.19451136445E+03 -0.17618449989E+03  0.31606165841E+03  0.17300000000E+03 0. -1.
</event>
<event>
 4    1  0.5821292E+000  0.1000000E+03  0.7546771E-02  0.1280296E+00
         21   -1    0    0  501  502  0.00000000000E+00  0.00000000000E+00  0.29068252144E+02  0.29068252144E+02  0.00000000000E+00 0.  1.
         21   -1    0    0  502  503 -0.00000000000E+00 -0.00000000000E+00 -0.12838195615E+04  0.12838195615E+04  0.00000000000E+00 0. -1.
          6    1    1    2  501    0  0.85601393063E+02 -0.78596098309E+01 -0.62691021101E+03  0.65599907365E+03  0.17300000000E+03 0.  1.
         -6    1    1    2    0  503 -0.85601393063E+02  0.78596098309E+01 -0.62784109839E+03  0.65688874004E+03  0.17300000000E+03 0. -1.
</event>
<event>
 4    1  0.5821292E+000  0.1000000E+03  0.7546771E-02  0.1280296E+00
         21   -1    0    0  503  502  0.00000000000E+00  0.00000000000E+00  0.33631490592E+03  0.33631490592E+03  0.00000000000E+00 0.  1.
         21   -1    0    0  501  503 -0.00000000000E+00 -0.00000000000E+00 -0.15526948635E+03  0.15526948635E+03  0.00000000000E+00 0.  1.
          6    1    1    2  501    0  0.49386320027E+02  0.21821254687E+01 -0.61006313688E+02  0.18998563258E+03  0.17300000000E+03 0.  1.
         -6    1    1    2    0  502 -0.49386320027E+02 -0.21821254687E+01  0.24205173325E+03  0.30159875969E+03  0.17300000000E+03 0.  1.
</event>
<event>
 4    1  0.5821292E+000  0.1000000E+03  0.7546771E-02  0.1280296E+00
         21   -1    0    0  503  502  0.00000000000E+00  0.00000000000E+00  0.66206312773E+03  0.66206312773E+03  0.00000000000E+00 0.  1.
         21   -1    0    0  501  503 -0.00000000000E+00 -0.00000000000E+00 -0.18693134906E+03  0.18693134906E+03  0.00000000000E+00 0.  1.
          6    1    1    2  501    0 -0.62381802659E+02  0.33283639128E+02 -0.12207492650E+03  0.22322763632E+03  0.17300000000E+03 0.  1.
         -6    1    1    2    0  502  0.62381802659E+02 -0.33283639128E+02  0.59720670516E+03  0.62576684047E+03  0.17300000000E+03 0.  1.
</event>
<event>
 4    1  0.5821292E+000  0.1000000E+03  0.7546771E-02  0.1280296E+00
         21   -1    0    0  503  502  0.00000000000E+00  0.00000000000E+00  0.72046768690E+03  0.72046768690E+03  0.00000000000E+00 0.  1.
         21   -1    0    0  501  503 -0.00000000000E+00 -0.00000000000E+00 -0.85914714400E+02  0.85914714400E+02  0.00000000000E+00 0.  1.
          6    1    1    2  501    0 -0.67612949622E+02  0.15604259720E+03  0.22779220238E+03  0.33277483463E+03  0.17300000000E+03 0.  1.
         -6    1    1    2    0  502  0.67612949622E+02 -0.15604259720E+03  0.40676077012E+03  0.47360756667E+03  0.17300000000E+03 0.  1.
</event>
<event>
 4    1  0.5821292E+000  0.1000000E+03  0.7546771E-02  0.1280296E+00
         21   -1    0    0  503  502  0.00000000000E+00  0.00000000000E+00  0.22801741122E+03  0.22801741122E+03  0.00000000000E+00 0. -1.
         21   -1    0    0  501  503 -0.00000000000E+00 -0.00000000000E+00 -0.43811662019E+03  0.43811662019E+03  0.00000000000E+00 0. -1.
          6    1    1    2  501    0 -0.12493540220E+03  0.20880276393E+03 -0.21436833530E+03  0.36754623128E+03  0.17300000000E+03 0. -1.
         -6    1    1    2    0  502  0.12493540220E+03 -0.20880276393E+03  0.42691263244E+01  0.29858780013E+03  0.17300000000E+03 0. -1.
</event>
<event>
 4    1  0.5821292E+000  0.1000000E+03  0.7546771E-02  0.1280296E+00
         21   -1    0    0  503  502  0.00000000000E+00  0.00000000000E+00  0.77205972925E+02  0.77205972925E+02  0.00000000000E+00 0. -1.
         21   -1    0    0  501  503 -0.00000000000E+00 -0.00000000000E+00 -0.68704485392E+03  0.68704485392E+03  0.00000000000E+00 0. -1.
          6    1    1    2  501    0 -0.58070311491E+02  0.13300439533E+03 -0.38008932988E+03  0.44210771192E+03  0.17300000000E+03 0. -1.
         -6    1    1    2    0  502  0.58070311491E+02 -0.13300439533E+03 -0.22974955112E+03  0.32214311493E+03  0.17300000000E+03 0. -1.
</event>
<event>
 4    1  0.5821292E+000  0.1000000E+03  0.7546771E-02  0.1280296E+00
         21   -1    0    0  501  502  0.00000000000E+00  0.00000000000E+00  0.23105345179E+03  0.23105345179E+03  0.00000000000E+00 0. -1.
         21   -1    0    0  502  503 -0.00000000000E+00 -0.00000000000E+00 -0.69771172892E+03  0.69771172892E+03  0.00000000000E+00 0.  1.
          6    1    1    2  501    0 -0.35717131728E+03 -0.60640746644E+02 -0.22688395273E+03  0.46114420526E+03  0.17300000000E+03 0. -1.
         -6    1    1    2    0  503  0.35717131728E+03  0.60640746644E+02 -0.23977432440E+03  0.46762097545E+03  0.17300000000E+03 0.  1.
</event>
<event>
 4    1  0.5821292E+000  0.1000000E+03  0.7546771E-02  0.1280296E+00
         21   -1    0    0  501  502  0.00000000000E+00  0.00000000000E+00  0.58884248347E+03  0.58884248347E+03  0.00000000000E+00 0. -1.
         21   -1    0    0  502  503 -0.00000000000E+00 -0.00000000000E+00 -0.12951839908E+03  0.12951839908E+03  0.00000000000E+00 0.  1.
          6    1    1    2  501    0 -0.11467292951E+02  0.10664432917E+03  0.47240085705E+03  0.51438903710E+03  0.17300000000E+03 0. -1.
         -6    1    1    2    0  503  0.11467292951E+02 -0.10664432917E+03 -0.13076772665E+02  0.20397184545E+03  0.17300000000E+03 0.  1.
</event>
<event>
 4    1  0.5821292E+000  0.1000000E+03  0.7546771E-02  0.1280296E+00
         21   -1    0    0  501  502  0.00000000000E+00  0.00000000000E+00  0.15734700648E+03  0.15734700648E+03  0.00000000000E+00 0. -1.
         21   -1    0    0  502  503 -0.00000000000E+00 -0.00000000000E+00 -0.39706631663E+03  0.39706631663E+03  0.00000000000E+00 0.  1.
          6    1    1    2  501    0 -0.90867990027E+02  0.15515411762E+02  0.52130956527E+02  0.20284071643E+03  0.17300000000E+03 0. -1.
         -6    1    1    2    0  503  0.90867990027E+02 -0.15515411762E+02 -0.29185026668E+03  0.35157260669E+03  0.17300000000E+03 0.  1.
</event>
<event>
 4    1  0.5821292E+000  0.1000000E+03  0.7546771E-02  0.1280296E+00
         21   -1    0    0  501  502  0.00000000000E+00  0.00000000000E+00  0.31591466514E+03  0.31591466514E+03  0.00000000000E+00 0. -1.
         21   -1    0    0  502  503 -0.00000000000E+00 -0.00000000000E+00 -0.33768007055E+03  0.33768007055E+03  0.00000000000E+00 0.  1.
          6    1    1    2  501    0 -0.72738547653E+02  0.19743951544E+03  0.16942781353E+03  0.32079283435E+03  0.17300000000E+03 0. -1.
         -6    1    1    2    0  503  0.72738547653E+02 -0.19743951544E+03 -0.19119321894E+03  0.33280190135E+03  0.17300000000E+03 0.  1.
</event>
<event>
 4    1  0.5821292E+000  0.1000000E+03  0.7546771E-02  0.1280296E+00
         21   -1    0    0  501  502  0.00000000000E+00  0.00000000000E+00  0.75296568209E+03  0.75296568209E+03  0.00000000000E+00 0. -1.
         21   -1    0    0  502  503 -0.00000000000E+00 -0.00000000000E+00 -0.23647843299E+03  0.23647843299E+03  0.00000000000E+00 0.  1.
          6    1    1    2  501    0  0.22033603830E+03 -0.22433067941E+03  0.51845145458E+03  0.63054986658E+03  0.17300000000E+03 0. -1.
         -6    1    1    2    0  503 -0.22033603830E+03  0.22433067941E+03 -0.19642054812E+01  0.35889424849E+03  0.17300000000E+03 0.  1.
</event>
<event>
 4    1  0.5821292E+000  0.1000000E+03  0.7546771E-02  0.1280296E+00
         21   -1    0    0  501  502  0.00000000000E+00  0.00000000000E+00  0.92572351173E+03  0.92572351173E+03  0.00000000000E+00 0.  1.
         21   -1    0    0  502  503 -0.00000000000E+00 -0.00000000000E+00 -0.74012949418E+02  0.74012949418E+02  0.00000000000E+00 0.  1.
          6    1    1    2  501    0  0.17613966309E+02  0.42764768519E+02  0.79043676552E+03  0.81046798673E+03  0.17300000000E+03 0.  1.
         -6    1    1    2    0  503 -0.17613966309E+02 -0.42764768519E+02  0.61273796800E+02  0.18926847442E+03  0.17300000000E+03 0.  1.
</event>
<event>
 4    1  0.5821292E+000  0.1000000E+03  0.7546771E-02  0.1280296E+00
         21   -1    0    0  501  502  0.00000000000E+00  0.00000000000E+00  0.21522367996E+03  0.21522367996E+03  0.00000000000E+00 0.  1.
         21   -1    0    0  502  503 -0.00000000000E+00 -0.00000000000E+00 -0.37943094104E+03  0.37943094104E+03  0.00000000000E+00 0.  1.
          6    1    1    2  501    0 -0.17621480083E+03 -0.13000565902E+03 -0.18131317650E+02  0.27966206766E+03  0.17300000000E+03 0.  1.
         -6    1    1    2    0  503  0.17621480083E+03  0.13000565902E+03 -0.14607594342E+03  0.31499255333E+03  0.17300000000E+03 0.  1.
</event>
<event>
 4    1  0.5821292E+000  0.1000000E+03  0.7546771E-02  0.1280296E+00
         21   -1    0    0  503  502  0.00000000000E+00  0.00000000000E+00  0.28757997344E+03  0.28757997344E+03  0.00000000000E+00 0.  1.
         21   -1    0    0  501  503 -0.00000000000E+00 -0.00000000000E+00 -0.26221258351E+03  0.26221258351E+03  0.00000000000E+00 0.  1.
          6    1    1    2  501    0  0.10633996244E+03  0.14321525265E+03 -0.10431388112E+03  0.26949801854E+03  0.17300000000E+03 0.  1.
         -6    1    1    2    0  502 -0.10633996244E+03 -0.14321525265E+03  0.12968127105E+03  0.28029453841E+03  0.17300000000E+03 0.  1.
</event>
<event>
 4    1  0.5821292E+000  0.1000000E+03  0.7546771E-02  0.1280296E+00
         21   -1    0    0  503  502  0.00000000000E+00  0.00000000000E+00  0.94293670696E+02  0.94293670696E+02  0.00000000000E+00 0.  1.
         21   -1    0    0  501  503 -0.00000000000E+00 -0.00000000000E+00 -0.54098489070E+03  0.54098489070E+03  0.00000000000E+00 0.  1.
          6    1    1    2  501    0 -0.68979587394E+02 -0.14926809393E+02 -0.40180235479E+03  0.44311976421E+03  0.17300000000E+03 0.  1.
         -6    1    1    2    0  502  0.68979587394E+02  0.14926809393E+02 -0.44888865210E+02  0.19215879718E+03  0.17300000000E+03 0.  1.
</event>
<event>
 4    1  0.5821292E+000  0.1000000E+03  0.7546771E-02  0.1280296E+00
         21   -1    0    0  501  502  0.00000000000E+00  0.00000000000E+00  0.27509742975E+04  0.27509742975E+04  0.00000000000E+00 0. -1.
         21   -1    0    0  502  503 -0.00000000000E+00 -0.00000000000E+00 -0.23989507017E+02  0.23989507017E+02  0.00000000000E+00 0. -1.
          6    1    1    2  501    0 -0.77898464902E+01  0.32576267391E+02  0.23731110358E+04  0.23796442766E+04  0.17300000000E+03 0. -1.
         -6    1    1    2    0  503  0.77898464902E+01 -0.32576267391E+02  0.35387375473E+03  0.39531952796E+03  0.17300000000E+03 0. -1.
</event>
<event>
 4    1  0.5821292E+000  0.1000000E+03  0.7546771E-02  0.1280296E+00
         21   -1    0    0  503  502  0.00000000000E+00  0.00000000000E+00  0.19120193836E+03  0.19120193836E+03  0.00000000000E+00 0. -1.
         21   -1    0    0  501  503 -0.00000000000E+00 -0.00000000000E+00 -0.43702364002E+03  0.43702364002E+03  0.00000000000E+00 0. -1.
          6    1    1    2  501    0 -0.22471107638E+02  0.13935026633E+03 -0.32241370752E+03  0.39217731475E+03  0.17300000000E+03 0. -1.
         -6    1    1    2    0  502  0.22471107638E+02 -0.13935026633E+03  0.76592005860E+02  0.23604826363E+03  0.17300000000E+03 0. -1.
</event>
<event>
 4    1  0.5821292E+000  0.1000000E+03  0.7546771E-02  0.1280296E+00
         21   -1    0    0  501  502  0.00000000000E+00  0.00000000000E+00  0.12562076680E+03  0.12562076680E+03  0.00000000000E+00 0.  1.
         21   -1    0    0  502  503 -0.00000000000E+00 -0.00000000000E+00 -0.55235804585E+03  0.55235804585E+03  0.00000000000E+00 0.  1.
          6    1    1    2  501    0  0.98334529616E+02 -0.15878611446E+02  0.78017664046E+01  0.19977907192E+03  0.17300000000E+03 0. -1.
         -6    1    1    2    0  503 -0.98334529616E+02  0.15878611446E+02 -0.43453904545E+03  0.47819974074E+03  0.17300000000E+03 0. -1.
</event>
<event>
 4    1  0.5821292E+000  0.1000000E+03  0.7546771E-02  0.1280296E+00
         21   -1    0    0  501  502  0.00000000000E+00  0.00000000000E+00  0.93873700860E+02  0.93873700860E+02  0.00000000000E+00 0.  1.
         21   -1    0    0  502  503 -0.00000000000E+00 -0.00000000000E+00 -0.48128570145E+03  0.48128570145E+03  0.00000000000E+00 0.  1.
          6    1    1    2  501    0  0.53885444473E+02  0.87811796299E+02 -0.10158031756E+03  0.22552630359E+03  0.17300000000E+03 0. -1.
         -6    1    1    2    0  503 -0.53885444473E+02 -0.87811796299E+02 -0.28583168303E+03  0.34963309872E+03  0.17300000000E+03 0. -1.
</event>
<event>
 4    1  0.5821292E+000  0.1000000E+03  0.7546771E-02  0.1280296E+00
         21   -1    0    0  501  502  0.00000000000E+00  0.00000000000E+00  0.23018868659E+03  0.23018868659E+03  0.00000000000E+00 0.  1.
         21   -1    0    0  502  503 -0.00000000000E+00 -0.00000000000E+00 -0.34514237863E+03  0.34514237863E+03  0.00000000000E+00 0.  1.
          6    1    1    2  501    0  0.17045677936E+03  0.13876635429E+03 -0.22016219577E+02  0.28058034257E+03  0.17300000000E+03 0. -1.
         -6    1    1    2    0  503 -0.17045677936E+03 -0.13876635429E+03 -0.92937472469E+02  0.29475072265E+03  0.17300000000E+03 0. -1.
</event>
<event>
 4    1  0.5821292E+000  0.1000000E+03  0.7546771E-02  0.1280296E+00
         21   -1    0    0  501  502  0.00000000000E+00  0.00000000000E+00  0.42614595095E+02  0.42614595095E+02  0.00000000000E+00 0.  1.
         21   -1    0    0  502  503 -0.00000000000E+00 -0.00000000000E+00 -0.12288185365E+04  0.12288185365E+04  0.00000000000E+00 0.  1.
          6    1    1    2  501    0  0.48334907245E+02  0.10694847579E+03 -0.33454354233E+03  0.39449033125E+03  0.17300000000E+03 0. -1.
         -6    1    1    2    0  503 -0.48334907245E+02 -0.10694847579E+03 -0.85166039911E+03  0.87694280039E+03  0.17300000000E+03 0. -1.
</event>
<event>
 4    1  0.5821292E+000  0.1000000E+03  0.7546771E-02  0.1280296E+00
         21   -1    0    0  503  502  0.00000000000E+00  0.00000000000E+00  0.23952544380E+03  0.23952544380E+03  0.00000000000E+00 0.  1.
         21   -1    0    0  501  503 -0.00000000000E+00 -0.00000000000E+00 -0.14075259002E+03  0.14075259002E+03  0.00000000000E+00 0.  1.
          6    1    1    2  501    0  0.24188748747E+02  0.44087926315E+02  0.12686974778E+02  0.18060675553E+03  0.17300000000E+03 0.  1.
         -6    1    1    2    0  502 -0.24188748747E+02 -0.44087926315E+02  0.86085879003E+02  0.19967127830E+03  0.17300000000E+03 0.  1.
</event>
<event>
 4    1  0.5821292E+000  0.1000000E+03  0.7546771E-02  0.1280296E+00
         21   -1    0    0  503  502  0.00000000000E+00  0.00000000000E+00  0.75027446205E+03  0.75027446205E+03  0.00000000000E+00 0.  1.
         21   -1    0    0  501  503 -0.00000000000E+00 -0.00000000000E+00 -0.69446341744E+02  0.69446341744E+02  0.00000000000E+00 0.  1.
          6    1    1    2  501    0  0.63515714176E+02 -0.13152485552E+03  0.28831842933E+03  0.36659180331E+03  0.17300000000E+03 0. -1.
         -6    1    1    2    0  502 -0.63515714176E+02  0.13152485552E+03  0.39250969098E+03  0.45312900048E+03  0.17300000000E+03 0. -1.
</event>
<event>
 4    1  0.5821292E+000  0.1000000E+03  0.7546771E-02  0.1280296E+00
         21   -1    0    0  503  502  0.00000000000E+00  0.00000000000E+00  0.28196967350E+03  0.28196967350E+03  0.00000000000E+00 0.  1.
         21   -1    0    0  501  503 -0.00000000000E+00 -0.00000000000E+00 -0.15571922922E+03  0.15571922922E+03  0.00000000000E+00 0.  1.
          6    1    1    2  501    0 -0.89143664233E+01  0.38271837609E+02 -0.53336813780E+02  0.18525122182E+03  0.17300000000E+03 0. -1.
         -6    1    1    2    0  502  0.89143664233E+01 -0.38271837609E+02  0.17958725805E+03  0.25243768090E+03  0.17300000000E+03 0. -1.
</event>
<event>
 4    1  0.5821292E+000  0.1000000E+03  0.7546771E-02  0.1280296E+00
         21   -1    0    0  503  502  0.00000000000E+00  0.00000000000E+00  0.63301812883E+02  0.63301812883E+02  0.00000000000E+00 0.  1.
         21   -1    0    0  501  503 -0.00000000000E+00 -0.00000000000E+00 -0.62546146554E+03  0.62546146554E+03  0.00000000000E+00 0.  1.
          6    1    1    2  501    0  0.62590712112E+02  0.42158458602E+02 -0.39011518558E+03  0.43337488494E+03  0.17300000000E+03 0.  1.
         -6    1    1    2    0  502 -0.62590712112E+02 -0.42158458602E+02 -0.17204446707E+03  0.25538839348E+03  0.17300000000E+03 0.  1.
</event>
<event>
 4    1  0.5821292E+000  0.1000000E+03  0.7546771E-02  0.1280296E+00
         21   -1    0    0  503  502  0.00000000000E+00  0.00000000000E+00  0.43525994928E+03  0.43525994928E+03  0.00000000000E+00 0.  1.
         21   -1    0    0  501  503 -0.00000000000E+00 -0.00000000000E+00 -0.40498373919E+03  0.40498373919E+03  0.00000000000E+00 0.  1.
          6    1    1    2  501    0  0.19879445766E+03 -0.15908272998E+03 -0.27056038396E+03  0.40982736944E+03  0.17300000000E+03 0.  1.
         -6    1    1    2    0  502 -0.19879445766E+03  0.15908272998E+03  0.30083659405E+03  0.43041631903E+03  0.17300000000E+03 0.  1.
</event>
<event>
 4    1  0.5821292E+000  0.1000000E+03  0.7546771E-02  0.1280296E+00
         21   -1    0    0  501  502  0.00000000000E+00  0.00000000000E+00  0.95094048397E+03  0.95094048397E+03  0.00000000000E+00 0. -1.
         21   -1    0    0  502  503 -0.00000000000E+00 -0.00000000000E+00 -0.81862359833E+02  0.81862359833E+02  0.00000000000E+00 0.  1.
          6    1    1    2  501    0  0.12766964959E+02 -0.14705876126E+03  0.73371134874E+03  0.76814752355E+03  0.17300000000E+03 0. -1.
         -6    1    1    2    0  503 -0.12766964959E+02  0.14705876126E+03  0.13536677539E+03  0.26465532025E+03  0.17300000000E+03 0.  1.
</event>
<event>
 4    1  0.5821292E+000  0.1000000E+03  0.7546771E-02  0.1280296E+00
         21   -1    0    0  501  502  0.00000000000E+00  0.00000000000E+00  0.20114759622E+04  0.20114759622E+04  0.00000000000E+00 0. -1.
         21   -1    0    0  502  503 -0.00000000000E+00 -0.00000000000E+00 -0.51474476477E+02  0.51474476477E+02  0.00000000000E+00 0.  1.
          6    1    1    2  501    0  0.17280878152E+03 -0.19446720511E+03  0.12268568396E+04  0.12660122724E+04  0.17300000000E+03 0. -1.
         -6    1    1    2    0  503 -0.17280878152E+03  0.19446720511E+03  0.73314464612E+03  0.79693816634E+03  0.17300000000E+03 0.  1.
</event>
<event>
 4    1  0.5821292E+000  0.1000000E+03  0.7546771E-02  0.1280296E+00
         21   -1    0    0  501  502  0.00000000000E+00  0.00000000000E+00  0.26787739015E+03  0.26787739015E+03  0.00000000000E+00 0. -1.
         21   -1    0    0  502  503 -0.00000000000E+00 -0.00000000000E+00 -0.26873882841E+03  0.26873882841E+03  0.00000000000E+00 0.  1.
          6    1    1    2  501    0  0.88793664665E+02  0.12952949757E+01  0.18443180109E+03  0.26801134664E+03  0.17300000000E+03 0. -1.
         -6    1    1    2    0  503 -0.88793664665E+02 -0.12952949757E+01 -0.18529323935E+03  0.26860487192E+03  0.17300000000E+03 0.  1.
</event>
<event>
 4    1  0.5821292E+000  0.1000000E+03  0.7546771E-02  0.1280296E+00
         21   -1    0    0  501  502  0.00000000000E+00  0.00000000000E+00  0.12030752137E+03  0.12030752137E+03  0.00000000000E+00 0. -1.
         21   -1    0    0  502  503 -0.00000000000E+00 -0.00000000000E+00 -0.32751971387E+03  0.32751971387E+03  0.00000000000E+00 0. -1.
          6    1    1    2  501    0 -0.73879318389E+02  0.26264298002E+01 -0.32183568260E+02  0.19086601029E+03  0.17300000000E+03 0. -1.
         -6    1    1    2    0  503  0.73879318389E+02 -0.26264298002E+01 -0.17502862424E+03  0.25696122494E+03  0.17300000000E+03 0. -1.
</event>
<event>
 4    1  0.5821292E+000  0.1000000E+03  0.7546771E-02  0.1280296E+00
         21   -1    0    0  501  502  0.00000000000E+00  0.00000000000E+00  0.14949502284E+03  0.14949502284E+03  0.00000000000E+00 0. -1.
         21   -1    0    0  502  503 -0.00000000000E+00 -0.00000000000E+00 -0.48279968593E+03  0.48279968593E+03  0.00000000000E+00 0. -1.
          6    1    1    2  501    0 -0.10225566847E+02 -0.12732545706E+03  0.22843990844E+02  0.21625721294E+03  0.17300000000E+03 0. -1.
         -6    1    1    2    0  503  0.10225566847E+02  0.12732545706E+03 -0.35614865394E+03  0.41603749583E+03  0.17300000000E+03 0. -1.
</event>
<event>
 4    1  0.5821292E+000  0.1000000E+03  0.7546771E-02  0.1280296E+00
         21   -1    0    0  503  502  0.00000000000E+00  0.00000000000E+00  0.12796273226E+03  0.12796273226E+03  0.00000000000E+00 0. -1.
         21   -1    0    0  501  503 -0.00000000000E+00 -0.00000000000E+00 -0.29311007821E+03  0.29311007821E+03  0.00000000000E+00 0. -1.
          6    1    1    2  501    0  0.67680365019E+02 -0.53545364335E+02 -0.70158393278E+02  0.20566705618E+03  0.17300000000E+03 0. -1.
         -6    1    1    2    0  502 -0.67680365019E+02  0.53545364335E+02 -0.94988952672E+02  0.21540575429E+03  0.17300000000E+03 0. -1.
</event>
<event>
 4    1  0.5821292E+000  0.1000000E+03  0.7546771E-02  0.1280296E+00
         21   -1    0    0  501  502  0.00000000000E+00  0.00000000000E+00  0.19605178994E+03  0.19605178994E+03  0.00000000000E+00 0. -1.
         21   -1    0    0  502  503 -0.00000000000E+00 -0.00000000000E+00 -0.54656750544E+03  0.54656750544E+03  0.00000000000E+00 0. -1.
          6    1    1    2  501    0  0.20526455743E+03  0.54902591939E+02  0.27901735585E+02  0.27541848157E+03  0.17300000000E+03 0. -1.
         -6    1    1    2    0  503 -0.20526455743E+03 -0.54902591939E+02 -0.37841745108E+03  0.46720081381E+03  0.17300000000E+03 0. -1.
</event>
<event>
 4    1  0.5821292E+000  0.1000000E+03  0.7546771E-02  0.1280296E+00
         21   -1    0    0  501  502  0.00000000000E+00  0.00000000000E+00  0.67081854121E+02  0.67081854121E+02  0.00000000000E+00 0. -1.
         21   -1    0    0  502  503 -0.00000000000E+00 -0.00000000000E+00 -0.88988882067E+03  0.88988882067E+03  0.00000000000E+00 0. -1.
          6    1    1    2  501    0 -0.54671205547E+01  0.49292835019E+02 -0.87785244056E+02  0.20023716455E+03  0.17300000000E+03 0. -1.
         -6    1    1    2    0  503  0.54671205547E+01 -0.49292835019E+02 -0.73502172249E+03  0.75673351024E+03  0.17300000000E+03 0. -1.
</event>
<event>
 4    1  0.5821292E+000  0.1000000E+03  0.7546771E-02  0.1280296E+00
         21   -1    0    0  501  502  0.00000000000E+00  0.00000000000E+00  0.13565141208E+03  0.13565141208E+03  0.00000000000E+00 0. -1.
         21   -1    0    0  502  503 -0.00000000000E+00 -0.00000000000E+00 -0.48710947105E+03  0.48710947105E+03  0.00000000000E+00 0. -1.
          6    1    1    2  501    0  0.90370673285E+02 -0.39176197588E+02  0.21263434662E+02  0.20020680983E+03  0.17300000000E+03 0. -1.
         -6    1    1    2    0  503 -0.90370673285E+02  0.39176197588E+02 -0.37272149363E+03  0.42255407330E+03  0.17300000000E+03 0. -1.
</event>
<event>
 4    1  0.5821292E+000  0.1000000E+03  0.7546771E-02  0.1280296E+00
         21   -1    0    0  501  502  0.00000000000E+00  0.00000000000E+00  0.12584228149E+03  0.12584228149E+03  0.00000000000E+00 0.  1.
         21   -1    0    0  502  503 -0.00000000000E+00 -0.00000000000E+00 -0.59484877411E+03  0.59484877411E+03  0.00000000000E+00 0.  1.
          6    1    1    2  501    0  0.87132588134E+01  0.12934827740E+03 -0.13641903227E+02  0.21661486392E+03  0.17300000000E+03 0.  1.
         -6    1    1    2    0  503 -0.87132588134E+01 -0.12934827740E+03 -0.45536458939E+03  0.50407619168E+03  0.17300000000E+03 0.  1.
</event>
<event>
 4    1  0.5821292E+000  0.1000000E+03  0.7546771E-02  0.1280296E+00
         21   -1    0    0  503  502  0.00000000000E+00  0.00000000000E+00  0.79320873426E+02  0.79320873426E+02  0.00000000000E+00 0. -1.
         21   -1    0    0  501  503 -0.00000000000E+00 -0.00000000000E+00 -0.70665236255E+03  0.70665236255E+03  0.00000000000E+00 0.  1.
          6    1    1    2  501    0  0.10949197687E+03 -0.11686566661E+03 -0.27740523813E+03  0.36404497410E+03  0.17300000000E+03 0.  1.
         -6    1    1    2    0  502 -0.10949197687E+03  0.11686566661E+03 -0.34992625100E+03  0.42192826187E+03  0.17300000000E+03 0. -1.
</event>
<event>
 4    1  0.5821292E+000  0.1000000E+03  0.7546771E-02  0.1280296E+00
         21   -1    0    0  503  502  0.00000000000E+00  0.00000000000E+00  0.94595953612E+03  0.94595953612E+03  0.00000000000E+00 0. -1.
         21   -1    0    0  501  503 -0.00000000000E+00 -0.00000000000E+00 -0.71535228307E+02  0.71535228307E+02  0.00000000000E+00 0.  1.
          6    1    1    2  501    0  0.16149336542E+03 -0.83136084398E+02  0.30244191056E+03  0.39292725137E+03  0.17300000000E+03 0.  1.
         -6    1    1    2    0  502 -0.16149336542E+03  0.83136084398E+02  0.57198239725E+03  0.62456751306E+03  0.17300000000E+03 0. -1.
</event>
<event>
 4    1  0.5821292E+000  0.1000000E+03  0.7546771E-02  0.1280296E+00
         21   -1    0    0  501  502  0.00000000000E+00  0.00000000000E+00  0.34890632599E+03  0.34890632599E+03  0.00000000000E+00 0.  1.
         21   -1    0    0  502  503 -0.00000000000E+00 -0.00000000000E+00 -0.14456595821E+03  0.14456595821E+03  0.00000000000E+00 0. -1.
          6    1    1    2  501    0 -0.90077001737E+02  0.66482723438E+02  0.20029287292E+03  0.28736745414E+03  0.17300000000E+03 0.  1.
         -6    1    1    2    0  503  0.90077001737E+02 -0.66482723438E+02  0.40474948613E+01  0.20610483006E+03  0.17300000000E+03 0. -1.
</event>
<event>
 4    1  0.5821292E+000  0.1000000E+03  0.7546771E-02  0.1280296E+00
         21   -1    0    0  501  502  0.00000000000E+00  0.00000000000E+00  0.87761570810E+03  0.87761570810E+03  0.00000000000E+00 0.  1.
         21   -1    0    0  502  503 -0.00000000000E+00 -0.00000000000E+00 -0.58902225727E+02  0.58902225727E+02  0.00000000000E+00 0. -1.
          6    1    1    2  501    0  0.66805210015E+02 -0.83197789552E+02  0.61918340300E+03  0.65169156418E+03  0.17300000000E+03 0.  1.
         -6    1    1    2    0  503 -0.66805210015E+02  0.83197789552E+02  0.19953007937E+03  0.28482636964E+03  0.17300000000E+03 0. -1.
</event>
<event>
 4    1  0.5821292E+000  0.1000000E+03  0.7546771E-02  0.1280296E+00
         21   -1    0    0  503  502  0.00000000000E+00  0.00000000000E+00  0.69753190416E+03  0.69753190416E+03  0.00000000000E+00 0. -1.
         21   -1    0    0  501  503 -0.00000000000E+00 -0.00000000000E+00 -0.84231915208E+02  0.84231915208E+02  0.00000000000E+00 0.  1.
          6    1    1    2  501    0 -0.43635364931E+02  0.63487125490E+02  0.62669241470E+02  0.19947705132E+03  0.17300000000E+03 0. -1.
         -6    1    1    2    0  502  0.43635364931E+02 -0.63487125490E+02  0.55063074748E+03  0.58228676805E+03  0.17300000000E+03 0.  1.
</event>
<event>
 4    1  0.5821292E+000  0.1000000E+03  0.7546771E-02  0.1280296E+00
         21   -1    0    0  501  502  0.00000000000E+00  0.00000000000E+00  0.33157942971E+03  0.33157942971E+03  0.00000000000E+00 0.  1.
         21   -1    0    0  502  503 -0.00000000000E+00 -0.00000000000E+00 -0.41499499696E+03  0.41499499696E+03  0.00000000000E+00 0.  1.
          6    1    1    2  501    0 -0.14143426644E+03 -0.13668629478E+03  0.22260288932E+03  0.34375549630E+03  0.17300000000E+03 0.  1.
         -6    1    1    2    0  503  0.14143426644E+03  0.13668629478E+03 -0.30601845657E+03  0.40281893037E+03  0.17300000000E+03 0.  1.
</event>
<event>
 4    1  0.5821292E+000  0.1000000E+03  0.7546771E-02  0.1280296E+00
         21   -1    0    0  501  502  0.00000000000E+00  0.00000000000E+00  0.90654999695E+02  0.90654999695E+02  0.00000000000E+00 0.  1.
         21   -1    0    0  502  503 -0.00000000000E+00 -0.00000000000E+00 -0.41687197092E+03  0.41687197092E+03  0.00000000000E+00 0.  1.
          6    1    1    2  501    0 -0.59787898981E+02  0.45900674636E+02 -0.10214552258E+03  0.21457905904E+03  0.17300000000E+03 0.  1.
         -6    1    1    2    0  503  0.59787898981E+02 -0.45900674636E+02 -0.22407144865E+03  0.29294791158E+03  0.17300000000E+03 0.  1.
</event>
<event>
 4    1  0.5821292E+000  0.1000000E+03  0.7546771E-02  0.1280296E+00
         21   -1    0    0  501  502  0.00000000000E+00  0.00000000000E+00  0.97415541268E+02  0.97415541268E+02  0.00000000000E+00 0. -1.
         21   -1    0    0  502  503 -0.00000000000E+00 -0.00000000000E+00 -0.71195177883E+03  0.71195177883E+03  0.00000000000E+00 0. -1.
          6    1    1    2  501    0  0.15460898579E+03  0.81116882449E+02 -0.16195647796E+03  0.29435146994E+03  0.17300000000E+03 0. -1.
         -6    1    1    2    0  503 -0.15460898579E+03 -0.81116882449E+02 -0.45257975961E+03  0.51501585016E+03  0.17300000000E+03 0. -1.
</event>
<event>
 4    1  0.5821292E+000  0.1000000E+03  0.7546771E-02  0.1280296E+00
         21   -1    0    0  501  502  0.00000000000E+00  0.00000000000E+00  0.42957337906E+02  0.42957337906E+02  0.00000000000E+00 0. -1.
         21   -1    0    0  502  503 -0.00000000000E+00 -0.00000000000E+00 -0.16357807597E+04  0.16357807597E+04  0.00000000000E+00 0. -1.
          6    1    1    2  501    0 -0.14447817339E+03  0.22655319720E+02 -0.36049260844E+03  0.42575947064E+03  0.17300000000E+03 0. -1.
         -6    1    1    2    0  503  0.14447817339E+03 -0.22655319720E+02 -0.12323308134E+04  0.12529786270E+04  0.17300000000E+03 0. -1.
</event>
<event>
 4    1  0.5821292E+000  0.1000000E+03  0.7546771E-02  0.1280296E+00
         21   -1    0    0  501  502  0.00000000000E+00  0.00000000000E+00  0.97292917026E+03  0.97292917026E+03  0.00000000000E+00 0. -1.
         21   -1    0    0  502  503 -0.00000000000E+00 -0.00000000000E+00 -0.69395027157E+02  0.69395027157E+02  0.00000000000E+00 0. -1.
          6    1    1    2  501    0  0.39953990754E+02 -0.16362336938E+03  0.64434148623E+03  0.68809438253E+03  0.17300000000E+03 0. -1.
         -6    1    1    2    0  503 -0.39953990754E+02  0.16362336938E+03  0.25919265687E+03  0.35422981489E+03  0.17300000000E+03 0. -1.
</event>
<event>
 4    1  0.5821292E+000  0.1000000E+03  0.7546771E-02  0.1280296E+00
         21   -1    0    0  501  502  0.00000000000E+00  0.00000000000E+00  0.17972476541E+04  0.17972476541E+04  0.00000000000E+00 0. -1.
         21   -1    0    0  502  503 -0.00000000000E+00 -0.00000000000E+00 -0.42860967260E+02  0.42860967260E+02  0.00000000000E+00 0. -1.
          6    1    1    2  501    0 -0.60717966800E+02 -0.59955155503E+02  0.15387045717E+04  0.15507488678E+04  0.17300000000E+03 0. -1.
         -6    1    1    2    0  503  0.60717966800E+02  0.59955155503E+02  0.21568211516E+03  0.28935975353E+03  0.17300000000E+03 0. -1.
</event>
<event>
 4    1  0.5821292E+000  0.1000000E+03  0.7546771E-02  0.1280296E+00
         21   -1    0    0  503  502  0.00000000000E+00  0.00000000000E+00  0.58779268758E+02  0.58779268758E+02  0.00000000000E+00 0. -1.
         21   -1    0    0  501  503 -0.00000000000E+00 -0.00000000000E+00 -0.56904183734E+03  0.56904183734E+03  0.00000000000E+00 0.  1.
          6    1    1    2  501    0 -0.42179267851E+01  0.59079919069E+02 -0.24953373954E+03  0.30936113995E+03  0.17300000000E+03 0.  1.
         -6    1    1    2    0  502  0.42179267851E+01 -0.59079919069E+02 -0.26072882904E+03  0.31845996615E+03  0.17300000000E+03 0. -1.
</event>
<event>
 4    1  0.5821292E+000  0.1000000E+03  0.7546771E-02  0.1280296E+00
         21   -1    0    0  503  502  0.00000000000E+00  0.00000000000E+00  0.80410019462E+03  0.80410019462E+03  0.00000000000E+00 0.  1.
         21   -1    0    0  501  503 -0.00000000000E+00 -0.00000000000E+00 -0.65926017578E+02  0.65926017578E+02  0.00000000000E+00 0.  1.
          6    1    1    2  501    0 -0.79273081197E+02  0.42577260882E+02  0.13780161550E+03  0.23877883026E+03  0.17300000000E+03 0.  1.
         -6    1    1    2    0  502  0.79273081197E+02 -0.42577260882E+02  0.60037256154E+03  0.63124738194E+03  0.17300000000E+03 0.  1.
</event>
<event>
 4    1  0.5821292E+000  0.1000000E+03  0.7546771E-02  0.1280296E+00
         21   -1    0    0  503  502  0.00000000000E+00  0.00000000000E+00  0.14231301741E+03  0.14231301741E+03  0.00000000000E+00 0.  1.
         21   -1    0    0  501  503 -0.00000000000E+00 -0.00000000000E+00 -0.68407990862E+03  0.68407990862E+03  0.00000000000E+00 0.  1.
          6    1    1    2  501    0 -0.60978867467E+00 -0.15697630518E+03 -0.54479740490E+03  0.59276904830E+03  0.17300000000E+03 0.  1.
         -6    1    1    2    0  502  0.60978867467E+00  0.15697630518E+03  0.30305136876E+01  0.23362387773E+03  0.17300000000E+03 0.  1.
</event>
<event>
 4    1  0.5821292E+000  0.1000000E+03  0.7546771E-02  0.1280296E+00
         21   -1    0    0  503  502  0.00000000000E+00  0.00000000000E+00  0.50061813710E+02  0.50061813710E+02  0.00000000000E+00 0.  1.
         21   -1    0    0  501  503 -0.00000000000E+00 -0.00000000000E+00 -0.14129606059E+04  0.14129606059E+04  0.00000000000E+00 0.  1.
          6    1    1    2  501    0 -0.18934162377E+03 -0.55093863801E+02 -0.80199245146E+03  0.84380476209E+03  0.17300000000E+03 0.  1.
         -6    1    1    2    0  502  0.18934162377E+03  0.55093863801E+02 -0.56090634075E+03  0.61921765755E+03  0.17300000000E+03 0.  1.
</event>
<event>
 4    1  0.5821292E+000  0.1000000E+03  0.7546771E-02  0.1280296E+00
         21   -1    0    0  501  502  0.00000000000E+00  0.00000000000E+00  0.74875899174E+03  0.74875899174E+03  0.00000000000E+00 0.  1.
         21   -1    0    0  502  503 -0.00000000000E+00 -0.00000000000E+00 -0.11020646245E+03  0.11020646245E+03  0.00000000000E+00 0. -1.
          6    1    1    2  501    0  0.30949368540E+02  0.24708039259E+02  0.65698669626E+03  0.68053572256E+03  0.17300000000E+03 0.  1.
         -6    1    1    2    0  503 -0.30949368540E+02 -0.24708039259E+02 -0.18434166976E+02  0.17842973163E+03  0.17300000000E+03 0. -1.
</event>
<event>
 4    1  0.5821292E+000  0.1000000E+03  0.7546771E-02  0.1280296E+00
         21   -1    0    0  501  502  0.00000000000E+00  0.00000000000E+00  0.14515615268E+04  0.14515615268E+04  0.00000000000E+00 0.  1.
         21   -1    0    0  502  503 -0.00000000000E+00 -0.00000000000E+00 -0.44548267262E+02  0.44548267262E+02  0.00000000000E+00 0. -1.
          6    1    1    2  501    0  0.29149101381E+02  0.21286232618E+02  0.12413880757E+04  0.12539043537E+04  0.17300000000E+03 0.  1.
         -6    1    1    2    0  503 -0.29149101381E+02 -0.21286232618E+02  0.16562518387E+03  0.24220544037E+03  0.17300000000E+03 0. -1.
</event>
<event>
 4    1  0.5821292E+000  0.1000000E+03  0.7546771E-02  0.1280296E+00
         21   -1    0    0  501  502  0.00000000000E+00  0.00000000000E+00  0.20862125099E+02  0.20862125099E+02  0.00000000000E+00 0.  1.
         21   -1    0    0  502  503 -0.00000000000E+00 -0.00000000000E+00 -0.14835043531E+04  0.14835043531E+04  0.00000000000E+00 0. -1.
          6    1    1    2  501    0  0.13443748029E+02  0.15235487042E+02 -0.83667861973E+03  0.85461860917E+03  0.17300000000E+03 0.  1.
         -6    1    1    2    0  503 -0.13443748029E+02 -0.15235487042E+02 -0.62596360826E+03  0.64974786901E+03  0.17300000000E+03 0. -1.
</event>
<event>
 4    1  0.5821292E+000  0.1000000E+03  0.7546771E-02  0.1280296E+00
         21   -1    0    0  501  502  0.00000000000E+00  0.00000000000E+00  0.96281100731E+03  0.96281100731E+03  0.00000000000E+00 0.  1.
         21   -1    0    0  502  503 -0.00000000000E+00 -0.00000000000E+00 -0.34522072649E+02  0.34522072649E+02  0.00000000000E+00 0. -1.
          6    1    1    2  501    0  0.12573279223E+02  0.87836850102E+01  0.31249441142E+03  0.35751503135E+03  0.17300000000E+03 0. -1.
         -6    1    1    2    0  503 -0.12573279223E+02 -0.87836850102E+01  0.61579452324E+03  0.63981804861E+03  0.17300000000E+03 0.  1.
</event>
<event>
 4    1  0.5821292E+000  0.1000000E+03  0.7546771E-02  0.1280296E+00
         21   -1    0    0  501  502  0.00000000000E+00  0.00000000000E+00  0.13465712498E+03  0.13465712498E+03  0.00000000000E+00 0.  1.
         21   -1    0    0  502  503 -0.00000000000E+00 -0.00000000000E+00 -0.10095049837E+04  0.10095049837E+04  0.00000000000E+00 0. -1.
          6    1    1    2  501    0  0.19266736648E+02  0.15865857990E+03  0.27154691347E+01  0.23554219556E+03  0.17300000000E+03 0. -1.
         -6    1    1    2    0  503 -0.19266736648E+02 -0.15865857990E+03 -0.87756332785E+03  0.90861991311E+03  0.17300000000E+03 0.  1.
</event>
<event>
 4    1  0.5821292E+000  0.1000000E+03  0.7546771E-02  0.1280296E+00
         21   -1    0    0  501  502  0.00000000000E+00  0.00000000000E+00  0.27068503312E+03  0.27068503312E+03  0.00000000000E+00 0.  1.
         21   -1    0    0  502  503 -0.00000000000E+00 -0.00000000000E+00 -0.16587064712E+03  0.16587064712E+03  0.00000000000E+00 0. -1.
          6    1    1    2  501    0  0.91047528449E+02 -0.48264983440E+02  0.12035326687E+03  0.23459128268E+03  0.17300000000E+03 0.  1.
         -6    1    1    2    0  503 -0.91047528449E+02  0.48264983440E+02 -0.15538880875E+02  0.20196439756E+03  0.17300000000E+03 0. -1.
</event>
<event>
 4    1  0.5821292E+000  0.1000000E+03  0.7546771E-02  0.1280296E+00
         21   -1    0    0  501  502  0.00000000000E+00  0.00000000000E+00  0.20860367612E+03  0.20860367612E+03  0.00000000000E+00 0.  1.
         21   -1    0    0  502  503 -0.00000000000E+00 -0.00000000000E+00 -0.27425232436E+03  0.27425232436E+03  0.00000000000E+00 0. -1.
          6    1    1    2  501    0  0.82920310201E+01  0.10388075111E+03  0.96521463516E+02  0.22384226846E+03  0.17300000000E+03 0.  1.
         -6    1    1    2    0  503 -0.82920310201E+01 -0.10388075111E+03 -0.16217011175E+03  0.25901373202E+03  0.17300000000E+03 0. -1.
</event>
<event>
 4    1  0.5821292E+000  0.1000000E+03  0.7546771E-02  0.1280296E+00
         21   -1    0    0  503  502  0.00000000000E+00  0.00000000000E+00  0.27613216374E+02  0.27613216374E+02  0.00000000000E+00 0. -1.
         21   -1    0    0  501  503 -0.00000000000E+00 -0.00000000000E+00 -0.20356876138E+04  0.20356876138E+04  0.00000000000E+00 0. -1.
          6    1    1    2  501    0 -0.14997837317E+03 -0.44919049235E+02 -0.82088701794E+03  0.85340244294E+03  0.17300000000E+03 0. -1.
         -6    1    1    2    0  502  0.14997837317E+03  0.44919049235E+02 -0.11871873795E+04  0.12098983872E+04  0.17300000000E+03 0. -1.
</event>
<event>
 4    1  0.5821292E+000  0.1000000E+03  0.7546771E-02  0.1280296E+00
         21   -1    0    0  503  502  0.00000000000E+00  0.00000000000E+00  0.24991689483E+02  0.24991689483E+02  0.00000000000E+00 0. -1.
         21   -1    0    0  501  503 -0.00000000000E+00 -0.00000000000E+00 -0.25614437843E+04  0.25614437843E+04  0.00000000000E+00 0. -1.
          6    1    1    2  501    0 -0.22713547726E+02 -0.89927060457E+02 -0.20841636170E+04  0.20933871510E+04  0.17300000000E+03 0. -1.
         -6    1    1    2    0  502  0.22713547726E+02  0.89927060457E+02 -0.45228847780E+03  0.49304832278E+03  0.17300000000E+03 0. -1.
</event>
<event>
 4    1  0.5821292E+000  0.1000000E+03  0.7546771E-02  0.1280296E+00
         21   -1    0    0  503  502  0.00000000000E+00  0.00000000000E+00  0.67948262764E+03  0.67948262764E+03  0.00000000000E+00 0. -1.
         21   -1    0    0  501  503 -0.00000000000E+00 -0.00000000000E+00 -0.11669282390E+03  0.11669282390E+03  0.00000000000E+00 0. -1.
          6    1    1    2  501    0 -0.91175398179E+02  0.11377292738E+03  0.44390956206E+02  0.23055756164E+03  0.17300000000E+03 0. -1.
         -6    1    1    2    0  502  0.91175398179E+02 -0.11377292738E+03  0.51839884754E+03  0.56561788990E+03  0.17300000000E+03 0. -1.
</event>
<event>
 4    1  0.5821292E+000  0.1000000E+03  0.7546771E-02  0.1280296E+00
         21   -1    0    0  503  502  0.00000000000E+00  0.00000000000E+00  0.88092958670E+02  0.88092958670E+02  0.00000000000E+00 0. -1.
         21   -1    0    0  501  503 -0.00000000000E+00 -0.00000000000E+00 -0.82469614135E+03  0.82469614135E+03  0.00000000000E+00 0.  1.
          6    1    1    2  501    0  0.61451596520E+02  0.10285650329E+02 -0.70200138511E+03  0.72568384164E+03  0.17300000000E+03 0.  1.
         -6    1    1    2    0  502 -0.61451596520E+02 -0.10285650329E+02 -0.34601797564E+02  0.18710525838E+03  0.17300000000E+03 0. -1.
</event>
<event>
 4    1  0.5821292E+000  0.1000000E+03  0.7546771E-02  0.1280296E+00
         21   -1    0    0  501  502  0.00000000000E+00  0.00000000000E+00  0.48618917455E+02  0.48618917455E+02  0.00000000000E+00 0. -1.
         21   -1    0    0  502  503 -0.00000000000E+00 -0.00000000000E+00 -0.86259647817E+03  0.86259647817E+03  0.00000000000E+00 0.  1.
          6    1    1    2  501    0 -0.10598080185E+03  0.16931377814E+02 -0.45628156151E+03  0.49964033593E+03  0.17300000000E+03 0. -1.
         -6    1    1    2    0  503  0.10598080185E+03 -0.16931377814E+02 -0.35769599920E+03  0.41157505969E+03  0.17300000000E+03 0.  1.
</event>
<event>
 4    1  0.5821292E+000  0.1000000E+03  0.7546771E-02  0.1280296E+00
         21   -1    0    0  503  502  0.00000000000E+00  0.00000000000E+00  0.11331654254E+03  0.11331654254E+03  0.00000000000E+00 0. -1.
         21   -1    0    0  501  503 -0.00000000000E+00 -0.00000000000E+00 -0.33547420774E+03  0.33547420774E+03  0.00000000000E+00 0. -1.
          6    1    1    2  501    0  0.37954858844E+02 -0.17108150620E+00 -0.20489786397E+03  0.27083710092E+03  0.17300000000E+03 0. -1.
         -6    1    1    2    0  502 -0.37954858844E+02  0.17108150620E+00 -0.17259801235E+02  0.17795364935E+03  0.17300000000E+03 0. -1.
</event>
<event>
 4    1  0.5821292E+000  0.1000000E+03  0.7546771E-02  0.1280296E+00
         21   -1    0    0  503  502  0.00000000000E+00  0.00000000000E+00  0.76053110140E+02  0.76053110140E+02  0.00000000000E+00 0. -1.
         21   -1    0    0  501  503 -0.00000000000E+00 -0.00000000000E+00 -0.67355813503E+03  0.67355813503E+03  0.00000000000E+00 0. -1.
          6    1    1    2  501    0  0.86629532909E+02  0.51320072186E+02 -0.47368405891E+03  0.51424120163E+03  0.17300000000E+03 0. -1.
         -6    1    1    2    0  502 -0.86629532909E+02 -0.51320072186E+02 -0.12382096597E+03  0.23537004354E+03  0.17300000000E+03 0. -1.
</event>
<event>
 4    1  0.5821292E+000  0.1000000E+03  0.7546771E-02  0.1280296E+00
         21   -1    0    0  503  502  0.00000000000E+00  0.00000000000E+00  0.28940131536E+04  0.28940131536E+04  0.00000000000E+00 0. -1.
         21   -1    0    0  501  503 -0.00000000000E+00 -0.00000000000E+00 -0.80724979498E+02  0.80724979498E+02  0.00000000000E+00 0. -1.
          6    1    1    2  501    0  0.11376236151E+03 -0.21481202181E+03  0.23645838958E+03  0.38069364273E+03  0.17300000000E+03 0. -1.
         -6    1    1    2    0  502 -0.11376236151E+03  0.21481202181E+03  0.25768297845E+04  0.25940444904E+04  0.17300000000E+03 0. -1.
</event>
<event>
 4    1  0.5821292E+000  0.1000000E+03  0.7546771E-02  0.1280296E+00
         21   -1    0    0  503  502  0.00000000000E+00  0.00000000000E+00  0.45831240692E+03  0.45831240692E+03  0.00000000000E+00 0. -1.
         21   -1    0    0  501  503 -0.00000000000E+00 -0.00000000000E+00 -0.11322072776E+04  0.11322072776E+04  0.00000000000E+00 0. -1.
          6    1    1    2  501    0  0.14115329597E+03 -0.48136617712E+03 -0.87478224541E+03  0.10231376380E+04  0.17300000000E+03 0. -1.
         -6    1    1    2    0  502 -0.14115329597E+03  0.48136617712E+03  0.20088737469E+03  0.56738204655E+03  0.17300000000E+03 0. -1.
</event>
<event>
 4    1  0.5821292E+000  0.1000000E+03  0.7546771E-02  0.1280296E+00
         21   -1    0    0  501  502  0.00000000000E+00  0.00000000000E+00  0.43742972449E+03  0.43742972449E+03  0.00000000000E+00 0.  1.
         21   -1    0    0  502  503 -0.00000000000E+00 -0.00000000000E+00 -0.89175321940E+02  0.89175321940E+02  0.00000000000E+00 0.  1.
          6    1    1    2  501    0 -0.92766048451E+02 -0.11467391042E+02  0.19877767984E+03  0.27960437551E+03  0.17300000000E+03 0.  1.
         -6    1    1    2    0  503  0.92766048451E+02  0.11467391042E+02  0.14947672271E+03  0.24700067092E+03  0.17300000000E+03 0.  1.
</event>
<event>
 4    1  0.5821292E+000  0.1000000E+03  0.7546771E-02  0.1280296E+00
         21   -1    0    0  501  502  0.00000000000E+00  0.00000000000E+00  0.10500202866E+04  0.10500202866E+04  0.00000000000E+00 0.  1.
         21   -1    0    0  502  503 -0.00000000000E+00 -0.00000000000E+00 -0.59723277394E+02  0.59723277394E+02  0.00000000000E+00 0.  1.
          6    1    1    2  501    0  0.22787150902E+02  0.67451806327E+02  0.86400804924E+03  0.88402936013E+03  0.17300000000E+03 0.  1.
         -6    1    1    2    0  503 -0.22787150902E+02 -0.67451806327E+02  0.12628896000E+03  0.22571420390E+03  0.17300000000E+03 0.  1.
</event>
<event>
 4    1  0.5821292E+000  0.1000000E+03  0.7546771E-02  0.1280296E+00
         21   -1    0    0  501  502  0.00000000000E+00  0.00000000000E+00  0.63545694781E+03  0.63545694781E+03  0.00000000000E+00 0.  1.
         21   -1    0    0  502  503 -0.00000000000E+00 -0.00000000000E+00 -0.12164236149E+03  0.12164236149E+03  0.00000000000E+00 0.  1.
          6    1    1    2  501    0 -0.33816442028E+02  0.21104592806E+03  0.31280679808E+03  0.41648652851E+03  0.17300000000E+03 0.  1.
         -6    1    1    2    0  503  0.33816442028E+02 -0.21104592806E+03  0.20100778824E+03  0.34061278079E+03  0.17300000000E+03 0.  1.
</event>
<event>
 4    1  0.5821292E+000  0.1000000E+03  0.7546771E-02  0.1280296E+00
         21   -1    0    0  501  502  0.00000000000E+00  0.00000000000E+00  0.26202584394E+03  0.26202584394E+03  0.00000000000E+00 0.  1.
         21   -1    0    0  502  503 -0.00000000000E+00 -0.00000000000E+00 -0.24488786833E+03  0.24488786833E+03  0.00000000000E+00 0.  1.
          6    1    1    2  501    0 -0.17982215734E+03  0.43590618194E+02  0.99114352804E+01  0.25350224222E+03  0.17300000000E+03 0.  1.
         -6    1    1    2    0  503  0.17982215734E+03 -0.43590618194E+02  0.72265403296E+01  0.25341147004E+03  0.17300000000E+03 0.  1.
</event>
<event>
 4    1  0.5821292E+000  0.1000000E+03  0.7546771E-02  0.1280296E+00
         21   -1    0    0  501  502  0.00000000000E+00  0.00000000000E+00  0.71268153435E+02  0.71268153435E+02  0.00000000000E+00 0.  1.
         21   -1    0    0  502  503 -0.00000000000E+00 -0.00000000000E+00 -0.91805746959E+03  0.91805746959E+03  0.00000000000E+00 0.  1.
          6    1    1    2  501    0 -0.15490597260E+03 -0.10662547230E+03 -0.40097439971E+03  0.47547273414E+03  0.17300000000E+03 0.  1.
         -6    1    1    2    0  503  0.15490597260E+03  0.10662547230E+03 -0.44581491645E+03  0.51385288888E+03  0.17300000000E+03 0.  1.
</event>
<event>
 4    1  0.5821292E+000  0.1000000E+03  0.7546771E-02  0.1280296E+00
         21   -1    0    0  503  502  0.00000000000E+00  0.00000000000E+00  0.11000588287E+03  0.11000588287E+03  0.00000000000E+00 0. -1.
         21   -1    0    0  501  503 -0.00000000000E+00 -0.00000000000E+00 -0.47696126753E+03  0.47696126753E+03  0.00000000000E+00 0. -1.
          6    1    1    2  501    0 -0.90004493185E+01  0.12365301158E+03 -0.74998229938E+02  0.22566526063E+03  0.17300000000E+03 0. -1.
         -6    1    1    2    0  502  0.90004493185E+01 -0.12365301158E+03 -0.29195715472E+03  0.36130188977E+03  0.17300000000E+03 0. -1.
</event>
<event>
 4    1  0.5821292E+000  0.1000000E+03  0.7546771E-02  0.1280296E+00
         21   -1    0    0  503  502  0.00000000000E+00  0.00000000000E+00  0.14532774133E+03  0.14532774133E+03  0.00000000000E+00 0.  1.
         21   -1    0    0  501  503 -0.00000000000E+00 -0.00000000000E+00 -0.44681287640E+03  0.44681287640E+03  0.00000000000E+00 0.  1.
          6    1    1    2  501    0 -0.10968571948E+03  0.64464007162E+01 -0.32669133546E+03  0.38565365525E+03  0.17300000000E+03 0.  1.
         -6    1    1    2    0  502  0.10968571948E+03 -0.64464007162E+01  0.25206200395E+02  0.20648696249E+03  0.17300000000E+03 0.  1.
</event>
<event>
 4    1  0.5821292E+000  0.1000000E+03  0.7546771E-02  0.1280296E+00
         21   -1    0    0  503  502  0.00000000000E+00  0.00000000000E+00  0.13342697877E+03  0.13342697877E+03  0.00000000000E+00 0.  1.
         21   -1    0    0  501  503 -0.00000000000E+00 -0.00000000000E+00 -0.12840700868E+04  0.12840700868E+04  0.00000000000E+00 0.  1.
          6    1    1    2  501    0 -0.16487904878E+03 -0.24948523940E+03 -0.18496342081E+03  0.39187810917E+03  0.17300000000E+03 0.  1.
         -6    1    1    2    0  502  0.16487904878E+03  0.24948523940E+03 -0.96567968725E+03  0.10256189564E+04  0.17300000000E+03 0.  1.
</event>
<event>
 4    1  0.5821292E+000  0.1000000E+03  0.7546771E-02  0.1280296E+00
         21   -1    0    0  503  502  0.00000000000E+00  0.00000000000E+00  0.17098393943E+03  0.17098393943E+03  0.00000000000E+00 0.  1.
         21   -1    0    0  501  503 -0.00000000000E+00 -0.00000000000E+00 -0.34088314113E+03  0.34088314113E+03  0.00000000000E+00 0.  1.
          6    1    1    2  501    0  0.10343955817E+03 -0.11314096477E+03 -0.15882207513E+03  0.28045333240E+03  0.17300000000E+03 0.  1.
         -6    1    1    2    0  502 -0.10343955817E+03  0.11314096477E+03 -0.11077126579E+02  0.23141374816E+03  0.17300000000E+03 0.  1.
</event>
<event>
 4    1  0.5821292E+000  0.1000000E+03  0.7546771E-02  0.1280296E+00
         21   -1    0    0  503  502  0.00000000000E+00  0.00000000000E+00  0.15160897125E+03  0.15160897125E+03  0.00000000000E+00 0.  1.
         21   -1    0    0  501  503 -0.00000000000E+00 -0.00000000000E+00 -0.21762323795E+03  0.21762323795E+03  0.00000000000E+00 0.  1.
          6    1    1    2  501    0 -0.37906780442E+02  0.77589155876E+01  0.72330287203E+01  0.17742164885E+03  0.17300000000E+03 0.  1.
         -6    1    1    2    0  502  0.37906780442E+02 -0.77589155876E+01 -0.73247295422E+02  0.19181056035E+03  0.17300000000E+03 0.  1.
</event>
<event>
 4    1  0.5821292E+000  0.1000000E+03  0.7546771E-02  0.1280296E+00
         21   -1    0    0  501  502  0.00000000000E+00  0.00000000000E+00  0.34975461460E+03  0.34975461460E+03  0.00000000000E+00 0. -1.
         21   -1    0    0  502  503 -0.00000000000E+00 -0.00000000000E+00 -0.20020222792E+03  0.20020222792E+03  0.00000000000E+00 0.  1.
          6    1    1    2  501    0 -0.18827716719E+03 -0.38649176704E+02  0.13310448311E+03  0.29083991124E+03  0.17300000000E+03 0. -1.
         -6    1    1    2    0  503  0.18827716719E+03  0.38649176704E+02  0.16447903572E+02  0.25911693128E+03  0.17300000000E+03 0.  1.
</event>
<event>
 4    1  0.5821292E+000  0.1000000E+03  0.7546771E-02  0.1280296E+00
         21   -1    0    0  501  502  0.00000000000E+00  0.00000000000E+00  0.41775046607E+02  0.41775046607E+02  0.00000000000E+00 0.  1.
         21   -1    0    0  502  503 -0.00000000000E+00 -0.00000000000E+00 -0.96945547338E+03  0.96945547338E+03  0.00000000000E+00 0.  1.
          6    1    1    2  501    0 -0.22544803687E+02  0.96181849590E+02 -0.39229789673E+03  0.43998392714E+03  0.17300000000E+03 0.  1.
         -6    1    1    2    0  503  0.22544803687E+02 -0.96181849590E+02 -0.53538253005E+03  0.57124659285E+03  0.17300000000E+03 0.  1.
</event>
<event>
 4    1  0.5821292E+000  0.1000000E+03  0.7546771E-02  0.1280296E+00
         21   -1    0    0  503  502  0.00000000000E+00  0.00000000000E+00  0.20187201535E+03  0.20187201535E+03  0.00000000000E+00 0.  1.
         21   -1    0    0  501  503 -0.00000000000E+00 -0.00000000000E+00 -0.18100114393E+03  0.18100114393E+03  0.00000000000E+00 0.  1.
          6    1    1    2  501    0  0.45595091705E+02 -0.52876481130E+02 -0.31282697209E+02  0.18916247458E+03  0.17300000000E+03 0.  1.
         -6    1    1    2    0  502 -0.45595091705E+02  0.52876481130E+02  0.52153568631E+02  0.19371068470E+03  0.17300000000E+03 0.  1.
</event>
<event>
 4    1  0.5821292E+000  0.1000000E+03  0.7546771E-02  0.1280296E+00
         21   -1    0    0  503  502  0.00000000000E+00  0.00000000000E+00  0.30841651024E+03  0.30841651024E+03  0.00000000000E+00 0.  1.
         21   -1    0    0  501  503 -0.00000000000E+00 -0.00000000000E+00 -0.14859828878E+03  0.14859828878E+03  0.00000000000E+00 0.  1.
          6    1    1    2  501    0  0.35299601021E+02  0.19755525338E+02 -0.47575496017E+02  0.18392599173E+03  0.17300000000E+03 0.  1.
         -6    1    1    2    0  502 -0.35299601021E+02 -0.19755525338E+02  0.20739371748E+03  0.27308880729E+03  0.17300000000E+03 0.  1.
</event>
<event>
 4    1  0.5821292E+000  0.1000000E+03  0.7546771E-02  0.1280296E+00
         21   -1    0    0  503  502  0.00000000000E+00  0.00000000000E+00  0.17225071171E+03  0.17225071171E+03  0.00000000000E+00 0.  1.
         21   -1    0    0  501  503 -0.00000000000E+00 -0.00000000000E+00 -0.90897361613E+03  0.90897361613E+03  0.00000000000E+00 0.  1.
          6    1    1    2  501    0  0.35561042733E+03  0.18262739552E+01 -0.38670386496E+03  0.55311028780E+03  0.17300000000E+03 0.  1.
         -6    1    1    2    0  502 -0.35561042733E+03 -0.18262739552E+01 -0.35001903947E+03  0.52811404004E+03  0.17300000000E+03 0.  1.
</event>
<event>
 4    1  0.5821292E+000  0.1000000E+03  0.7546771E-02  0.1280296E+00
         21   -1    0    0  503  502  0.00000000000E+00  0.00000000000E+00  0.25748957926E+03  0.25748957926E+03  0.00000000000E+00 0.  1.
         21   -1    0    0  501  503 -0.00000000000E+00 -0.00000000000E+00 -0.14460203877E+03  0.14460203877E+03  0.00000000000E+00 0.  1.
          6    1    1    2  501    0  0.75436551105E+02  0.32301736214E+02  0.31558978649E+02  0.19405938405E+03  0.17300000000E+03 0.  1.
         -6    1    1    2    0  502 -0.75436551105E+02 -0.32301736214E+02  0.81328561838E+02  0.20803223398E+03  0.17300000000E+03 0.  1.
</event>
<event>
 4    1  0.5821292E+000  0.1000000E+03  0.7546771E-02  0.1280296E+00
         21   -1    0    0  503  502  0.00000000000E+00  0.00000000000E+00  0.14692081823E+04  0.14692081823E+04  0.00000000000E+00 0.  1.
         21   -1    0    0  501  503 -0.00000000000E+00 -0.00000000000E+00 -0.12902363146E+03  0.12902363146E+03  0.00000000000E+00 0. -1.
          6    1    1    2  501    0 -0.19936738975E+03  0.54661186138E+02  0.42557626005E+02  0.27290172754E+03  0.17300000000E+03 0.  1.
         -6    1    1    2    0  502  0.19936738975E+03 -0.54661186138E+02  0.12976269248E+04  0.13253300862E+04  0.17300000000E+03 0.  1.
</event>
<event>
 4    1  0.5821292E+000  0.1000000E+03  0.7546771E-02  0.1280296E+00
         21   -1    0    0  503  502  0.00000000000E+00  0.00000000000E+00  0.93058780545E+03  0.93058780545E+03  0.00000000000E+00 0.  1.
         21   -1    0    0  501  503 -0.00000000000E+00 -0.00000000000E+00 -0.61735239009E+02  0.61735239009E+02  0.00000000000E+00 0. -1.
          6    1    1    2  501    0 -0.14243262129E+03  0.26010592873E+02  0.26679865664E+03  0.34939107850E+03  0.17300000000E+03 0. -1.
         -6    1    1    2    0  502  0.14243262129E+03 -0.26010592873E+02  0.60205390980E+03  0.64293196596E+03  0.17300000000E+03 0.  1.
</event>
<event>
 4    1  0.5821292E+000  0.1000000E+03  0.7546771E-02  0.1280296E+00
         21   -1    0    0  503  502  0.00000000000E+00  0.00000000000E+00  0.44119599426E+03  0.44119599426E+03  0.00000000000E+00 0.  1.
         21   -1    0    0  501  503 -0.00000000000E+00 -0.00000000000E+00 -0.80346121819E+02  0.80346121819E+02  0.00000000000E+00 0. -1.
          6    1    1    2  501    0  0.70855680936E+02  0.10624706137E+02  0.20763570734E+03  0.27959792357E+03  0.17300000000E+03 0. -1.
         -6    1    1    2    0  502 -0.70855680936E+02 -0.10624706137E+02  0.15321416510E+03  0.24194419251E+03  0.17300000000E+03 0.  1.
</event>
<event>
 4    1  0.5821292E+000  0.1000000E+03  0.7546771E-02  0.1280296E+00
         21   -1    0    0  501  502  0.00000000000E+00  0.00000000000E+00  0.15208017110E+03  0.15208017110E+03  0.00000000000E+00 0.  1.
         21   -1    0    0  502  503 -0.00000000000E+00 -0.00000000000E+00 -0.45665938519E+03  0.45665938519E+03  0.00000000000E+00 0. -1.
          6    1    1    2  501    0 -0.13888517887E+03  0.11909121193E+03 -0.62469012400E+02  0.25942857818E+03  0.17300000000E+03 0. -1.
         -6    1    1    2    0  503  0.13888517887E+03 -0.11909121193E+03 -0.24211020168E+03  0.34931097811E+03  0.17300000000E+03 0.  1.
</event>
<event>
 4    1  0.5821292E+000  0.1000000E+03  0.7546771E-02  0.1280296E+00
         21   -1    0    0  503  502  0.00000000000E+00  0.00000000000E+00  0.10149541734E+03  0.10149541734E+03  0.00000000000E+00 0. -1.
         21   -1    0    0  501  503 -0.00000000000E+00 -0.00000000000E+00 -0.66277251703E+03  0.66277251703E+03  0.00000000000E+00 0. -1.
          6    1    1    2  501    0 -0.74729187385E+01 -0.19303158781E+03 -0.28760162836E+03  0.38724764046E+03  0.17300000000E+03 0. -1.
         -6    1    1    2    0  502  0.74729187385E+01  0.19303158781E+03 -0.27367547134E+03  0.37702029391E+03  0.17300000000E+03 0. -1.
</event>
<event>
 4    1  0.5821292E+000  0.1000000E+03  0.7546771E-02  0.1280296E+00
         21   -1    0    0  503  502  0.00000000000E+00  0.00000000000E+00  0.13386744020E+04  0.13386744020E+04  0.00000000000E+00 0. -1.
         21   -1    0    0  501  503 -0.00000000000E+00 -0.00000000000E+00 -0.37404753705E+02  0.37404753705E+02  0.00000000000E+00 0. -1.
          6    1    1    2  501    0  0.12096252622E+02 -0.59281255059E+02  0.25587467663E+03  0.31474026859E+03  0.17300000000E+03 0. -1.
         -6    1    1    2    0  502 -0.12096252622E+02  0.59281255059E+02  0.10453949716E+04  0.10613388871E+04  0.17300000000E+03 0. -1.
</event>
<event>
 4    1  0.5821292E+000  0.1000000E+03  0.7546771E-02  0.1280296E+00
         21   -1    0    0  503  502  0.00000000000E+00  0.00000000000E+00  0.66091669177E+03  0.66091669177E+03  0.00000000000E+00 0.  1.
         21   -1    0    0  501  503 -0.00000000000E+00 -0.00000000000E+00 -0.19619067148E+03  0.19619067148E+03  0.00000000000E+00 0.  1.
          6    1    1    2  501    0  0.71473535161E+02  0.50509480914E+02 -0.12877093378E+03  0.23274584266E+03  0.17300000000E+03 0.  1.
         -6    1    1    2    0  502 -0.71473535161E+02 -0.50509480914E+02  0.59349695407E+03  0.62436152058E+03  0.17300000000E+03 0.  1.
</event>
<event>
 4    1  0.5821292E+000  0.1000000E+03  0.7546771E-02  0.1280296E+00
         21   -1    0    0  503  502  0.00000000000E+00  0.00000000000E+00  0.52314051177E+03  0.52314051177E+03  0.00000000000E+00 0.  1.
         21   -1    0    0  501  503 -0.00000000000E+00 -0.00000000000E+00 -0.74143979376E+02  0.74143979376E+02  0.00000000000E+00 0.  1.
          6    1    1    2  501    0  0.71826273563E+02  0.17819962016E+02  0.13631202045E+03  0.23235001945E+03  0.17300000000E+03 0.  1.
         -6    1    1    2    0  502 -0.71826273563E+02 -0.17819962016E+02  0.31268451195E+03  0.36493447170E+03  0.17300000000E+03 0.  1.
</event>
<event>
 4    1  0.5821292E+000  0.1000000E+03  0.7546771E-02  0.1280296E+00
         21   -1    0    0  503  502  0.00000000000E+00  0.00000000000E+00  0.24981913420E+04  0.24981913420E+04  0.00000000000E+00 0.  1.
         21   -1    0    0  501  503 -0.00000000000E+00 -0.00000000000E+00 -0.18658980585E+02  0.18658980585E+02  0.00000000000E+00 0.  1.
          6    1    1    2  501    0  0.85690533107E+02 -0.35828693318E+02  0.71654174424E+03  0.74295870273E+03  0.17300000000E+03 0. -1.
         -6    1    1    2    0  502 -0.85690533107E+02  0.35828693318E+02  0.17629906172E+04  0.17738916199E+04  0.17300000000E+03 0. -1.
</event>
<event>
 4    1  0.5821292E+000  0.1000000E+03  0.7546771E-02  0.1280296E+00
         21   -1    0    0  503  502  0.00000000000E+00  0.00000000000E+00  0.14776877043E+03  0.14776877043E+03  0.00000000000E+00 0.  1.
         21   -1    0    0  501  503 -0.00000000000E+00 -0.00000000000E+00 -0.60712810353E+03  0.60712810353E+03  0.00000000000E+00 0.  1.
          6    1    1    2  501    0  0.19400410507E+03  0.29208458501E+02 -0.41357190120E+03  0.48934797874E+03  0.17300000000E+03 0. -1.
         -6    1    1    2    0  502 -0.19400410507E+03 -0.29208458501E+02 -0.45787431905E+02  0.26554889522E+03  0.17300000000E+03 0. -1.
</event>
<event>
 4    1  0.5821292E+000  0.1000000E+03  0.7546771E-02  0.1280296E+00
         21   -1    0    0  503  502  0.00000000000E+00  0.00000000000E+00  0.19922593724E+03  0.19922593724E+03  0.00000000000E+00 0.  1.
         21   -1    0    0  501  503 -0.00000000000E+00 -0.00000000000E+00 -0.43079803205E+03  0.43079803205E+03  0.00000000000E+00 0. -1.
          6    1    1    2  501    0 -0.10218805603E+03 -0.11345915432E+03 -0.30987667919E+03  0.38635208658E+03  0.17300000000E+03 0. -1.
         -6    1    1    2    0  502  0.10218805603E+03  0.11345915432E+03  0.78304584383E+02  0.24367188272E+03  0.17300000000E+03 0.  1.
</event>
<event>
 4    1  0.5821292E+000  0.1000000E+03  0.7546771E-02  0.1280296E+00
         21   -1    0    0  503  502  0.00000000000E+00  0.00000000000E+00  0.55157747305E+03  0.55157747305E+03  0.00000000000E+00 0. -1.
         21   -1    0    0  501  503 -0.00000000000E+00 -0.00000000000E+00 -0.64272394247E+02  0.64272394247E+02  0.00000000000E+00 0.  1.
          6    1    1    2  501    0  0.47841418413E+02 -0.40372331090E+02  0.30914041619E+03  0.35974369120E+03  0.17300000000E+03 0.  1.
         -6    1    1    2    0  502 -0.47841418413E+02  0.40372331090E+02  0.17816466262E+03  0.25610617610E+03  0.17300000000E+03 0. -1.
</event>
<event>
 4    1  0.5821292E+000  0.1000000E+03  0.7546771E-02  0.1280296E+00
         21   -1    0    0  503  502  0.00000000000E+00  0.00000000000E+00  0.39571883336E+02  0.39571883336E+02  0.00000000000E+00 0. -1.
         21   -1    0    0  501  503 -0.00000000000E+00 -0.00000000000E+00 -0.13403009835E+04  0.13403009835E+04  0.00000000000E+00 0.  1.
          6    1    1    2  501    0  0.25035134914E+01 -0.15082832352E+03 -0.70671316883E+03  0.74305312983E+03  0.17300000000E+03 0.  1.
         -6    1    1    2    0  502 -0.25035134914E+01  0.15082832352E+03 -0.59401593134E+03  0.63681973701E+03  0.17300000000E+03 0. -1.
</event>
<event>
 4    1  0.5821292E+000  0.1000000E+03  0.7546771E-02  0.1280296E+00
         21   -1    0    0  503  502  0.00000000000E+00  0.00000000000E+00  0.11487565835E+03  0.11487565835E+03  0.00000000000E+00 0.  1.
         21   -1    0    0  501  503 -0.00000000000E+00 -0.00000000000E+00 -0.28274190085E+03  0.28274190085E+03  0.00000000000E+00 0.  1.
          6    1    1    2  501    0  0.32529152214E+02  0.33408607766E+02 -0.10534864471E+03  0.20784998859E+03  0.17300000000E+03 0. -1.
         -6    1    1    2    0  502 -0.32529152214E+02 -0.33408607766E+02 -0.62517597791E+02  0.18976757060E+03  0.17300000000E+03 0. -1.
</event>
<event>
 4    1  0.5821292E+000  0.1000000E+03  0.7546771E-02  0.1280296E+00
         21   -1    0    0  503  502  0.00000000000E+00  0.00000000000E+00  0.94777993709E+03  0.94777993709E+03  0.00000000000E+00 0.  1.
         21   -1    0    0  501  503 -0.00000000000E+00 -0.00000000000E+00 -0.34457664403E+02  0.34457664403E+02  0.00000000000E+00 0.  1.
          6    1    1    2  501    0 -0.13545425765E+02 -0.32644643768E+02  0.56121499417E+03  0.58833699612E+03  0.17300000000E+03 0. -1.
         -6    1    1    2    0  502  0.13545425765E+02  0.32644643768E+02  0.35210727852E+03  0.39390060537E+03  0.17300000000E+03 0. -1.
</event>
<event>
 4    1  0.5821292E+000  0.1000000E+03  0.7546771E-02  0.1280296E+00
         21   -1    0    0  501  502  0.00000000000E+00  0.00000000000E+00  0.18853187857E+03  0.18853187857E+03  0.00000000000E+00 0. -1.
         21   -1    0    0  502  503 -0.00000000000E+00 -0.00000000000E+00 -0.33622919839E+03  0.33622919839E+03  0.00000000000E+00 0. -1.
          6    1    1    2  501    0  0.34596358293E+02  0.36033863010E+02  0.10953518924E+03  0.21076599577E+03  0.17300000000E+03 0. -1.
         -6    1    1    2    0  503 -0.34596358293E+02 -0.36033863010E+02 -0.25723250906E+03  0.31399508118E+03  0.17300000000E+03 0. -1.
</event>
<event>
 4    1  0.5821292E+000  0.1000000E+03  0.7546771E-02  0.1280296E+00
         21   -1    0    0  501  502  0.00000000000E+00  0.00000000000E+00  0.25562658147E+04  0.25562658147E+04  0.00000000000E+00 0. -1.
         21   -1    0    0  502  503 -0.00000000000E+00 -0.00000000000E+00 -0.10151233230E+03  0.10151233230E+03  0.00000000000E+00 0. -1.
          6    1    1    2  501    0  0.11795274885E+03  0.15614042834E+03  0.23682848896E+04  0.23826445397E+04  0.17300000000E+03 0. -1.
         -6    1    1    2    0  503 -0.11795274885E+03 -0.15614042834E+03  0.86468592827E+02  0.27513360730E+03  0.17300000000E+03 0. -1.
</event>
<event>
 4    1  0.5821292E+000  0.1000000E+03  0.7546771E-02  0.1280296E+00
         21   -1    0    0  501  502  0.00000000000E+00  0.00000000000E+00  0.42830728604E+03  0.42830728604E+03  0.00000000000E+00 0. -1.
         21   -1    0    0  502  503 -0.00000000000E+00 -0.00000000000E+00 -0.70614931242E+03  0.70614931242E+03  0.00000000000E+00 0. -1.
          6    1    1    2  501    0  0.12785418954E+03  0.39717014398E+03  0.18466787359E+03  0.48797750009E+03  0.17300000000E+03 0. -1.
         -6    1    1    2    0  503 -0.12785418954E+03 -0.39717014398E+03 -0.46250989997E+03  0.64647909837E+03  0.17300000000E+03 0. -1.
</event>
<event>
 4    1  0.5821292E+000  0.1000000E+03  0.7546771E-02  0.1280296E+00
         21   -1    0    0  501  502  0.00000000000E+00  0.00000000000E+00  0.99748978270E+02  0.99748978270E+02  0.00000000000E+00 0. -1.
         21   -1    0    0  502  503 -0.00000000000E+00 -0.00000000000E+00 -0.59972653761E+03  0.59972653761E+03  0.00000000000E+00 0. -1.
          6    1    1    2  501    0 -0.69242912727E+02 -0.65850379069E+02 -0.43950018033E+02  0.20246347194E+03  0.17300000000E+03 0. -1.
         -6    1    1    2    0  503  0.69242912727E+02  0.65850379069E+02 -0.45602754131E+03  0.49701204394E+03  0.17300000000E+03 0. -1.
</event>
<event>
 4    1  0.5821292E+000  0.1000000E+03  0.7546771E-02  0.1280296E+00
         21   -1    0    0  501  502  0.00000000000E+00  0.00000000000E+00  0.37902722370E+03  0.37902722370E+03  0.00000000000E+00 0. -1.
         21   -1    0    0  502  503 -0.00000000000E+00 -0.00000000000E+00 -0.39936418132E+03  0.39936418132E+03  0.00000000000E+00 0. -1.
          6    1    1    2  501    0 -0.28014529204E+02  0.10102866281E+03  0.32228413163E+03  0.38050974502E+03  0.17300000000E+03 0. -1.
         -6    1    1    2    0  503  0.28014529204E+02 -0.10102866281E+03 -0.34262108926E+03  0.39788165999E+03  0.17300000000E+03 0. -1.
</event>
<event>
 4    1  0.5821292E+000  0.1000000E+03  0.7546771E-02  0.1280296E+00
         21   -1    0    0  501  502  0.00000000000E+00  0.00000000000E+00  0.21852189897E+03  0.21852189897E+03  0.00000000000E+00 0. -1.
         21   -1    0    0  502  503 -0.00000000000E+00 -0.00000000000E+00 -0.17064408206E+03  0.17064408206E+03  0.00000000000E+00 0. -1.
          6    1    1    2  501    0  0.78476016569E+02  0.34511931493E+02  0.20610554520E+02  0.19417351403E+03  0.17300000000E+03 0. -1.
         -6    1    1    2    0  503 -0.78476016569E+02 -0.34511931493E+02  0.27267262392E+02  0.19499246701E+03  0.17300000000E+03 0. -1.
</event>
<event>
 4    1  0.5821292E+000  0.1000000E+03  0.7546771E-02  0.1280296E+00
         21   -1    0    0  501  502  0.00000000000E+00  0.00000000000E+00  0.49488834769E+03  0.49488834769E+03  0.00000000000E+00 0. -1.
         21   -1    0    0  502  503 -0.00000000000E+00 -0.00000000000E+00 -0.29641175679E+03  0.29641175679E+03  0.00000000000E+00 0. -1.
          6    1    1    2  501    0  0.16046840895E+03  0.24511549123E+03  0.28091528818E+03  0.44121889516E+03  0.17300000000E+03 0. -1.
         -6    1    1    2    0  503 -0.16046840895E+03 -0.24511549123E+03 -0.82438697290E+02  0.35008120932E+03  0.17300000000E+03 0. -1.
</event>
<event>
 4    1  0.5821292E+000  0.1000000E+03  0.7546771E-02  0.1280296E+00
         21   -1    0    0  501  502  0.00000000000E+00  0.00000000000E+00  0.13620653411E+03  0.13620653411E+03  0.00000000000E+00 0. -1.
         21   -1    0    0  502  503 -0.00000000000E+00 -0.00000000000E+00 -0.34091570514E+03  0.34091570514E+03  0.00000000000E+00 0. -1.
          6    1    1    2  501    0  0.22796736485E+02  0.11642010075E+03 -0.47751909188E+02  0.21513385574E+03  0.17300000000E+03 0. -1.
         -6    1    1    2    0  503 -0.22796736485E+02 -0.11642010075E+03 -0.15695726184E+03  0.26198838352E+03  0.17300000000E+03 0. -1.
</event>
<event>
 4    1  0.5821292E+000  0.1000000E+03  0.7546771E-02  0.1280296E+00
         21   -1    0    0  503  502  0.00000000000E+00  0.00000000000E+00  0.12611425077E+03  0.12611425077E+03  0.00000000000E+00 0. -1.
         21   -1    0    0  501  503 -0.00000000000E+00 -0.00000000000E+00 -0.78113708978E+03  0.78113708978E+03  0.00000000000E+00 0.  1.
          6    1    1    2  501    0 -0.16626067555E+03 -0.69155610664E+02 -0.60233662555E+03  0.65204564349E+03  0.17300000000E+03 0. -1.
         -6    1    1    2    0  502  0.16626067555E+03  0.69155610664E+02 -0.52686213465E+02  0.25520569705E+03  0.17300000000E+03 0.  1.
</event>
<event>
 4    1  0.5821292E+000  0.1000000E+03  0.7546771E-02  0.1280296E+00
         21   -1    0    0  503  502  0.00000000000E+00  0.00000000000E+00  0.30592477206E+03  0.30592477206E+03  0.00000000000E+00 0. -1.
         21   -1    0    0  501  503 -0.00000000000E+00 -0.00000000000E+00 -0.27473361917E+03  0.27473361917E+03  0.00000000000E+00 0.  1.
          6    1    1    2  501    0 -0.21551364115E+02  0.19179004678E+03 -0.11448039554E+03  0.28334192119E+03  0.17300000000E+03 0. -1.
         -6    1    1    2    0  502  0.21551364115E+02 -0.19179004678E+03  0.14567154843E+03  0.29731647005E+03  0.17300000000E+03 0.  1.
</event>
<event>
 4    1  0.5821292E+000  0.1000000E+03  0.7546771E-02  0.1280296E+00
         21   -1    0    0  503  502  0.00000000000E+00  0.00000000000E+00  0.44852341709E+03  0.44852341709E+03  0.00000000000E+00 0. -1.
         21   -1    0    0  501  503 -0.00000000000E+00 -0.00000000000E+00 -0.17030476890E+03  0.17030476890E+03  0.00000000000E+00 0.  1.
          6    1    1    2  501    0  0.28852219356E+02 -0.25622020748E+02 -0.98292825956E+02  0.20268058156E+03  0.17300000000E+03 0. -1.
         -6    1    1    2    0  502 -0.28852219356E+02  0.25622020748E+02  0.37651147414E+03  0.41614760443E+03  0.17300000000E+03 0.  1.
</event>
<event>
 4    1  0.5821292E+000  0.1000000E+03  0.7546771E-02  0.1280296E+00
         21   -1    0    0  503  502  0.00000000000E+00  0.00000000000E+00  0.50984415568E+03  0.50984415568E+03  0.00000000000E+00 0. -1.
         21   -1    0    0  501  503 -0.00000000000E+00 -0.00000000000E+00 -0.36257914776E+03  0.36257914776E+03  0.00000000000E+00 0.  1.
          6    1    1    2  501    0 -0.46180503398E+02 -0.33048319787E+03 -0.13816027836E+03  0.40046104116E+03  0.17300000000E+03 0. -1.
         -6    1    1    2    0  502  0.46180503398E+02  0.33048319787E+03  0.28542528628E+03  0.47196226228E+03  0.17300000000E+03 0.  1.
</event>
<event>
 4    1  0.5821292E+000  0.1000000E+03  0.7546771E-02  0.1280296E+00
         21   -1    0    0  503  502  0.00000000000E+00  0.00000000000E+00  0.23022088058E+03  0.23022088058E+03  0.00000000000E+00 0. -1.
         21   -1    0    0  501  503 -0.00000000000E+00 -0.00000000000E+00 -0.14221417584E+03  0.14221417584E+03  0.00000000000E+00 0.  1.
          6    1    1    2  501    0 -0.45809811447E+01 -0.14385856148E+01 -0.10343107750E+02  0.17337541577E+03  0.17300000000E+03 0. -1.
         -6    1    1    2    0  502  0.45809811447E+01  0.14385856148E+01  0.98349812495E+02  0.19905964065E+03  0.17300000000E+03 0.  1.
</event>
<event>
 4    1  0.5821292E+000  0.1000000E+03  0.7546771E-02  0.1280296E+00
         21   -1    0    0  503  502  0.00000000000E+00  0.00000000000E+00  0.36843885281E+03  0.36843885281E+03  0.00000000000E+00 0. -1.
         21   -1    0    0  501  503 -0.00000000000E+00 -0.00000000000E+00 -0.26344499303E+03  0.26344499303E+03  0.00000000000E+00 0.  1.
          6    1    1    2  501    0  0.48142559189E+02  0.12224197598E+03 -0.17397520571E+03  0.27831129855E+03  0.17300000000E+03 0. -1.
         -6    1    1    2    0  502 -0.48142559189E+02 -0.12224197598E+03  0.27896906550E+03  0.35357254729E+03  0.17300000000E+03 0.  1.
</event>
<event>
 4    1  0.5821292E+000  0.1000000E+03  0.7546771E-02  0.1280296E+00
         21   -1    0    0  501  502  0.00000000000E+00  0.00000000000E+00  0.11381366119E+04  0.11381366119E+04  0.00000000000E+00 0. -1.
         21   -1    0    0  502  503 -0.00000000000E+00 -0.00000000000E+00 -0.31672441618E+02  0.31672441618E+02  0.00000000000E+00 0. -1.
          6    1    1    2  501    0  0.63613124195E+02 -0.45085273334E+02  0.57253348083E+03  0.60316075644E+03  0.17300000000E+03 0.  1.
         -6    1    1    2    0  503 -0.63613124195E+02  0.45085273334E+02  0.53393068949E+03  0.56664829712E+03  0.17300000000E+03 0.  1.
</event>
<event>
 4    1  0.5821292E+000  0.1000000E+03  0.7546771E-02  0.1280296E+00
         21   -1    0    0  501  502  0.00000000000E+00  0.00000000000E+00  0.27738028710E+03  0.27738028710E+03  0.00000000000E+00 0. -1.
         21   -1    0    0  502  503 -0.00000000000E+00 -0.00000000000E+00 -0.10697356494E+04  0.10697356494E+04  0.00000000000E+00 0. -1.
          6    1    1    2  501    0  0.25206198530E+03  0.27560683208E+03  0.44999975098E+02  0.41406324165E+03  0.17300000000E+03 0.  1.
         -6    1    1    2    0  503 -0.25206198530E+03 -0.27560683208E+03 -0.83735533742E+03  0.93305269488E+03  0.17300000000E+03 0.  1.
</event>
<event>
 4    1  0.5821292E+000  0.1000000E+03  0.7546771E-02  0.1280296E+00
         21   -1    0    0  501  502  0.00000000000E+00  0.00000000000E+00  0.18172974130E+04  0.18172974130E+04  0.00000000000E+00 0. -1.
         21   -1    0    0  502  503 -0.00000000000E+00 -0.00000000000E+00 -0.12091888145E+03  0.12091888145E+03  0.00000000000E+00 0. -1.
          6    1    1    2  501    0  0.29831368727E+03  0.14763695699E+03  0.14293616811E+04  0.14777657266E+04  0.17300000000E+03 0.  1.
         -6    1    1    2    0  503 -0.29831368727E+03 -0.14763695699E+03  0.26701685046E+03  0.46045056794E+03  0.17300000000E+03 0.  1.
</event>
<event>
 4    1  0.5821292E+000  0.1000000E+03  0.7546771E-02  0.1280296E+00
         21   -1    0    0  501  502  0.00000000000E+00  0.00000000000E+00  0.64654935594E+02  0.64654935594E+02  0.00000000000E+00 0. -1.
         21   -1    0    0  502  503 -0.00000000000E+00 -0.00000000000E+00 -0.48008410249E+03  0.48008410249E+03  0.00000000000E+00 0. -1.
          6    1    1    2  501    0 -0.23963347266E+02 -0.21632175068E+02 -0.22052031726E+03  0.28213543438E+03  0.17300000000E+03 0.  1.
         -6    1    1    2    0  503  0.23963347266E+02  0.21632175068E+02 -0.19490884964E+03  0.26260360370E+03  0.17300000000E+03 0.  1.
</event>
<event>
 4    1  0.5821292E+000  0.1000000E+03  0.7546771E-02  0.1280296E+00
         21   -1    0    0  501  502  0.00000000000E+00  0.00000000000E+00  0.38093160562E+03  0.38093160562E+03  0.00000000000E+00 0.  1.
         21   -1    0    0  502  503 -0.00000000000E+00 -0.00000000000E+00 -0.18767290014E+03  0.18767290014E+03  0.00000000000E+00 0. -1.
          6    1    1    2  501    0 -0.95072568061E+02 -0.18001970098E+03  0.10806431987E+03  0.28818879779E+03  0.17300000000E+03 0. -1.
         -6    1    1    2    0  503  0.95072568061E+02  0.18001970098E+03  0.85194385608E+02  0.28041570798E+03  0.17300000000E+03 0.  1.
</event>
<event>
 4    1  0.5821292E+000  0.1000000E+03  0.7546771E-02  0.1280296E+00
         21   -1    0    0  501  502  0.00000000000E+00  0.00000000000E+00  0.56050705318E+02  0.56050705318E+02  0.00000000000E+00 0.  1.
         21   -1    0    0  502  503 -0.00000000000E+00 -0.00000000000E+00 -0.55898238830E+03  0.55898238830E+03  0.00000000000E+00 0. -1.
          6    1    1    2  501    0  0.19755538902E+02  0.31804506305E+02 -0.25275331584E+03  0.30856935461E+03  0.17300000000E+03 0. -1.
         -6    1    1    2    0  503 -0.19755538902E+02 -0.31804506305E+02 -0.25017836714E+03  0.30646373900E+03  0.17300000000E+03 0.  1.
</event>
<event>
 4    1  0.5821292E+000  0.1000000E+03  0.7546771E-02  0.1280296E+00
         21   -1    0    0  503  502  0.00000000000E+00  0.00000000000E+00  0.60423415510E+02  0.60423415510E+02  0.00000000000E+00 0. -1.
         21   -1    0    0  501  503 -0.00000000000E+00 -0.00000000000E+00 -0.13616673083E+04  0.13616673083E+04  0.00000000000E+00 0. -1.
          6    1    1    2  501    0  0.21894752161E+03 -0.31492599292E+02 -0.79554309275E+03  0.84365135776E+03  0.17300000000E+03 0. -1.
         -6    1    1    2    0  502 -0.21894752161E+03  0.31492599292E+02 -0.50570080001E+03  0.57843936602E+03  0.17300000000E+03 0. -1.
</event>
<event>
 4    1  0.5821292E+000  0.1000000E+03  0.7546771E-02  0.1280296E+00
         21   -1    0    0  503  502  0.00000000000E+00  0.00000000000E+00  0.58628587914E+03  0.58628587914E+03  0.00000000000E+00 0. -1.
         21   -1    0    0  501  503 -0.00000000000E+00 -0.00000000000E+00 -0.15894261107E+03  0.15894261107E+03  0.00000000000E+00 0. -1.
          6    1    1    2  501    0 -0.67582515562E+01  0.23914321764E+03  0.11895144968E+03  0.31829797343E+03  0.17300000000E+03 0. -1.
         -6    1    1    2    0  502  0.67582515562E+01 -0.23914321764E+03  0.30839181839E+03  0.42693051678E+03  0.17300000000E+03 0. -1.
</event>
<event>
 4    1  0.5821292E+000  0.1000000E+03  0.7546771E-02  0.1280296E+00
         21   -1    0    0  503  502  0.00000000000E+00  0.00000000000E+00  0.50355853891E+03  0.50355853891E+03  0.00000000000E+00 0. -1.
         21   -1    0    0  501  503 -0.00000000000E+00 -0.00000000000E+00 -0.73452278123E+02  0.73452278123E+02  0.00000000000E+00 0. -1.
          6    1    1    2  501    0 -0.79269101681E+02  0.75560416153E+01  0.17486114640E+03  0.25854613663E+03  0.17300000000E+03 0. -1.
         -6    1    1    2    0  502  0.79269101681E+02 -0.75560416153E+01  0.25524511438E+03  0.31846468040E+03  0.17300000000E+03 0. -1.
</event>
<event>
 4    1  0.5821292E+000  0.1000000E+03  0.7546771E-02  0.1280296E+00
         21   -1    0    0  501  502  0.00000000000E+00  0.00000000000E+00  0.60489195039E+03  0.60489195039E+03  0.00000000000E+00 0. -1.
         21   -1    0    0  502  503 -0.00000000000E+00 -0.00000000000E+00 -0.59639707817E+02  0.59639707817E+02  0.00000000000E+00 0. -1.
          6    1    1    2  501    0  0.37714077672E+02  0.65283489961E+02  0.31023911499E+03  0.36312751780E+03  0.17300000000E+03 0. -1.
         -6    1    1    2    0  503 -0.37714077672E+02 -0.65283489961E+02  0.23501312758E+03  0.30140414040E+03  0.17300000000E+03 0. -1.
</event>
<event>
 4    1  0.5821292E+000  0.1000000E+03  0.7546771E-02  0.1280296E+00
         21   -1    0    0  503  502  0.00000000000E+00  0.00000000000E+00  0.76503733009E+02  0.76503733009E+02  0.00000000000E+00 0.  1.
         21   -1    0    0  501  503 -0.00000000000E+00 -0.00000000000E+00 -0.10579618045E+04  0.10579618045E+04  0.00000000000E+00 0.  1.
          6    1    1    2  501    0 -0.11233236109E+03  0.18847294933E+03 -0.38394507379E+03  0.47485095732E+03  0.17300000000E+03 0.  1.
         -6    1    1    2    0  502  0.11233236109E+03 -0.18847294933E+03 -0.59751299765E+03  0.65961458014E+03  0.17300000000E+03 0.  1.
</event>
<event>
 4    1  0.5821292E+000  0.1000000E+03  0.7546771E-02  0.1280296E+00
         21   -1    0    0  503  502  0.00000000000E+00  0.00000000000E+00  0.15987206575E+03  0.15987206575E+03  0.00000000000E+00 0.  1.
         21   -1    0    0  501  503 -0.00000000000E+00 -0.00000000000E+00 -0.81995418879E+03  0.81995418879E+03  0.00000000000E+00 0.  1.
          6    1    1    2  501    0  0.20607087546E+03 -0.10999545488E+03 -0.62212361439E+03  0.68668114682E+03  0.17300000000E+03 0.  1.
         -6    1    1    2    0  502 -0.20607087546E+03  0.10999545488E+03 -0.37958508648E+02  0.29314510773E+03  0.17300000000E+03 0.  1.
</event>
<event>
 4    1  0.5821292E+000  0.1000000E+03  0.7546771E-02  0.1280296E+00
         21   -1    0    0  503  502  0.00000000000E+00  0.00000000000E+00  0.72144699011E+03  0.72144699011E+03  0.00000000000E+00 0.  1.
         21   -1    0    0  501  503 -0.00000000000E+00 -0.00000000000E+00 -0.72627658959E+02  0.72627658959E+02  0.00000000000E+00 0.  1.
          6    1    1    2  501    0 -0.47039078860E+02 -0.37009667213E+01  0.57118450750E+03  0.59867112316E+03  0.17300000000E+03 0.  1.
         -6    1    1    2    0  502  0.47039078860E+02  0.37009667213E+01  0.77634823649E+02  0.19540352591E+03  0.17300000000E+03 0.  1.
</event>
<event>
 4    1  0.5821292E+000  0.1000000E+03  0.7546771E-02  0.1280296E+00
         21   -1    0    0  503  502  0.00000000000E+00  0.00000000000E+00  0.57115600929E+03  0.57115600929E+03  0.00000000000E+00 0.  1.
         21   -1    0    0  501  503 -0.00000000000E+00 -0.00000000000E+00 -0.17568120642E+03  0.17568120642E+03  0.00000000000E+00 0.  1.
          6    1    1    2  501    0  0.83846134891E+02  0.81194961195E+01 -0.98891600314E+02  0.21634382165E+03  0.17300000000E+03 0.  1.
         -6    1    1    2    0  502 -0.83846134891E+02 -0.81194961195E+01  0.49436640318E+03  0.53049339407E+03  0.17300000000E+03 0.  1.
</event>
<event>
 4    1  0.5821292E+000  0.1000000E+03  0.7546771E-02  0.1280296E+00
         21   -1    0    0  501  502  0.00000000000E+00  0.00000000000E+00  0.10978167796E+03  0.10978167796E+03  0.00000000000E+00 0. -1.
         21   -1    0    0  502  503 -0.00000000000E+00 -0.00000000000E+00 -0.92913868447E+03  0.92913868447E+03  0.00000000000E+00 0.  1.
          6    1    1    2  501    0  0.31385988972E+02 -0.84646902469E+02  0.15435522560E+01  0.19514497420E+03  0.17300000000E+03 0. -1.
         -6    1    1    2    0  503 -0.31385988972E+02  0.84646902469E+02 -0.82090055876E+03  0.84377538823E+03  0.17300000000E+03 0.  1.
</event>
<event>
 4    1  0.5821292E+000  0.1000000E+03  0.7546771E-02  0.1280296E+00
         21   -1    0    0  501  502  0.00000000000E+00  0.00000000000E+00  0.40348999760E+03  0.40348999760E+03  0.00000000000E+00 0. -1.
         21   -1    0    0  502  503 -0.00000000000E+00 -0.00000000000E+00 -0.22514595314E+03  0.22514595314E+03  0.00000000000E+00 0.  1.
          6    1    1    2  501    0 -0.28661839259E+00 -0.89077602101E+02  0.32920875938E+03  0.38241640734E+03  0.17300000000E+03 0. -1.
         -6    1    1    2    0  503  0.28661839259E+00  0.89077602101E+02 -0.15086471492E+03  0.24621954341E+03  0.17300000000E+03 0.  1.
</event>
<event>
 4    1  0.5821292E+000  0.1000000E+03  0.7546771E-02  0.1280296E+00
         21   -1    0    0  501  502  0.00000000000E+00  0.00000000000E+00  0.35472119972E+03  0.35472119972E+03  0.00000000000E+00 0. -1.
         21   -1    0    0  502  503 -0.00000000000E+00 -0.00000000000E+00 -0.60509936053E+03  0.60509936053E+03  0.00000000000E+00 0.  1.
          6    1    1    2  501    0  0.26622595393E+02  0.16737685742E+03  0.28393009647E+03  0.37318772041E+03  0.17300000000E+03 0.  1.
         -6    1    1    2    0  503 -0.26622595393E+02 -0.16737685742E+03 -0.53430825727E+03  0.58663283984E+03  0.17300000000E+03 0. -1.
</event>
<event>
 4    1  0.5821292E+000  0.1000000E+03  0.7546771E-02  0.1280296E+00
         21   -1    0    0  501  502  0.00000000000E+00  0.00000000000E+00  0.13210358178E+03  0.13210358178E+03  0.00000000000E+00 0. -1.
         21   -1    0    0  502  503 -0.00000000000E+00 -0.00000000000E+00 -0.35885887163E+03  0.35885887163E+03  0.00000000000E+00 0.  1.
          6    1    1    2  501    0  0.41165050769E+02  0.62895210097E+02  0.92362328211E+01  0.18885093819E+03  0.17300000000E+03 0.  1.
         -6    1    1    2    0  503 -0.41165050769E+02 -0.62895210097E+02 -0.23599152267E+03  0.30211151522E+03  0.17300000000E+03 0. -1.
</event>
<event>
 4    1  0.5821292E+000  0.1000000E+03  0.7546771E-02  0.1280296E+00
         21   -1    0    0  501  502  0.00000000000E+00  0.00000000000E+00  0.89330476699E+03  0.89330476699E+03  0.00000000000E+00 0. -1.
         21   -1    0    0  502  503 -0.00000000000E+00 -0.00000000000E+00 -0.85516679863E+02  0.85516679863E+02  0.00000000000E+00 0. -1.
          6    1    1    2  501    0  0.94562876160E+02  0.19300057335E+03  0.43310270444E+03  0.51351563896E+03  0.17300000000E+03 0. -1.
         -6    1    1    2    0  503 -0.94562876160E+02 -0.19300057335E+03  0.37468538269E+03  0.46530580790E+03  0.17300000000E+03 0. -1.
</event>
<event>
 4    1  0.5821292E+000  0.1000000E+03  0.7546771E-02  0.1280296E+00
         21   -1    0    0  501  502  0.00000000000E+00  0.00000000000E+00  0.98473733273E+03  0.98473733273E+03  0.00000000000E+00 0. -1.
         21   -1    0    0  502  503 -0.00000000000E+00 -0.00000000000E+00 -0.38531460203E+02  0.38531460203E+02  0.00000000000E+00 0. -1.
          6    1    1    2  501    0  0.89164985927E+02 -0.79907958127E+01  0.47219376859E+03  0.51079369870E+03  0.17300000000E+03 0. -1.
         -6    1    1    2    0  503 -0.89164985927E+02  0.79907958127E+01  0.47401210394E+03  0.51247509424E+03  0.17300000000E+03 0. -1.
</event>
<event>
 4    1  0.5821292E+000  0.1000000E+03  0.7546771E-02  0.1280296E+00
         21   -1    0    0  503  502  0.00000000000E+00  0.00000000000E+00  0.44947977704E+02  0.44947977704E+02  0.00000000000E+00 0.  1.
         21   -1    0    0  501  503 -0.00000000000E+00 -0.00000000000E+00 -0.99254665815E+03  0.99254665815E+03  0.00000000000E+00 0.  1.
          6    1    1    2  501    0  0.35774397204E+02  0.63048684328E+02 -0.71228299627E+03  0.73656704438E+03  0.17300000000E+03 0.  1.
         -6    1    1    2    0  502 -0.35774397204E+02 -0.63048684328E+02 -0.23531568417E+03  0.30092759147E+03  0.17300000000E+03 0.  1.
</event>
<event>
 4    1  0.5821292E+000  0.1000000E+03  0.7546771E-02  0.1280296E+00
         21   -1    0    0  503  502  0.00000000000E+00  0.00000000000E+00  0.42796402036E+03  0.42796402036E+03  0.00000000000E+00 0.  1.
         21   -1    0    0  501  503 -0.00000000000E+00 -0.00000000000E+00 -0.27910763606E+03  0.27910763606E+03  0.00000000000E+00 0.  1.
          6    1    1    2  501    0 -0.12521584294E+03 -0.24047985149E+03 -0.55001012541E+02  0.32628772223E+03  0.17300000000E+03 0.  1.
         -6    1    1    2    0  502  0.12521584294E+03  0.24047985149E+03  0.20385739684E+03  0.38078393420E+03  0.17300000000E+03 0.  1.
</event>
<event>
 4    1  0.5821292E+000  0.1000000E+03  0.7546771E-02  0.1280296E+00
         21   -1    0    0  501  502  0.00000000000E+00  0.00000000000E+00  0.14322994625E+04  0.14322994625E+04  0.00000000000E+00 0. -1.
         21   -1    0    0  502  503 -0.00000000000E+00 -0.00000000000E+00 -0.15292757894E+03  0.15292757894E+03  0.00000000000E+00 0.  1.
          6    1    1    2  501    0  0.14441200921E+03 -0.24126329151E+03  0.12014957904E+04  0.12460272624E+04  0.17300000000E+03 0.  1.
         -6    1    1    2    0  503 -0.14441200921E+03  0.24126329151E+03  0.77876093160E+02  0.33919977907E+03  0.17300000000E+03 0.  1.
</event>
<event>
 4    1  0.5821292E+000  0.1000000E+03  0.7546771E-02  0.1280296E+00
         21   -1    0    0  503  502  0.00000000000E+00  0.00000000000E+00  0.10681748411E+04  0.10681748411E+04  0.00000000000E+00 0. -1.
         21   -1    0    0  501  503 -0.00000000000E+00 -0.00000000000E+00 -0.62799563241E+02  0.62799563241E+02  0.00000000000E+00 0.  1.
          6    1    1    2  501    0  0.44043918613E+02 -0.17927137069E+03  0.38163822803E+03  0.45788080131E+03  0.17300000000E+03 0.  1.
         -6    1    1    2    0  502 -0.44043918613E+02  0.17927137069E+03  0.62373704987E+03  0.67309360307E+03  0.17300000000E+03 0. -1.
</event>
<event>
 4    1  0.5821292E+000  0.1000000E+03  0.7546771E-02  0.1280296E+00
         21   -1    0    0  503  502  0.00000000000E+00  0.00000000000E+00  0.14486528652E+04  0.14486528652E+04  0.00000000000E+00 0. -1.
         21   -1    0    0  501  503 -0.00000000000E+00 -0.00000000000E+00 -0.34025939985E+03  0.34025939985E+03  0.00000000000E+00 0.  1.
          6    1    1    2  501    0  0.26696433547E+02  0.15984438246E+03 -0.28773378913E+03  0.37280378160E+03  0.17300000000E+03 0.  1.
         -6    1    1    2    0  502 -0.26696433547E+02 -0.15984438246E+03  0.13961272545E+04  0.14161084834E+04  0.17300000000E+03 0. -1.
</event>
<event>
 4    1  0.5821292E+000  0.1000000E+03  0.7546771E-02  0.1280296E+00
         21   -1    0    0  501  502  0.00000000000E+00  0.00000000000E+00  0.26933933821E+03  0.26933933821E+03  0.00000000000E+00 0. -1.
         21   -1    0    0  502  503 -0.00000000000E+00 -0.00000000000E+00 -0.34506228571E+03  0.34506228571E+03  0.00000000000E+00 0. -1.
          6    1    1    2  501    0  0.10582188676E+03 -0.10006683291E+03  0.16815527679E+03  0.28180993573E+03  0.17300000000E+03 0.  1.
         -6    1    1    2    0  503 -0.10582188676E+03  0.10006683291E+03 -0.24387822429E+03  0.33259168818E+03  0.17300000000E+03 0.  1.
</event>
<event>
 4    1  0.5821292E+000  0.1000000E+03  0.7546771E-02  0.1280296E+00
         21   -1    0    0  503  502  0.00000000000E+00  0.00000000000E+00  0.94847581169E+03  0.94847581169E+03  0.00000000000E+00 0.  1.
         21   -1    0    0  501  503 -0.00000000000E+00 -0.00000000000E+00 -0.44003578456E+02  0.44003578456E+02  0.00000000000E+00 0.  1.
          6    1    1    2  501    0  0.11940157299E+02 -0.75645218133E+02  0.26498634966E+03  0.32559412140E+03  0.17300000000E+03 0.  1.
         -6    1    1    2    0  502 -0.11940157299E+02  0.75645218133E+02  0.63948588357E+03  0.66688526875E+03  0.17300000000E+03 0.  1.
</event>
<event>
 4    1  0.5821292E+000  0.1000000E+03  0.7546771E-02  0.1280296E+00
         21   -1    0    0  503  502  0.00000000000E+00  0.00000000000E+00  0.65805850175E+03  0.65805850175E+03  0.00000000000E+00 0.  1.
         21   -1    0    0  501  503 -0.00000000000E+00 -0.00000000000E+00 -0.25493281441E+03  0.25493281441E+03  0.00000000000E+00 0.  1.
          6    1    1    2  501    0  0.13084426905E+03 -0.32628418058E+02 -0.18395297123E+03  0.28627352660E+03  0.17300000000E+03 0.  1.
         -6    1    1    2    0  502 -0.13084426905E+03  0.32628418058E+02  0.58707865857E+03  0.62671778956E+03  0.17300000000E+03 0.  1.
</event>
<event>
 4    1  0.5821292E+000  0.1000000E+03  0.7546771E-02  0.1280296E+00
         21   -1    0    0  503  502  0.00000000000E+00  0.00000000000E+00  0.69156603078E+02  0.69156603078E+02  0.00000000000E+00 0.  1.
         21   -1    0    0  501  503 -0.00000000000E+00 -0.00000000000E+00 -0.50980088995E+03  0.50980088995E+03  0.00000000000E+00 0.  1.
          6    1    1    2  501    0 -0.13101903889E+02 -0.32667346400E+02 -0.31889787421E+03  0.36450469075E+03  0.17300000000E+03 0.  1.
         -6    1    1    2    0  502  0.13101903889E+02  0.32667346400E+02 -0.12174641266E+03  0.21445280227E+03  0.17300000000E+03 0.  1.
</event>
<event>
 4    1  0.5821292E+000  0.1000000E+03  0.7546771E-02  0.1280296E+00
         21   -1    0    0  501  502  0.00000000000E+00  0.00000000000E+00  0.99034733124E+03  0.99034733124E+03  0.00000000000E+00 0. -1.
         21   -1    0    0  502  503 -0.00000000000E+00 -0.00000000000E+00 -0.23407111623E+03  0.23407111623E+03  0.00000000000E+00 0. -1.
          6    1    1    2  501    0 -0.46969430755E+02 -0.11348166309E+02  0.94614768206E+03  0.96304690673E+03  0.17300000000E+03 0. -1.
         -6    1    1    2    0  503  0.46969430755E+02  0.11348166309E+02 -0.18987146705E+03  0.26137154073E+03  0.17300000000E+03 0. -1.
</event>
<event>
 4    1  0.5821292E+000  0.1000000E+03  0.7546771E-02  0.1280296E+00
         21   -1    0    0  501  502  0.00000000000E+00  0.00000000000E+00  0.97453786444E+02  0.97453786444E+02  0.00000000000E+00 0. -1.
         21   -1    0    0  502  503 -0.00000000000E+00 -0.00000000000E+00 -0.29832503948E+04  0.29832503948E+04  0.00000000000E+00 0. -1.
          6    1    1    2  501    0  0.19302238595E+02  0.43688459507E+02  0.96207778199E+01  0.17972984525E+03  0.17300000000E+03 0. -1.
         -6    1    1    2    0  503 -0.19302238595E+02 -0.43688459507E+02 -0.28954173861E+04  0.29009743360E+04  0.17300000000E+03 0. -1.
</event>
<event>
 4    1  0.5821292E+000  0.1000000E+03  0.7546771E-02  0.1280296E+00
         21   -1    0    0  501  502  0.00000000000E+00  0.00000000000E+00  0.18962716288E+03  0.18962716288E+03  0.00000000000E+00 0. -1.
         21   -1    0    0  502  503 -0.00000000000E+00 -0.00000000000E+00 -0.21771952441E+03  0.21771952441E+03  0.00000000000E+00 0. -1.
          6    1    1    2  501    0  0.64124972992E+02  0.67067025932E+01  0.71006443253E+02  0.19780775264E+03  0.17300000000E+03 0. -1.
         -6    1    1    2    0  503 -0.64124972992E+02 -0.67067025932E+01 -0.99098804783E+02  0.20953893464E+03  0.17300000000E+03 0. -1.
</event>
<event>
 4    1  0.5821292E+000  0.1000000E+03  0.7546771E-02  0.1280296E+00
         21   -1    0    0  503  502  0.00000000000E+00  0.00000000000E+00  0.23144727211E+03  0.23144727211E+03  0.00000000000E+00 0.  1.
         21   -1    0    0  501  503 -0.00000000000E+00 -0.00000000000E+00 -0.18218563214E+03  0.18218563214E+03  0.00000000000E+00 0.  1.
          6    1    1    2  501    0 -0.17417086406E+02 -0.10872068165E+03  0.13885413637E+02  0.20553672720E+03  0.17300000000E+03 0.  1.
         -6    1    1    2    0  502  0.17417086406E+02  0.10872068165E+03  0.35376226330E+02  0.20809617706E+03  0.17300000000E+03 0.  1.
</event>
<event>
 4    1  0.5821292E+000  0.1000000E+03  0.7546771E-02  0.1280296E+00
         21   -1    0    0  503  502  0.00000000000E+00  0.00000000000E+00  0.57114645243E+03  0.57114645243E+03  0.00000000000E+00 0.  1.
         21   -1    0    0  501  503 -0.00000000000E+00 -0.00000000000E+00 -0.18219172689E+03  0.18219172689E+03  0.00000000000E+00 0.  1.
          6    1    1    2  501    0  0.84720643743E+02  0.13825167064E+03 -0.60915427573E+02  0.24480768213E+03  0.17300000000E+03 0.  1.
         -6    1    1    2    0  502 -0.84720643743E+02 -0.13825167064E+03  0.44987015311E+03  0.50853049719E+03  0.17300000000E+03 0.  1.
</event>
<event>
 4    1  0.5821292E+000  0.1000000E+03  0.7546771E-02  0.1280296E+00
         21   -1    0    0  501  502  0.00000000000E+00  0.00000000000E+00  0.20119664004E+03  0.20119664004E+03  0.00000000000E+00 0.  1.
         21   -1    0    0  502  503 -0.00000000000E+00 -0.00000000000E+00 -0.95239164185E+03  0.95239164185E+03  0.00000000000E+00 0. -1.
          6    1    1    2  501    0  0.22239132638E+03 -0.42500419662E+02  0.62263254678E+02  0.29166744865E+03  0.17300000000E+03 0.  1.
         -6    1    1    2    0  503 -0.22239132638E+03  0.42500419662E+02 -0.81345825648E+03  0.86192083323E+03  0.17300000000E+03 0.  1.
</event>
<event>
 4    1  0.5821292E+000  0.1000000E+03  0.7546771E-02  0.1280296E+00
         21   -1    0    0  501  502  0.00000000000E+00  0.00000000000E+00  0.31918072255E+03  0.31918072255E+03  0.00000000000E+00 0.  1.
         21   -1    0    0  502  503 -0.00000000000E+00 -0.00000000000E+00 -0.20046122776E+03  0.20046122776E+03  0.00000000000E+00 0. -1.
          6    1    1    2  501    0  0.15926876366E+03  0.52971383143E+02  0.13813644525E+03  0.27781861712E+03  0.17300000000E+03 0.  1.
         -6    1    1    2    0  503 -0.15926876366E+03 -0.52971383143E+02 -0.19416950467E+02  0.24182333319E+03  0.17300000000E+03 0.  1.
</event>
<event>
 4    1  0.5821292E+000  0.1000000E+03  0.7546771E-02  0.1280296E+00
         21   -1    0    0  501  502  0.00000000000E+00  0.00000000000E+00  0.51323892945E+03  0.51323892945E+03  0.00000000000E+00 0.  1.
         21   -1    0    0  502  503 -0.00000000000E+00 -0.00000000000E+00 -0.12792287045E+03  0.12792287045E+03  0.00000000000E+00 0. -1.
          6    1    1    2  501    0 -0.95712405659E+02  0.15215606313E+03  0.11955856487E+03  0.27665065078E+03  0.17300000000E+03 0.  1.
         -6    1    1    2    0  503  0.95712405659E+02 -0.15215606313E+03  0.26575749413E+03  0.36451114912E+03  0.17300000000E+03 0.  1.
</event>
<event>
 4    1  0.5821292E+000  0.1000000E+03  0.7546771E-02  0.1280296E+00
         21   -1    0    0  501  502  0.00000000000E+00  0.00000000000E+00  0.32970489504E+03  0.32970489504E+03  0.00000000000E+00 0.  1.
         21   -1    0    0  502  503 -0.00000000000E+00 -0.00000000000E+00 -0.31911279255E+03  0.31911279255E+03  0.00000000000E+00 0. -1.
          6    1    1    2  501    0  0.14502026324E+03  0.23279161507E+03  0.13122500139E+02  0.32453661243E+03  0.17300000000E+03 0.  1.
         -6    1    1    2    0  503 -0.14502026324E+03 -0.23279161507E+03 -0.25303976405E+01  0.32428107516E+03  0.17300000000E+03 0.  1.
</event>
<event>
 4    1  0.5821292E+000  0.1000000E+03  0.7546771E-02  0.1280296E+00
         21   -1    0    0  501  502  0.00000000000E+00  0.00000000000E+00  0.28698057506E+03  0.28698057506E+03  0.00000000000E+00 0.  1.
         21   -1    0    0  502  503 -0.00000000000E+00 -0.00000000000E+00 -0.14638717846E+03  0.14638717846E+03  0.00000000000E+00 0.  1.
          6    1    1    2  501    0 -0.56020347618E+02  0.74647035120E+02  0.13167522271E+03  0.23659633023E+03  0.17300000000E+03 0. -1.
         -6    1    1    2    0  503  0.56020347618E+02 -0.74647035120E+02  0.89181738880E+01  0.19677142329E+03  0.17300000000E+03 0. -1.
</event>
<event>
 4    1  0.5821292E+000  0.1000000E+03  0.7546771E-02  0.1280296E+00
         21   -1    0    0  503  502  0.00000000000E+00  0.00000000000E+00  0.13382906529E+04  0.13382906529E+04  0.00000000000E+00 0.  1.
         21   -1    0    0  501  503 -0.00000000000E+00 -0.00000000000E+00 -0.94458210387E+02  0.94458210387E+02  0.00000000000E+00 0. -1.
          6    1    1    2  501    0  0.98227872180E+02  0.83394193849E+02  0.52454336554E+02  0.22199946816E+03  0.17300000000E+03 0. -1.
         -6    1    1    2    0  502 -0.98227872180E+02 -0.83394193849E+02  0.11913781060E+04  0.12107493951E+04  0.17300000000E+03 0.  1.
</event>
<event>
 4    1  0.5821292E+000  0.1000000E+03  0.7546771E-02  0.1280296E+00
         21   -1    0    0  503  502  0.00000000000E+00  0.00000000000E+00  0.36343741674E+03  0.36343741674E+03  0.00000000000E+00 0.  1.
         21   -1    0    0  501  503 -0.00000000000E+00 -0.00000000000E+00 -0.88212436330E+02  0.88212436330E+02  0.00000000000E+00 0. -1.
          6    1    1    2  501    0 -0.29278183947E+02 -0.25044790789E+02  0.10555044563E+03  0.20628705770E+03  0.17300000000E+03 0. -1.
         -6    1    1    2    0  502  0.29278183947E+02  0.25044790789E+02  0.16967453478E+03  0.24536279537E+03  0.17300000000E+03 0.  1.
</event>
<event>
 4    1  0.5821292E+000  0.1000000E+03  0.7546771E-02  0.1280296E+00
         21   -1    0    0  503  502  0.00000000000E+00  0.00000000000E+00  0.43150825810E+03  0.43150825810E+03  0.00000000000E+00 0. -1.
         21   -1    0    0  501  503 -0.00000000000E+00 -0.00000000000E+00 -0.90545932110E+02  0.90545932110E+02  0.00000000000E+00 0.  1.
          6    1    1    2  501    0  0.52217495301E+02 -0.80092390745E+02  0.17170549085E+03  0.26182672411E+03  0.17300000000E+03 0. -1.
         -6    1    1    2    0  502 -0.52217495301E+02  0.80092390745E+02  0.16925683514E+03  0.26022746610E+03  0.17300000000E+03 0.  1.
</event>
<event>
 4    1  0.5821292E+000  0.1000000E+03  0.7546771E-02  0.1280296E+00
         21   -1    0    0  501  502  0.00000000000E+00  0.00000000000E+00  0.51395292850E+02  0.51395292850E+02  0.00000000000E+00 0.  1.
         21   -1    0    0  502  503 -0.00000000000E+00 -0.00000000000E+00 -0.12946266382E+04  0.12946266382E+04  0.00000000000E+00 0. -1.
          6    1    1    2  501    0 -0.15119596124E+03 -0.28803489595E+01 -0.31578240350E+03  0.39053302225E+03  0.17300000000E+03 0.  1.
         -6    1    1    2    0  503  0.15119596124E+03  0.28803489595E+01 -0.92744894182E+03  0.95548890878E+03  0.17300000000E+03 0. -1.
</event>
<event>
 4    1  0.5821292E+000  0.1000000E+03  0.7546771E-02  0.1280296E+00
         21   -1    0    0  503  502  0.00000000000E+00  0.00000000000E+00  0.83411997789E+02  0.83411997789E+02  0.00000000000E+00 0. -1.
         21   -1    0    0  501  503 -0.00000000000E+00 -0.00000000000E+00 -0.61384104518E+03  0.61384104518E+03  0.00000000000E+00 0.  1.
          6    1    1    2  501    0  0.21851380402E+02  0.27058637903E+02 -0.48344566941E+03  0.51464392349E+03  0.17300000000E+03 0.  1.
         -6    1    1    2    0  502 -0.21851380402E+02 -0.27058637903E+02 -0.46983377978E+02  0.18260911948E+03  0.17300000000E+03 0. -1.
</event>
<event>
 4    1  0.5821292E+000  0.1000000E+03  0.7546771E-02  0.1280296E+00
         21   -1    0    0  503  502  0.00000000000E+00  0.00000000000E+00  0.32114173074E+02  0.32114173074E+02  0.00000000000E+00 0. -1.
         21   -1    0    0  501  503 -0.00000000000E+00 -0.00000000000E+00 -0.13702536130E+04  0.13702536130E+04  0.00000000000E+00 0.  1.
          6    1    1    2  501    0  0.37542277174E+02  0.20237203604E+02 -0.10391261834E+04  0.10542917964E+04  0.17300000000E+03 0.  1.
         -6    1    1    2    0  502 -0.37542277174E+02 -0.20237203604E+02 -0.29901325647E+03  0.34807598960E+03  0.17300000000E+03 0. -1.
</event>
<event>
 4    1  0.5821292E+000  0.1000000E+03  0.7546771E-02  0.1280296E+00
         21   -1    0    0  503  502  0.00000000000E+00  0.00000000000E+00  0.97565471421E+03  0.97565471421E+03  0.00000000000E+00 0. -1.
         21   -1    0    0  501  503 -0.00000000000E+00 -0.00000000000E+00 -0.66951512318E+02  0.66951512318E+02  0.00000000000E+00 0.  1.
          6    1    1    2  501    0  0.17226135351E+03  0.48144884179E+02  0.33540738560E+03  0.41763502978E+03  0.17300000000E+03 0.  1.
         -6    1    1    2    0  502 -0.17226135351E+03 -0.48144884179E+02  0.57329581629E+03  0.62497119675E+03  0.17300000000E+03 0. -1.
</event>
<event>
 4    1  0.5821292E+000  0.1000000E+03  0.7546771E-02  0.1280296E+00
         21   -1    0    0  503  502  0.00000000000E+00  0.00000000000E+00  0.40474916160E+03  0.40474916160E+03  0.00000000000E+00 0. -1.
         21   -1    0    0  501  503 -0.00000000000E+00 -0.00000000000E+00 -0.11860625821E+03  0.11860625821E+03  0.00000000000E+00 0.  1.
          6    1    1    2  501    0 -0.20329843378E+02 -0.41839237415E+01 -0.15579539173E+02  0.17493578762E+03  0.17300000000E+03 0.  1.
         -6    1    1    2    0  502  0.20329843378E+02  0.41839237415E+01  0.30172244256E+03  0.34841963219E+03  0.17300000000E+03 0. -1.
</event>
<event>
 4    1  0.5821292E+000  0.1000000E+03  0.7546771E-02  0.1280296E+00
         21   -1    0    0  503  502  0.00000000000E+00  0.00000000000E+00  0.64550641146E+02  0.64550641146E+02  0.00000000000E+00 0. -1.
         21   -1    0    0  501  503 -0.00000000000E+00 -0.00000000000E+00 -0.69741910380E+03  0.69741910380E+03  0.00000000000E+00 0.  1.
          6    1    1    2  501    0  0.10871085976E+03  0.21918908066E+02 -0.41130196258E+03  0.45977907084E+03  0.17300000000E+03 0.  1.
         -6    1    1    2    0  502 -0.10871085976E+03 -0.21918908066E+02 -0.22156650007E+03  0.30219067410E+03  0.17300000000E+03 0. -1.
</event>
<event>
 4    1  0.5821292E+000  0.1000000E+03  0.7546771E-02  0.1280296E+00
         21   -1    0    0  501  502  0.00000000000E+00  0.00000000000E+00  0.23981085088E+03  0.23981085088E+03  0.00000000000E+00 0. -1.
         21   -1    0    0  502  503 -0.00000000000E+00 -0.00000000000E+00 -0.18972934962E+03  0.18972934962E+03  0.00000000000E+00 0. -1.
          6    1    1    2  501    0  0.30322531638E+02 -0.16607325336E+02  0.14575944384E+03  0.22884508876E+03  0.17300000000E+03 0. -1.
         -6    1    1    2    0  503 -0.30322531638E+02  0.16607325336E+02 -0.95677942580E+02  0.20069511174E+03  0.17300000000E+03 0. -1.
</event>
<event>
 4    1  0.5821292E+000  0.1000000E+03  0.7546771E-02  0.1280296E+00
         21   -1    0    0  501  502  0.00000000000E+00  0.00000000000E+00  0.44151057674E+03  0.44151057674E+03  0.00000000000E+00 0. -1.
         21   -1    0    0  502  503 -0.00000000000E+00 -0.00000000000E+00 -0.83127145782E+02  0.83127145782E+02  0.00000000000E+00 0. -1.
          6    1    1    2  501    0 -0.78427106390E+02 -0.77616749227E+01  0.14674679376E+03  0.24015552480E+03  0.17300000000E+03 0. -1.
         -6    1    1    2    0  503  0.78427106390E+02  0.77616749227E+01  0.21163663720E+03  0.28448219772E+03  0.17300000000E+03 0. -1.
</event>
<event>
 4    1  0.5821292E+000  0.1000000E+03  0.7546771E-02  0.1280296E+00
         21   -1    0    0  503  502  0.00000000000E+00  0.00000000000E+00  0.28066161478E+02  0.28066161478E+02  0.00000000000E+00 0.  1.
         21   -1    0    0  501  503 -0.00000000000E+00 -0.00000000000E+00 -0.14600460960E+04  0.14600460960E+04  0.00000000000E+00 0. -1.
          6    1    1    2  501    0 -0.64191373078E+02  0.42664217230E+02 -0.97869084392E+03  0.99684779971E+03  0.17300000000E+03 0.  1.
         -6    1    1    2    0  502  0.64191373078E+02 -0.42664217230E+02 -0.45328909059E+03  0.49126445776E+03  0.17300000000E+03 0. -1.
</event>
<event>
 4    1  0.5821292E+000  0.1000000E+03  0.7546771E-02  0.1280296E+00
         21   -1    0    0  503  502  0.00000000000E+00  0.00000000000E+00  0.12712934021E+04  0.12712934021E+04  0.00000000000E+00 0.  1.
         21   -1    0    0  501  503 -0.00000000000E+00 -0.00000000000E+00 -0.55031794905E+02  0.55031794905E+02  0.00000000000E+00 0. -1.
          6    1    1    2  501    0 -0.11140957149E+03  0.11433635136E+03  0.30572723029E+03  0.38585364221E+03  0.17300000000E+03 0.  1.
         -6    1    1    2    0  502  0.11140957149E+03 -0.11433635136E+03  0.91053437693E+03  0.94047155482E+03  0.17300000000E+03 0. -1.
</event>
<event>
 4    1  0.5821292E+000  0.1000000E+03  0.7546771E-02  0.1280296E+00
         21   -1    0    0  501  502  0.00000000000E+00  0.00000000000E+00  0.15940573546E+03  0.15940573546E+03  0.00000000000E+00 0.  1.
         21   -1    0    0  502  503 -0.00000000000E+00 -0.00000000000E+00 -0.32167929228E+03  0.32167929228E+03  0.00000000000E+00 0.  1.
          6    1    1    2  501    0  0.50863127958E+02  0.20297283125E+02  0.62756425007E+02  0.19200626648E+03  0.17300000000E+03 0.  1.
         -6    1    1    2    0  503 -0.50863127958E+02 -0.20297283125E+02 -0.22502998183E+03  0.28907876126E+03  0.17300000000E+03 0.  1.
</event>
<event>
 4    1  0.5821292E+000  0.1000000E+03  0.7546771E-02  0.1280296E+00
         21   -1    0    0  501  502  0.00000000000E+00  0.00000000000E+00  0.23747284051E+03  0.23747284051E+03  0.00000000000E+00 0.  1.
         21   -1    0    0  502  503 -0.00000000000E+00 -0.00000000000E+00 -0.41062929579E+03  0.41062929579E+03  0.00000000000E+00 0.  1.
          6    1    1    2  501    0  0.36120118410E+02 -0.51281420888E+02  0.17522816026E+03  0.25410304058E+03  0.17300000000E+03 0.  1.
         -6    1    1    2    0  503 -0.36120118410E+02  0.51281420888E+02 -0.34838461554E+03  0.39399909572E+03  0.17300000000E+03 0.  1.
</event>
<event>
 4    1  0.5821292E+000  0.1000000E+03  0.7546771E-02  0.1280296E+00
         21   -1    0    0  501  502  0.00000000000E+00  0.00000000000E+00  0.81315748111E+03  0.81315748111E+03  0.00000000000E+00 0.  1.
         21   -1    0    0  502  503 -0.00000000000E+00 -0.00000000000E+00 -0.23261856281E+03  0.23261856281E+03  0.00000000000E+00 0.  1.
          6    1    1    2  501    0  0.37943887227E+02  0.93022516728E+02  0.75455688859E+03  0.78062668755E+03  0.17300000000E+03 0.  1.
         -6    1    1    2    0  503 -0.37943887227E+02 -0.93022516728E+02 -0.17401797030E+03  0.26514935637E+03  0.17300000000E+03 0.  1.
</event>
<event>
 4    1  0.5821292E+000  0.1000000E+03  0.7546771E-02  0.1280296E+00
         21   -1    0    0  503  502  0.00000000000E+00  0.00000000000E+00  0.14370918033E+03  0.14370918033E+03  0.00000000000E+00 0.  1.
         21   -1    0    0  501  503 -0.00000000000E+00 -0.00000000000E+00 -0.35142722668E+03  0.35142722668E+03  0.00000000000E+00 0.  1.
          6    1    1    2  501    0  0.53480072173E+02 -0.82981810364E+01 -0.25019460252E+03  0.30895843905E+03  0.17300000000E+03 0.  1.
         -6    1    1    2    0  502 -0.53480072173E+02  0.82981810364E+01  0.42476556178E+02  0.18617796796E+03  0.17300000000E+03 0.  1.
</event>
<event>
 4    1  0.5821292E+000  0.1000000E+03  0.7546771E-02  0.1280296E+00
         21   -1    0    0  503  502  0.00000000000E+00  0.00000000000E+00  0.56013379050E+03  0.56013379050E+03  0.00000000000E+00 0.  1.
         21   -1    0    0  501  503 -0.00000000000E+00 -0.00000000000E+00 -0.37335949266E+03  0.37335949266E+03  0.00000000000E+00 0.  1.
          6    1    1    2  501    0 -0.22180144669E+02  0.43811908638E+02 -0.33575540221E+03  0.38088335782E+03  0.17300000000E+03 0.  1.
         -6    1    1    2    0  502  0.22180144669E+02 -0.43811908638E+02  0.52252970004E+03  0.55260992534E+03  0.17300000000E+03 0.  1.
</event>
<event>
 4    1  0.5821292E+000  0.1000000E+03  0.7546771E-02  0.1280296E+00
         21   -1    0    0  501  502  0.00000000000E+00  0.00000000000E+00  0.90387923806E+03  0.90387923806E+03  0.00000000000E+00 0. -1.
         21   -1    0    0  502  503 -0.00000000000E+00 -0.00000000000E+00 -0.92716738047E+02  0.92716738047E+02  0.00000000000E+00 0.  1.
          6    1    1    2  501    0  0.41815877809E+02  0.15608938959E+02  0.79765666053E+03  0.81742116115E+03  0.17300000000E+03 0.  1.
         -6    1    1    2    0  503 -0.41815877809E+02 -0.15608938959E+02  0.13505839479E+02  0.17917481495E+03  0.17300000000E+03 0. -1.
</event>
<event>
 4    1  0.5821292E+000  0.1000000E+03  0.7546771E-02  0.1280296E+00
         21   -1    0    0  501  502  0.00000000000E+00  0.00000000000E+00  0.33337723285E+03  0.33337723285E+03  0.00000000000E+00 0. -1.
         21   -1    0    0  502  503 -0.00000000000E+00 -0.00000000000E+00 -0.12882665992E+03  0.12882665992E+03  0.00000000000E+00 0. -1.
          6    1    1    2  501    0  0.87380590544E+02 -0.73217171152E+02  0.96955940275E+02  0.22874784395E+03  0.17300000000E+03 0. -1.
         -6    1    1    2    0  503 -0.87380590544E+02  0.73217171152E+02  0.10759463265E+03  0.23345604882E+03  0.17300000000E+03 0. -1.
</event>
<event>
 4    1  0.5821292E+000  0.1000000E+03  0.7546771E-02  0.1280296E+00
         21   -1    0    0  501  502  0.00000000000E+00  0.00000000000E+00  0.23337323854E+03  0.23337323854E+03  0.00000000000E+00 0. -1.
         21   -1    0    0  502  503 -0.00000000000E+00 -0.00000000000E+00 -0.13705178333E+03  0.13705178333E+03  0.00000000000E+00 0. -1.
          6    1    1    2  501    0 -0.35630756326E+02 -0.15215879649E+02  0.72539624586E+02  0.19155174477E+03  0.17300000000E+03 0. -1.
         -6    1    1    2    0  503  0.35630756326E+02  0.15215879649E+02  0.23781830627E+02  0.17887327709E+03  0.17300000000E+03 0. -1.
</event>
<event>
 4    1  0.5821292E+000  0.1000000E+03  0.7546771E-02  0.1280296E+00
         21   -1    0    0  503  502  0.00000000000E+00  0.00000000000E+00  0.50103404642E+03  0.50103404642E+03  0.00000000000E+00 0. -1.
         21   -1    0    0  501  503 -0.00000000000E+00 -0.00000000000E+00 -0.11946160865E+03  0.11946160865E+03  0.00000000000E+00 0.  1.
          6    1    1    2  501    0  0.13753904166E+03 -0.57731279762E+02  0.79686561553E+02  0.24192733772E+03  0.17300000000E+03 0. -1.
         -6    1    1    2    0  502 -0.13753904166E+03  0.57731279762E+02  0.30188587622E+03  0.37856831736E+03  0.17300000000E+03 0. -1.
</event>
<event>
 4    1  0.5821292E+000  0.1000000E+03  0.7546771E-02  0.1280296E+00
         21   -1    0    0  503  502  0.00000000000E+00  0.00000000000E+00  0.61555295752E+03  0.61555295752E+03  0.00000000000E+00 0. -1.
         21   -1    0    0  501  503 -0.00000000000E+00 -0.00000000000E+00 -0.93453162330E+02  0.93453162330E+02  0.00000000000E+00 0.  1.
          6    1    1    2  501    0  0.18179069962E+02  0.28808283017E+02  0.20730990691E+02  0.17753638988E+03  0.17300000000E+03 0. -1.
         -6    1    1    2    0  502 -0.18179069962E+02 -0.28808283017E+02  0.50136880450E+03  0.53146972997E+03  0.17300000000E+03 0. -1.
</event>
<event>
 4    1  0.5821292E+000  0.1000000E+03  0.7546771E-02  0.1280296E+00
         21   -1    0    0  503  502  0.00000000000E+00  0.00000000000E+00  0.72707966099E+03  0.72707966099E+03  0.00000000000E+00 0. -1.
         21   -1    0    0  501  503 -0.00000000000E+00 -0.00000000000E+00 -0.73784268409E+02  0.73784268409E+02  0.00000000000E+00 0.  1.
          6    1    1    2  501    0  0.75892546743E+02 -0.51156294924E+01  0.95136206909E+02  0.21157917237E+03  0.17300000000E+03 0. -1.
         -6    1    1    2    0  502 -0.75892546743E+02  0.51156294924E+01  0.55815918568E+03  0.58928475703E+03  0.17300000000E+03 0. -1.
</event>
<event>
 4    1  0.5821292E+000  0.1000000E+03  0.7546771E-02  0.1280296E+00
         21   -1    0    0  503  502  0.00000000000E+00  0.00000000000E+00  0.19930767129E+03  0.19930767129E+03  0.00000000000E+00 0. -1.
         21   -1    0    0  501  503 -0.00000000000E+00 -0.00000000000E+00 -0.33472367125E+03  0.33472367125E+03  0.00000000000E+00 0.  1.
          6    1    1    2  501    0 -0.12118930553E+03  0.10031499156E+02 -0.22103141603E+03  0.30589437004E+03  0.17300000000E+03 0. -1.
         -6    1    1    2    0  502  0.12118930553E+03 -0.10031499156E+02  0.85615416068E+02  0.22813697249E+03  0.17300000000E+03 0. -1.
</event>
<event>
 4    1  0.5821292E+000  0.1000000E+03  0.7546771E-02  0.1280296E+00
         21   -1    0    0  501  502  0.00000000000E+00  0.00000000000E+00  0.26834685435E+03  0.26834685435E+03  0.00000000000E+00 0. -1.
         21   -1    0    0  502  503 -0.00000000000E+00 -0.00000000000E+00 -0.42108179317E+03  0.42108179317E+03  0.00000000000E+00 0. -1.
          6    1    1    2  501    0 -0.69602990335E+02  0.23747905568E+02  0.20940616735E+03  0.28140448149E+03  0.17300000000E+03 0. -1.
         -6    1    1    2    0  503  0.69602990335E+02 -0.23747905568E+02 -0.36214110617E+03  0.40802416602E+03  0.17300000000E+03 0. -1.
</event>
<event>
 4    1  0.5821292E+000  0.1000000E+03  0.7546771E-02  0.1280296E+00
         21   -1    0    0  501  502  0.00000000000E+00  0.00000000000E+00  0.63005647650E+02  0.63005647650E+02  0.00000000000E+00 0. -1.
         21   -1    0    0  502  503 -0.00000000000E+00 -0.00000000000E+00 -0.55266353829E+03  0.55266353829E+03  0.00000000000E+00 0. -1.
          6    1    1    2  501    0 -0.20851804647E+02 -0.25850703882E+02 -0.14328547883E+03  0.22707440431E+03  0.17300000000E+03 0. -1.
         -6    1    1    2    0  503  0.20851804647E+02  0.25850703882E+02 -0.34637241182E+03  0.38859478164E+03  0.17300000000E+03 0. -1.
</event>
<event>
 4    1  0.5821292E+000  0.1000000E+03  0.7546771E-02  0.1280296E+00
         21   -1    0    0  501  502  0.00000000000E+00  0.00000000000E+00  0.22454866931E+03  0.22454866931E+03  0.00000000000E+00 0. -1.
         21   -1    0    0  502  503 -0.00000000000E+00 -0.00000000000E+00 -0.20499495811E+03  0.20499495811E+03  0.00000000000E+00 0. -1.
          6    1    1    2  501    0 -0.11342859701E+03 -0.36377349280E+02  0.53559949751E+02  0.21676491040E+03  0.17300000000E+03 0. -1.
         -6    1    1    2    0  503  0.11342859701E+03  0.36377349280E+02 -0.34006238549E+02  0.21277871703E+03  0.17300000000E+03 0. -1.
</event>
<event>
 4    1  0.5821292E+000  0.1000000E+03  0.7546771E-02  0.1280296E+00
         21   -1    0    0  501  502  0.00000000000E+00  0.00000000000E+00  0.10289217102E+03  0.10289217102E+03  0.00000000000E+00 0. -1.
         21   -1    0    0  502  503 -0.00000000000E+00 -0.00000000000E+00 -0.11103128445E+04  0.11103128445E+04  0.00000000000E+00 0.  1.
          6    1    1    2  501    0 -0.93961258240E+02 -0.16357431902E+03 -0.10754119753E+03  0.27763174361E+03  0.17300000000E+03 0. -1.
         -6    1    1    2    0  503  0.93961258240E+02  0.16357431902E+03 -0.89987947600E+03  0.93557327196E+03  0.17300000000E+03 0.  1.
</event>
<event>
 4    1  0.5821292E+000  0.1000000E+03  0.7546771E-02  0.1280296E+00
         21   -1    0    0  503  502  0.00000000000E+00  0.00000000000E+00  0.16199202737E+03  0.16199202737E+03  0.00000000000E+00 0.  1.
         21   -1    0    0  501  503 -0.00000000000E+00 -0.00000000000E+00 -0.46106503329E+03  0.46106503329E+03  0.00000000000E+00 0.  1.
          6    1    1    2  501    0 -0.22695197275E+02  0.17893925369E+03 -0.27557516318E+03  0.37202822346E+03  0.17300000000E+03 0.  1.
         -6    1    1    2    0  502  0.22695197275E+02 -0.17893925369E+03 -0.23497842735E+02  0.25102883719E+03  0.17300000000E+03 0.  1.
</event>
<event>
 4    1  0.5821292E+000  0.1000000E+03  0.7546771E-02  0.1280296E+00
         21   -1    0    0  501  502  0.00000000000E+00  0.00000000000E+00  0.30415082062E+03  0.30415082062E+03  0.00000000000E+00 0.  1.
         21   -1    0    0  502  503 -0.00000000000E+00 -0.00000000000E+00 -0.28794921338E+03  0.28794921338E+03  0.00000000000E+00 0.  1.
          6    1    1    2  501    0 -0.30579105546E+02 -0.13047854136E+03  0.20740207921E+03  0.30150348905E+03  0.17300000000E+03 0.  1.
         -6    1    1    2    0  503  0.30579105546E+02  0.13047854136E+03 -0.19120047197E+03  0.29059654495E+03  0.17300000000E+03 0.  1.
</event>
<event>
 4    1  0.5821292E+000  0.1000000E+03  0.7546771E-02  0.1280296E+00
         21   -1    0    0  501  502  0.00000000000E+00  0.00000000000E+00  0.26153881086E+03  0.26153881086E+03  0.00000000000E+00 0.  1.
         21   -1    0    0  502  503 -0.00000000000E+00 -0.00000000000E+00 -0.43460634892E+03  0.43460634892E+03  0.00000000000E+00 0.  1.
          6    1    1    2  501    0 -0.26821210331E+03 -0.10854447025E+03 -0.90888707195E+02  0.34915525412E+03  0.17300000000E+03 0.  1.
         -6    1    1    2    0  503  0.26821210331E+03  0.10854447025E+03 -0.82178830861E+02  0.34698990565E+03  0.17300000000E+03 0.  1.
</event>
<event>
 4    1  0.5821292E+000  0.1000000E+03  0.7546771E-02  0.1280296E+00
         21   -1    0    0  501  502  0.00000000000E+00  0.00000000000E+00  0.11272152010E+03  0.11272152010E+03  0.00000000000E+00 0.  1.
         21   -1    0    0  502  503 -0.00000000000E+00 -0.00000000000E+00 -0.36832762376E+03  0.36832762376E+03  0.00000000000E+00 0. -1.
          6    1    1    2  501    0  0.22125868406E+02 -0.22555395228E+02 -0.63214693858E+01  0.17597517121E+03  0.17300000000E+03 0. -1.
         -6    1    1    2    0  503 -0.22125868406E+02  0.22555395228E+02 -0.24928463427E+03  0.30507397266E+03  0.17300000000E+03 0.  1.
</event>
<event>
 4    1  0.5821292E+000  0.1000000E+03  0.7546771E-02  0.1280296E+00
         21   -1    0    0  503  502  0.00000000000E+00  0.00000000000E+00  0.11284959142E+04  0.11284959142E+04  0.00000000000E+00 0.  1.
         21   -1    0    0  501  503 -0.00000000000E+00 -0.00000000000E+00 -0.89739764902E+02  0.89739764902E+02  0.00000000000E+00 0.  1.
          6    1    1    2  501    0  0.80468732870E+02 -0.15032849004E+03  0.12585957675E+03  0.27357540998E+03  0.17300000000E+03 0.  1.
         -6    1    1    2    0  502 -0.80468732870E+02  0.15032849004E+03  0.91289657257E+03  0.94466026914E+03  0.17300000000E+03 0.  1.
</event>
<event>
 4    1  0.5821292E+000  0.1000000E+03  0.7546771E-02  0.1280296E+00
         21   -1    0    0  503  502  0.00000000000E+00  0.00000000000E+00  0.43189347825E+02  0.43189347825E+02  0.00000000000E+00 0.  1.
         21   -1    0    0  501  503 -0.00000000000E+00 -0.00000000000E+00 -0.10480842373E+04  0.10480842373E+04  0.00000000000E+00 0.  1.
          6    1    1    2  501    0  0.13390187736E+02 -0.12310451512E+03 -0.50693063535E+03  0.54976512060E+03  0.17300000000E+03 0.  1.
         -6    1    1    2    0  502 -0.13390187736E+02  0.12310451512E+03 -0.49796425416E+03  0.54150846457E+03  0.17300000000E+03 0.  1.
</event>
<event>
 4    1  0.5821292E+000  0.1000000E+03  0.7546771E-02  0.1280296E+00
         21   -1    0    0  503  502  0.00000000000E+00  0.00000000000E+00  0.19347591890E+03  0.19347591890E+03  0.00000000000E+00 0.  1.
         21   -1    0    0  501  503 -0.00000000000E+00 -0.00000000000E+00 -0.43289894500E+03  0.43289894500E+03  0.00000000000E+00 0.  1.
          6    1    1    2  501    0  0.19500767902E+03 -0.31223015905E+01 -0.25569051703E+03  0.36516350330E+03  0.17300000000E+03 0.  1.
         -6    1    1    2    0  502 -0.19500767902E+03  0.31223015905E+01  0.16267490939E+02  0.26121136060E+03  0.17300000000E+03 0.  1.
</event>
<event>
 4    1  0.5821292E+000  0.1000000E+03  0.7546771E-02  0.1280296E+00
         21   -1    0    0  503  502  0.00000000000E+00  0.00000000000E+00  0.11501570484E+03  0.11501570484E+03  0.00000000000E+00 0.  1.
         21   -1    0    0  501  503 -0.00000000000E+00 -0.00000000000E+00 -0.96053358465E+03  0.96053358465E+03  0.00000000000E+00 0.  1.
          6    1    1    2  501    0 -0.24636032588E+02  0.12003219519E+03 -0.83694433957E+03  0.86337679464E+03  0.17300000000E+03 0.  1.
         -6    1    1    2    0  502  0.24636032588E+02 -0.12003219519E+03 -0.85735402468E+01  0.21217249486E+03  0.17300000000E+03 0.  1.
</event>
<event>
 4    1  0.5821292E+000  0.1000000E+03  0.7546771E-02  0.1280296E+00
         21   -1    0    0  501  502  0.00000000000E+00  0.00000000000E+00  0.67802618868E+02  0.67802618868E+02  0.00000000000E+00 0.  1.
         21   -1    0    0  502  503 -0.00000000000E+00 -0.00000000000E+00 -0.45830673668E+03  0.45830673668E+03  0.00000000000E+00 0. -1.
          6    1    1    2  501    0  0.28711253919E+02 -0.60943667263E+01 -0.17010759681E+03  0.24439122714E+03  0.17300000000E+03 0.  1.
         -6    1    1    2    0  503 -0.28711253919E+02  0.60943667263E+01 -0.22039652100E+03  0.28171812841E+03  0.17300000000E+03 0. -1.
</event>
<event>
 4    1  0.5821292E+000  0.1000000E+03  0.7546771E-02  0.1280296E+00
         21   -1    0    0  501  502  0.00000000000E+00  0.00000000000E+00  0.10506948019E+03  0.10506948019E+03  0.00000000000E+00 0.  1.
         21   -1    0    0  502  503 -0.00000000000E+00 -0.00000000000E+00 -0.60738267515E+03  0.60738267515E+03  0.00000000000E+00 0. -1.
          6    1    1    2  501    0 -0.15814883823E+03  0.88941932753E+02 -0.20731433251E+03  0.32531516242E+03  0.17300000000E+03 0.  1.
         -6    1    1    2    0  503  0.15814883823E+03 -0.88941932753E+02 -0.29499886245E+03  0.38713699291E+03  0.17300000000E+03 0. -1.
</event>
<event>
 4    1  0.5821292E+000  0.1000000E+03  0.7546771E-02  0.1280296E+00
         21   -1    0    0  503  502  0.00000000000E+00  0.00000000000E+00  0.25388458402E+03  0.25388458402E+03  0.00000000000E+00 0. -1.
         21   -1    0    0  501  503 -0.00000000000E+00 -0.00000000000E+00 -0.20737960789E+03  0.20737960789E+03  0.00000000000E+00 0. -1.
          6    1    1    2  501    0 -0.88231426811E+02 -0.90219838153E+02 -0.59614164935E+02  0.22227742246E+03  0.17300000000E+03 0.  1.
         -6    1    1    2    0  502  0.88231426811E+02  0.90219838153E+02  0.10611914106E+03  0.23898676945E+03  0.17300000000E+03 0.  1.
</event>
<event>
 4    1  0.5821292E+000  0.1000000E+03  0.7546771E-02  0.1280296E+00
         21   -1    0    0  503  502  0.00000000000E+00  0.00000000000E+00  0.36011144942E+03  0.36011144942E+03  0.00000000000E+00 0. -1.
         21   -1    0    0  501  503 -0.00000000000E+00 -0.00000000000E+00 -0.22704869071E+03  0.22704869071E+03  0.00000000000E+00 0. -1.
          6    1    1    2  501    0 -0.75205528641E+02  0.15757879121E+03 -0.83477121446E+02  0.25958500878E+03  0.17300000000E+03 0.  1.
         -6    1    1    2    0  502  0.75205528641E+02 -0.15757879121E+03  0.21653988015E+03  0.32757513134E+03  0.17300000000E+03 0.  1.
</event>
<event>
 4    1  0.5821292E+000  0.1000000E+03  0.7546771E-02  0.1280296E+00
         21   -1    0    0  503  502  0.00000000000E+00  0.00000000000E+00  0.17021053230E+03  0.17021053230E+03  0.00000000000E+00 0.  1.
         21   -1    0    0  501  503 -0.00000000000E+00 -0.00000000000E+00 -0.41194739421E+03  0.41194739421E+03  0.00000000000E+00 0. -1.
          6    1    1    2  501    0  0.93693948619E+02 -0.17531026772E+03 -0.92276516910E+02  0.27920637806E+03  0.17300000000E+03 0. -1.
         -6    1    1    2    0  502 -0.93693948619E+02  0.17531026772E+03 -0.14946034500E+03  0.30295154844E+03  0.17300000000E+03 0.  1.
</event>
<event>
 4    1  0.5821292E+000  0.1000000E+03  0.7546771E-02  0.1280296E+00
         21   -1    0    0  501  502  0.00000000000E+00  0.00000000000E+00  0.31134859577E+02  0.31134859577E+02  0.00000000000E+00 0. -1.
         21   -1    0    0  502  503 -0.00000000000E+00 -0.00000000000E+00 -0.17925978604E+04  0.17925978604E+04  0.00000000000E+00 0.  1.
          6    1    1    2  501    0  0.43461713015E+02 -0.12672351431E+03 -0.53689355128E+03  0.57976844945E+03  0.17300000000E+03 0.  1.
         -6    1    1    2    0  503 -0.43461713015E+02  0.12672351431E+03 -0.12245694495E+04  0.12439642705E+04  0.17300000000E+03 0. -1.
</event>
<event>
 4    1  0.5821292E+000  0.1000000E+03  0.7546771E-02  0.1280296E+00
         21   -1    0    0  501  502  0.00000000000E+00  0.00000000000E+00  0.10458839631E+04  0.10458839631E+04  0.00000000000E+00 0. -1.
         21   -1    0    0  502  503 -0.00000000000E+00 -0.00000000000E+00 -0.45040479634E+02  0.45040479634E+02  0.00000000000E+00 0.  1.
          6    1    1    2  501    0  0.76585902776E+02  0.30214921443E+02  0.75671274369E+03  0.78059049344E+03  0.17300000000E+03 0.  1.
         -6    1    1    2    0  503 -0.76585902776E+02 -0.30214921443E+02  0.24413073977E+03  0.31033394929E+03  0.17300000000E+03 0. -1.
</event>
<event>
 4    1  0.5821292E+000  0.1000000E+03  0.7546771E-02  0.1280296E+00
         21   -1    0    0  501  502  0.00000000000E+00  0.00000000000E+00  0.18509161404E+03  0.18509161404E+03  0.00000000000E+00 0. -1.
         21   -1    0    0  502  503 -0.00000000000E+00 -0.00000000000E+00 -0.65171952731E+03  0.65171952731E+03  0.00000000000E+00 0.  1.
          6    1    1    2  501    0 -0.23820745176E+03 -0.80337166237E+02 -0.33532298722E+02  0.30700206092E+03  0.17300000000E+03 0.  1.
         -6    1    1    2    0  503  0.23820745176E+03  0.80337166237E+02 -0.43309561456E+03  0.52980908043E+03  0.17300000000E+03 0. -1.
</event>
<event>
 4    1  0.5821292E+000  0.1000000E+03  0.7546771E-02  0.1280296E+00
         21   -1    0    0  501  502  0.00000000000E+00  0.00000000000E+00  0.67286924911E+02  0.67286924911E+02  0.00000000000E+00 0.  1.
         21   -1    0    0  502  503 -0.00000000000E+00 -0.00000000000E+00 -0.46676202222E+03  0.46676202222E+03  0.00000000000E+00 0. -1.
          6    1    1    2  501    0 -0.88804605124E+01 -0.69029450284E+01 -0.25512875707E+03  0.30845777007E+03  0.17300000000E+03 0.  1.
         -6    1    1    2    0  503  0.88804605124E+01  0.69029450284E+01 -0.14434634023E+03  0.22559117706E+03  0.17300000000E+03 0. -1.
</event>
<event>
 4    1  0.5821292E+000  0.1000000E+03  0.7546771E-02  0.1280296E+00
         21   -1    0    0  503  502  0.00000000000E+00  0.00000000000E+00  0.72059737298E+02  0.72059737298E+02  0.00000000000E+00 0. -1.
         21   -1    0    0  501  503 -0.00000000000E+00 -0.00000000000E+00 -0.80604933036E+03  0.80604933036E+03  0.00000000000E+00 0. -1.
          6    1    1    2  501    0  0.13665393186E+03 -0.86262968771E+02 -0.44925906352E+03  0.50781719450E+03  0.17300000000E+03 0. -1.
         -6    1    1    2    0  502 -0.13665393186E+03  0.86262968771E+02 -0.28473052953E+03  0.37029187315E+03  0.17300000000E+03 0. -1.
</event>
<event>
 4    1  0.5821292E+000  0.1000000E+03  0.7546771E-02  0.1280296E+00
         21   -1    0    0  503  502  0.00000000000E+00  0.00000000000E+00  0.10308323256E+04  0.10308323256E+04  0.00000000000E+00 0. -1.
         21   -1    0    0  501  503 -0.00000000000E+00 -0.00000000000E+00 -0.36460798082E+02  0.36460798082E+02  0.00000000000E+00 0. -1.
          6    1    1    2  501    0  0.10660086892E+02 -0.67189962692E+02  0.34572047051E+03  0.39252996353E+03  0.17300000000E+03 0. -1.
         -6    1    1    2    0  502 -0.10660086892E+02  0.67189962692E+02  0.64865105700E+03  0.67476316014E+03  0.17300000000E+03 0. -1.
</event>
<event>
 4    1  0.5821292E+000  0.1000000E+03  0.7546771E-02  0.1280296E+00
         21   -1    0    0  503  502  0.00000000000E+00  0.00000000000E+00  0.93421304115E+03  0.93421304115E+03  0.00000000000E+00 0. -1.
         21   -1    0    0  501  503 -0.00000000000E+00 -0.00000000000E+00 -0.80155527509E+02  0.80155527509E+02  0.00000000000E+00 0. -1.
          6    1    1    2  501    0 -0.16961151315E+03 -0.11923591831E+03  0.34480519167E+03  0.43795535139E+03  0.17300000000E+03 0. -1.
         -6    1    1    2    0  502  0.16961151315E+03  0.11923591831E+03  0.50925232196E+03  0.57641321726E+03  0.17300000000E+03 0. -1.
</event>
<event>
 4    1  0.5821292E+000  0.1000000E+03  0.7546771E-02  0.1280296E+00
         21   -1    0    0  503  502  0.00000000000E+00  0.00000000000E+00  0.43993410417E+03  0.43993410417E+03  0.00000000000E+00 0. -1.
         21   -1    0    0  501  503 -0.00000000000E+00 -0.00000000000E+00 -0.11416592305E+03  0.11416592305E+03  0.00000000000E+00 0.  1.
          6    1    1    2  501    0 -0.14316448644E+02  0.14077186255E+03  0.18337723051E+03  0.28909840307E+03  0.17300000000E+03 0.  1.
         -6    1    1    2    0  502  0.14316448644E+02 -0.14077186255E+03  0.14239095061E+03  0.26500162416E+03  0.17300000000E+03 0. -1.
</event>
<event>
 4    1  0.5821292E+000  0.1000000E+03  0.7546771E-02  0.1280296E+00
         21   -1    0    0  503  502  0.00000000000E+00  0.00000000000E+00  0.82975857703E+03  0.82975857703E+03  0.00000000000E+00 0. -1.
         21   -1    0    0  501  503 -0.00000000000E+00 -0.00000000000E+00 -0.14751694247E+03  0.14751694247E+03  0.00000000000E+00 0.  1.
          6    1    1    2  501    0  0.14032294301E+03 -0.19694628311E+02 -0.34671250060E+02  0.22629516632E+03  0.17300000000E+03 0.  1.
         -6    1    1    2    0  502 -0.14032294301E+03  0.19694628311E+02  0.71691288462E+03  0.75098035317E+03  0.17300000000E+03 0. -1.
</event>
<event>
 4    1  0.5821292E+000  0.1000000E+03  0.7546771E-02  0.1280296E+00
         21   -1    0    0  503  502  0.00000000000E+00  0.00000000000E+00  0.21161083427E+03  0.21161083427E+03  0.00000000000E+00 0. -1.
         21   -1    0    0  501  503 -0.00000000000E+00 -0.00000000000E+00 -0.49844791722E+03  0.49844791722E+03  0.00000000000E+00 0.  1.
          6    1    1    2  501    0  0.14027623439E+03 -0.10586413711E+02 -0.40154999737E+03  0.45930479475E+03  0.17300000000E+03 0.  1.
         -6    1    1    2    0  502 -0.14027623439E+03  0.10586413711E+02  0.11471291442E+03  0.25075395675E+03  0.17300000000E+03 0. -1.
</event>
<event>
 4    1  0.5821292E+000  0.1000000E+03  0.7546771E-02  0.1280296E+00
         21   -1    0    0  503  502  0.00000000000E+00  0.00000000000E+00  0.56432204522E+02  0.56432204522E+02  0.00000000000E+00 0.  1.
         21   -1    0    0  501  503 -0.00000000000E+00 -0.00000000000E+00 -0.69367303775E+03  0.69367303775E+03  0.00000000000E+00 0.  1.
          6    1    1    2  501    0 -0.49867308804E+02 -0.81721132378E+02 -0.33221173110E+03  0.38659892168E+03  0.17300000000E+03 0.  1.
         -6    1    1    2    0  502  0.49867308804E+02  0.81721132378E+02 -0.30502910212E+03  0.36350632059E+03  0.17300000000E+03 0.  1.
</event>
<event>
 4    1  0.5821292E+000  0.1000000E+03  0.7546771E-02  0.1280296E+00
         21   -1    0    0  503  502  0.00000000000E+00  0.00000000000E+00  0.27702935593E+03  0.27702935593E+03  0.00000000000E+00 0.  1.
         21   -1    0    0  501  503 -0.00000000000E+00 -0.00000000000E+00 -0.11857692605E+03  0.11857692605E+03  0.00000000000E+00 0.  1.
          6    1    1    2  501    0  0.21306268767E+02 -0.38829089240E+02  0.45435556764E+02  0.18426894768E+03  0.17300000000E+03 0.  1.
         -6    1    1    2    0  502 -0.21306268767E+02  0.38829089240E+02  0.11301687312E+03  0.21133733430E+03  0.17300000000E+03 0.  1.
</event>
<event>
 4    1  0.5821292E+000  0.1000000E+03  0.7546771E-02  0.1280296E+00
         21   -1    0    0  501  502  0.00000000000E+00  0.00000000000E+00  0.23454471493E+03  0.23454471493E+03  0.00000000000E+00 0. -1.
         21   -1    0    0  502  503 -0.00000000000E+00 -0.00000000000E+00 -0.30174373722E+03  0.30174373722E+03  0.00000000000E+00 0. -1.
          6    1    1    2  501    0  0.12485228496E+02 -0.10343056501E+03  0.14095138780E+03  0.24627232169E+03  0.17300000000E+03 0. -1.
         -6    1    1    2    0  503 -0.12485228496E+02  0.10343056501E+03 -0.20815041009E+03  0.29001613046E+03  0.17300000000E+03 0. -1.
</event>
<event>
 4    1  0.5821292E+000  0.1000000E+03  0.7546771E-02  0.1280296E+00
         21   -1    0    0  501  502  0.00000000000E+00  0.00000000000E+00  0.18052019206E+03  0.18052019206E+03  0.00000000000E+00 0. -1.
         21   -1    0    0  502  503 -0.00000000000E+00 -0.00000000000E+00 -0.94428829445E+03  0.94428829445E+03  0.00000000000E+00 0. -1.
          6    1    1    2  501    0 -0.61212846520E+01 -0.52124484016E+02  0.12373795321E+03  0.21907650039E+03  0.17300000000E+03 0. -1.
         -6    1    1    2    0  503  0.61212846520E+01  0.52124484016E+02 -0.88750605560E+03  0.90573198612E+03  0.17300000000E+03 0. -1.
</event>
<event>
 4    1  0.5821292E+000  0.1000000E+03  0.7546771E-02  0.1280296E+00
         21   -1    0    0  501  502  0.00000000000E+00  0.00000000000E+00  0.11085148780E+03  0.11085148780E+03  0.00000000000E+00 0. -1.
         21   -1    0    0  502  503 -0.00000000000E+00 -0.00000000000E+00 -0.39304311151E+03  0.39304311151E+03  0.00000000000E+00 0. -1.
          6    1    1    2  501    0 -0.77419967842E+02  0.69955129319E+02 -0.77765809474E+02  0.21648116006E+03  0.17300000000E+03 0. -1.
         -6    1    1    2    0  503  0.77419967842E+02 -0.69955129319E+02 -0.20442581424E+03  0.28741343926E+03  0.17300000000E+03 0. -1.
</event>
<event>
 4    1  0.5821292E+000  0.1000000E+03  0.7546771E-02  0.1280296E+00
         21   -1    0    0  501  502  0.00000000000E+00  0.00000000000E+00  0.18665022878E+04  0.18665022878E+04  0.00000000000E+00 0. -1.
         21   -1    0    0  502  503 -0.00000000000E+00 -0.00000000000E+00 -0.27168057397E+02  0.27168057397E+02  0.00000000000E+00 0. -1.
          6    1    1    2  501    0  0.66664330335E+02  0.42898295876E+02  0.14259026046E+04  0.14385449713E+04  0.17300000000E+03 0. -1.
         -6    1    1    2    0  503 -0.66664330335E+02 -0.42898295876E+02  0.41343162584E+03  0.45512537390E+03  0.17300000000E+03 0. -1.
</event>
<event>
 4    1  0.5821292E+000  0.1000000E+03  0.7546771E-02  0.1280296E+00
         21   -1    0    0  501  502  0.00000000000E+00  0.00000000000E+00  0.61139112754E+03  0.61139112754E+03  0.00000000000E+00 0.  1.
         21   -1    0    0  502  503 -0.00000000000E+00 -0.00000000000E+00 -0.71502016050E+02  0.71502016050E+02  0.00000000000E+00 0. -1.
          6    1    1    2  501    0  0.82099554730E+02  0.78233309383E+02  0.31963679667E+03  0.38073280574E+03  0.17300000000E+03 0. -1.
         -6    1    1    2    0  503 -0.82099554730E+02 -0.78233309383E+02  0.22025231482E+03  0.30216033785E+03  0.17300000000E+03 0.  1.
</event>
<event>
 4    1  0.5821292E+000  0.1000000E+03  0.7546771E-02  0.1280296E+00
         21   -1    0    0  501  502  0.00000000000E+00  0.00000000000E+00  0.51674612131E+02  0.51674612131E+02  0.00000000000E+00 0.  1.
         21   -1    0    0  502  503 -0.00000000000E+00 -0.00000000000E+00 -0.71066445867E+03  0.71066445867E+03  0.00000000000E+00 0. -1.
          6    1    1    2  501    0  0.32121845230E+02 -0.29698423146E+02 -0.19053822896E+03  0.26105100263E+03  0.17300000000E+03 0. -1.
         -6    1    1    2    0  503 -0.32121845230E+02  0.29698423146E+02 -0.46845161758E+03  0.50128806817E+03  0.17300000000E+03 0.  1.
</event>
<event>
 4    1  0.5821292E+000  0.1000000E+03  0.7546771E-02  0.1280296E+00
         21   -1    0    0  501  502  0.00000000000E+00  0.00000000000E+00  0.27184282824E+03  0.27184282824E+03  0.00000000000E+00 0.  1.
         21   -1    0    0  502  503 -0.00000000000E+00 -0.00000000000E+00 -0.27316277447E+03  0.27316277447E+03  0.00000000000E+00 0. -1.
          6    1    1    2  501    0 -0.69716852423E+02  0.55065123762E+02 -0.19154199828E+03  0.27296509753E+03  0.17300000000E+03 0. -1.
         -6    1    1    2    0  503  0.69716852423E+02 -0.55065123762E+02  0.19022205206E+03  0.27204050518E+03  0.17300000000E+03 0.  1.
</event>
<event>
 4    1  0.5821292E+000  0.1000000E+03  0.7546771E-02  0.1280296E+00
         21   -1    0    0  501  502  0.00000000000E+00  0.00000000000E+00  0.15867598987E+03  0.15867598987E+03  0.00000000000E+00 0.  1.
         21   -1    0    0  502  503 -0.00000000000E+00 -0.00000000000E+00 -0.68254181016E+03  0.68254181016E+03  0.00000000000E+00 0.  1.
          6    1    1    2  501    0  0.12469896877E+03  0.24809866270E+03 -0.30750177981E+03  0.44898677467E+03  0.17300000000E+03 0.  1.
         -6    1    1    2    0  503 -0.12469896877E+03 -0.24809866270E+03 -0.21636404047E+03  0.39223102536E+03  0.17300000000E+03 0.  1.
</event>
<event>
 4    1  0.5821292E+000  0.1000000E+03  0.7546771E-02  0.1280296E+00
         21   -1    0    0  501  502  0.00000000000E+00  0.00000000000E+00  0.57139726114E+02  0.57139726114E+02  0.00000000000E+00 0.  1.
         21   -1    0    0  502  503 -0.00000000000E+00 -0.00000000000E+00 -0.91469905938E+03  0.91469905938E+03  0.00000000000E+00 0.  1.
          6    1    1    2  501    0  0.51569779294E+02 -0.13348376698E+03 -0.33713013439E+03  0.40504701665E+03  0.17300000000E+03 0.  1.
         -6    1    1    2    0  503 -0.51569779294E+02  0.13348376698E+03 -0.52042919888E+03  0.56679176885E+03  0.17300000000E+03 0.  1.
</event>
<event>
 4    1  0.5821292E+000  0.1000000E+03  0.7546771E-02  0.1280296E+00
         21   -1    0    0  503  502  0.00000000000E+00  0.00000000000E+00  0.70998577786E+02  0.70998577786E+02  0.00000000000E+00 0.  1.
         21   -1    0    0  501  503 -0.00000000000E+00 -0.00000000000E+00 -0.59426835337E+03  0.59426835337E+03  0.00000000000E+00 0.  1.
          6    1    1    2  501    0 -0.25885525092E+02  0.10646741105E+03 -0.28763787136E+03  0.35308627142E+03  0.17300000000E+03 0.  1.
         -6    1    1    2    0  502  0.25885525092E+02 -0.10646741105E+03 -0.23563190422E+03  0.31218065974E+03  0.17300000000E+03 0.  1.
</event>
<event>
 4    1  0.5821292E+000  0.1000000E+03  0.7546771E-02  0.1280296E+00
         21   -1    0    0  503  502  0.00000000000E+00  0.00000000000E+00  0.40196473234E+02  0.40196473234E+02  0.00000000000E+00 0.  1.
         21   -1    0    0  501  503 -0.00000000000E+00 -0.00000000000E+00 -0.11989860856E+04  0.11989860856E+04  0.00000000000E+00 0.  1.
          6    1    1    2  501    0  0.60701467186E+02  0.32171476064E+02 -0.90787957523E+03  0.92676533983E+03  0.17300000000E+03 0.  1.
         -6    1    1    2    0  502 -0.60701467186E+02 -0.32171476064E+02 -0.25091003711E+03  0.31241721898E+03  0.17300000000E+03 0.  1.
</event>
<event>
 4    1  0.5821292E+000  0.1000000E+03  0.7546771E-02  0.1280296E+00
         21   -1    0    0  501  502  0.00000000000E+00  0.00000000000E+00  0.96223530585E+02  0.96223530585E+02  0.00000000000E+00 0.  1.
         21   -1    0    0  502  503 -0.00000000000E+00 -0.00000000000E+00 -0.57127884019E+03  0.57127884019E+03  0.00000000000E+00 0.  1.
          6    1    1    2  501    0 -0.33621004809E+02  0.14727468645E+03 -0.17043762732E+03  0.28600382872E+03  0.17300000000E+03 0.  1.
         -6    1    1    2    0  503  0.33621004809E+02 -0.14727468645E+03 -0.30461768228E+03  0.38149854206E+03  0.17300000000E+03 0.  1.
</event>
<event>
 4    1  0.5821292E+000  0.1000000E+03  0.7546771E-02  0.1280296E+00
         21   -1    0    0  501  502  0.00000000000E+00  0.00000000000E+00  0.11490315845E+04  0.11490315845E+04  0.00000000000E+00 0.  1.
         21   -1    0    0  502  503 -0.00000000000E+00 -0.00000000000E+00 -0.36038044885E+02  0.36038044885E+02  0.00000000000E+00 0.  1.
          6    1    1    2  501    0  0.24306257724E+02 -0.37812452772E+02  0.83969871281E+03  0.85851237850E+03  0.17300000000E+03 0.  1.
         -6    1    1    2    0  503 -0.24306257724E+02  0.37812452772E+02  0.27329482684E+03  0.32655725092E+03  0.17300000000E+03 0.  1.
</event>
<event>
 4    1  0.5821292E+000  0.1000000E+03  0.7546771E-02  0.1280296E+00
         21   -1    0    0  501  502  0.00000000000E+00  0.00000000000E+00  0.23098946572E+04  0.23098946572E+04  0.00000000000E+00 0. -1.
         21   -1    0    0  502  503 -0.00000000000E+00 -0.00000000000E+00 -0.20381031983E+02  0.20381031983E+02  0.00000000000E+00 0. -1.
          6    1    1    2  501    0 -0.14059863288E+02 -0.24293901194E+02  0.18316278883E+04  0.18399939116E+04  0.17300000000E+03 0. -1.
         -6    1    1    2    0  503  0.14059863288E+02  0.24293901194E+02  0.45788573688E+03  0.49028177758E+03  0.17300000000E+03 0. -1.
</event>
<event>
 4    1  0.5821292E+000  0.1000000E+03  0.7546771E-02  0.1280296E+00
         21   -1    0    0  503  502  0.00000000000E+00  0.00000000000E+00  0.10416107057E+03  0.10416107057E+03  0.00000000000E+00 0.  1.
         21   -1    0    0  501  503 -0.00000000000E+00 -0.00000000000E+00 -0.43755448972E+03  0.43755448972E+03  0.00000000000E+00 0.  1.
          6    1    1    2  501    0  0.33106810989E+02 -0.12057581869E+03 -0.17119225645E+03  0.27362451946E+03  0.17300000000E+03 0. -1.
         -6    1    1    2    0  502 -0.33106810989E+02  0.12057581869E+03 -0.16220116271E+03  0.26809104082E+03  0.17300000000E+03 0. -1.
</event>
<event>
 4    1  0.5821292E+000  0.1000000E+03  0.7546771E-02  0.1280296E+00
         21   -1    0    0  503  502  0.00000000000E+00  0.00000000000E+00  0.22125220185E+03  0.22125220185E+03  0.00000000000E+00 0.  1.
         21   -1    0    0  501  503 -0.00000000000E+00 -0.00000000000E+00 -0.13929139738E+03  0.13929139738E+03  0.00000000000E+00 0.  1.
          6    1    1    2  501    0 -0.10463441438E+02 -0.91060231727E+01  0.13867425161E+02  0.17410832474E+03  0.17300000000E+03 0. -1.
         -6    1    1    2    0  502  0.10463441438E+02  0.91060231727E+01  0.68093379309E+02  0.18643527448E+03  0.17300000000E+03 0. -1.
</event>
<event>
 4    1  0.5821292E+000  0.1000000E+03  0.7546771E-02  0.1280296E+00
         21   -1    0    0  503  502  0.00000000000E+00  0.00000000000E+00  0.10471651242E+04  0.10471651242E+04  0.00000000000E+00 0.  1.
         21   -1    0    0  501  503 -0.00000000000E+00 -0.00000000000E+00 -0.63431969299E+02  0.63431969299E+02  0.00000000000E+00 0. -1.
          6    1    1    2  501    0 -0.15386987965E+03  0.83484222570E+02  0.32708344807E+03  0.40933865842E+03  0.17300000000E+03 0.  1.
         -6    1    1    2    0  502  0.15386987965E+03 -0.83484222570E+02  0.65664970687E+03  0.70125843511E+03  0.17300000000E+03 0. -1.
</event>
<event>
 4    1  0.5821292E+000  0.1000000E+03  0.7546771E-02  0.1280296E+00
         21   -1    0    0  503  502  0.00000000000E+00  0.00000000000E+00  0.26125462660E+03  0.26125462660E+03  0.00000000000E+00 0.  1.
         21   -1    0    0  501  503 -0.00000000000E+00 -0.00000000000E+00 -0.22878842537E+03  0.22878842537E+03  0.00000000000E+00 0. -1.
          6    1    1    2  501    0  0.38660606897E+02 -0.71979384220E+02 -0.13631032593E+03  0.23491525968E+03  0.17300000000E+03 0.  1.
         -6    1    1    2    0  502 -0.38660606897E+02  0.71979384220E+02  0.16877652716E+03  0.25512779229E+03  0.17300000000E+03 0. -1.
</event>
<event>
 4    1  0.5821292E+000  0.1000000E+03  0.7546771E-02  0.1280296E+00
         21   -1    0    0  503  502  0.00000000000E+00  0.00000000000E+00  0.11901775422E+03  0.11901775422E+03  0.00000000000E+00 0.  1.
         21   -1    0    0  501  503 -0.00000000000E+00 -0.00000000000E+00 -0.32650710527E+03  0.32650710527E+03  0.00000000000E+00 0. -1.
          6    1    1    2  501    0  0.57377867685E+02 -0.57249037829E+01 -0.18835474250E+03  0.26216693774E+03  0.17300000000E+03 0.  1.
         -6    1    1    2    0  502 -0.57377867685E+02  0.57249037829E+01 -0.19134608542E+02  0.18335792175E+03  0.17300000000E+03 0. -1.
</event>
<event>
 4    1  0.5821292E+000  0.1000000E+03  0.7546771E-02  0.1280296E+00
         21   -1    0    0  503  502  0.00000000000E+00  0.00000000000E+00  0.27904669234E+03  0.27904669234E+03  0.00000000000E+00 0. -1.
         21   -1    0    0  501  503 -0.00000000000E+00 -0.00000000000E+00 -0.16915422684E+03  0.16915422684E+03  0.00000000000E+00 0. -1.
          6    1    1    2  501    0  0.71425057064E+02 -0.29188033096E+02 -0.54796430151E+02  0.19719312567E+03  0.17300000000E+03 0. -1.
         -6    1    1    2    0  502 -0.71425057064E+02  0.29188033096E+02  0.16468889565E+03  0.25100779351E+03  0.17300000000E+03 0. -1.
</event>
<event>
 4    1  0.5821292E+000  0.1000000E+03  0.7546771E-02  0.1280296E+00
         21   -1    0    0  503  502  0.00000000000E+00  0.00000000000E+00  0.17060667187E+04  0.17060667187E+04  0.00000000000E+00 0.  1.
         21   -1    0    0  501  503 -0.00000000000E+00 -0.00000000000E+00 -0.23629212025E+02  0.23629212025E+02  0.00000000000E+00 0. -1.
          6    1    1    2  501    0  0.21463108403E+02 -0.93698678402E+02  0.69553467295E+03  0.72314423778E+03  0.17300000000E+03 0. -1.
         -6    1    1    2    0  502 -0.21463108403E+02  0.93698678402E+02  0.98690283369E+03  0.10065516929E+04  0.17300000000E+03 0.  1.
</event>
<event>
 4    1  0.5821292E+000  0.1000000E+03  0.7546771E-02  0.1280296E+00
         21   -1    0    0  503  502  0.00000000000E+00  0.00000000000E+00  0.96009051581E+03  0.96009051581E+03  0.00000000000E+00 0.  1.
         21   -1    0    0  501  503 -0.00000000000E+00 -0.00000000000E+00 -0.72866487094E+03  0.72866487094E+03  0.00000000000E+00 0. -1.
          6    1    1    2  501    0  0.40043152520E+03  0.12696415812E+03 -0.59325062573E+03  0.74722192738E+03  0.17300000000E+03 0. -1.
         -6    1    1    2    0  502 -0.40043152520E+03 -0.12696415812E+03  0.82467627060E+03  0.94153345937E+03  0.17300000000E+03 0.  1.
</event>
<event>
 4    1  0.5821292E+000  0.1000000E+03  0.7546771E-02  0.1280296E+00
         21   -1    0    0  501  502  0.00000000000E+00  0.00000000000E+00  0.32598875037E+03  0.32598875037E+03  0.00000000000E+00 0. -1.
         21   -1    0    0  502  503 -0.00000000000E+00 -0.00000000000E+00 -0.59940849880E+03  0.59940849880E+03  0.00000000000E+00 0. -1.
          6    1    1    2  501    0 -0.18253547967E+03 -0.30529255343E+03  0.69867066808E+02  0.40166298254E+03  0.17300000000E+03 0. -1.
         -6    1    1    2    0  503  0.18253547967E+03  0.30529255343E+03 -0.34328681524E+03  0.52373426663E+03  0.17300000000E+03 0. -1.
</event>
<event>
 4    1  0.5821292E+000  0.1000000E+03  0.7546771E-02  0.1280296E+00
         21   -1    0    0  501  502  0.00000000000E+00  0.00000000000E+00  0.85615289296E+03  0.85615289296E+03  0.00000000000E+00 0. -1.
         21   -1    0    0  502  503 -0.00000000000E+00 -0.00000000000E+00 -0.47769560844E+02  0.47769560844E+02  0.00000000000E+00 0. -1.
          6    1    1    2  501    0  0.23601535733E+02 -0.92295613005E+02  0.30694234819E+03  0.36499057218E+03  0.17300000000E+03 0. -1.
         -6    1    1    2    0  503 -0.23601535733E+02  0.92295613005E+02  0.50144098392E+03  0.53893188162E+03  0.17300000000E+03 0. -1.
</event>
<event>
 4    1  0.5821292E+000  0.1000000E+03  0.7546771E-02  0.1280296E+00
         21   -1    0    0  501  502  0.00000000000E+00  0.00000000000E+00  0.15709335030E+04  0.15709335030E+04  0.00000000000E+00 0. -1.
         21   -1    0    0  502  503 -0.00000000000E+00 -0.00000000000E+00 -0.58014114297E+03  0.58014114297E+03  0.00000000000E+00 0. -1.
          6    1    1    2  501    0  0.54450190180E+02 -0.72171686907E+02  0.15482102500E+04  0.15604670947E+04  0.17300000000E+03 0. -1.
         -6    1    1    2    0  503 -0.54450190180E+02  0.72171686907E+02 -0.55741788992E+03  0.59060755126E+03  0.17300000000E+03 0. -1.
</event>
<event>
 4    1  0.5821292E+000  0.1000000E+03  0.7546771E-02  0.1280296E+00
         21   -1    0    0  501  502  0.00000000000E+00  0.00000000000E+00  0.38797234937E+03  0.38797234937E+03  0.00000000000E+00 0.  1.
         21   -1    0    0  502  503 -0.00000000000E+00 -0.00000000000E+00 -0.13100733242E+03  0.13100733242E+03  0.00000000000E+00 0. -1.
          6    1    1    2  501    0  0.65374420857E+01  0.13757089582E+03  0.17904410566E+03  0.28452465850E+03  0.17300000000E+03 0. -1.
         -6    1    1    2    0  503 -0.65374420857E+01 -0.13757089582E+03  0.77920911295E+02  0.23445502328E+03  0.17300000000E+03 0.  1.
</event>
<event>
 4    1  0.5821292E+000  0.1000000E+03  0.7546771E-02  0.1280296E+00
         21   -1    0    0  501  502  0.00000000000E+00  0.00000000000E+00  0.26415815975E+03  0.26415815975E+03  0.00000000000E+00 0. -1.
         21   -1    0    0  502  503 -0.00000000000E+00 -0.00000000000E+00 -0.19586175486E+03  0.19586175486E+03  0.00000000000E+00 0. -1.
          6    1    1    2  501    0  0.99469238257E+02 -0.73444831944E+02  0.11580715951E+03  0.24213337418E+03  0.17300000000E+03 0. -1.
         -6    1    1    2    0  503 -0.99469238257E+02  0.73444831944E+02 -0.47510754608E+02  0.21788654043E+03  0.17300000000E+03 0. -1.
</event>
<event>
 4    1  0.5821292E+000  0.1000000E+03  0.7546771E-02  0.1280296E+00
         21   -1    0    0  501  502  0.00000000000E+00  0.00000000000E+00  0.91694313858E+02  0.91694313858E+02  0.00000000000E+00 0. -1.
         21   -1    0    0  502  503 -0.00000000000E+00 -0.00000000000E+00 -0.61892578654E+03  0.61892578654E+03  0.00000000000E+00 0. -1.
          6    1    1    2  501    0 -0.16300458581E+03  0.11853817474E+02 -0.24783371277E+03  0.34360086898E+03  0.17300000000E+03 0. -1.
         -6    1    1    2    0  503  0.16300458581E+03 -0.11853817474E+02 -0.27939775992E+03  0.36701923141E+03  0.17300000000E+03 0. -1.
</event>
<event>
 4    1  0.5821292E+000  0.1000000E+03  0.7546771E-02  0.1280296E+00
         21   -1    0    0  501  502  0.00000000000E+00  0.00000000000E+00  0.14780462566E+03  0.14780462566E+03  0.00000000000E+00 0. -1.
         21   -1    0    0  502  503 -0.00000000000E+00 -0.00000000000E+00 -0.43352642700E+03  0.43352642700E+03  0.00000000000E+00 0. -1.
          6    1    1    2  501    0  0.87853451499E+02 -0.94083715447E+01  0.43502954830E+02  0.19906846429E+03  0.17300000000E+03 0. -1.
         -6    1    1    2    0  503 -0.87853451499E+02  0.94083715447E+01 -0.32922475617E+03  0.38226258837E+03  0.17300000000E+03 0. -1.
</event>
<event>
 4    1  0.5821292E+000  0.1000000E+03  0.7546771E-02  0.1280296E+00
         21   -1    0    0  503  502  0.00000000000E+00  0.00000000000E+00  0.16624307508E+03  0.16624307508E+03  0.00000000000E+00 0.  1.
         21   -1    0    0  501  503 -0.00000000000E+00 -0.00000000000E+00 -0.27660029750E+03  0.27660029750E+03  0.00000000000E+00 0. -1.
          6    1    1    2  501    0 -0.11600926513E+03 -0.29217640625E+02 -0.98276311028E+02  0.23216169673E+03  0.17300000000E+03 0. -1.
         -6    1    1    2    0  502  0.11600926513E+03  0.29217640625E+02 -0.12080911397E+02  0.21068167585E+03  0.17300000000E+03 0.  1.
</event>
<event>
 4    1  0.5821292E+000  0.1000000E+03  0.7546771E-02  0.1280296E+00
         21   -1    0    0  503  502  0.00000000000E+00  0.00000000000E+00  0.36422313773E+03  0.36422313773E+03  0.00000000000E+00 0.  1.
         21   -1    0    0  501  503 -0.00000000000E+00 -0.00000000000E+00 -0.22958198473E+03  0.22958198473E+03  0.00000000000E+00 0. -1.
          6    1    1    2  501    0 -0.16265948839E+03  0.12944523966E+03 -0.37768305907E+02  0.27307439310E+03  0.17300000000E+03 0. -1.
         -6    1    1    2    0  502  0.16265948839E+03 -0.12944523966E+03  0.17240945890E+03  0.32073072936E+03  0.17300000000E+03 0.  1.
</event>
<event>
 4    1  0.5821292E+000  0.1000000E+03  0.7546771E-02  0.1280296E+00
         21   -1    0    0  503  502  0.00000000000E+00  0.00000000000E+00  0.54810542790E+03  0.54810542790E+03  0.00000000000E+00 0.  1.
         21   -1    0    0  501  503 -0.00000000000E+00 -0.00000000000E+00 -0.14000942110E+03  0.14000942110E+03  0.00000000000E+00 0. -1.
          6    1    1    2  501    0  0.21389166468E+02  0.14961681315E+03  0.11766153046E+02  0.23002201976E+03  0.17300000000E+03 0. -1.
         -6    1    1    2    0  502 -0.21389166468E+02 -0.14961681315E+03  0.39632985375E+03  0.45809282923E+03  0.17300000000E+03 0.  1.
</event>
<event>
 4    1  0.5821292E+000  0.1000000E+03  0.7546771E-02  0.1280296E+00
         21   -1    0    0  503  502  0.00000000000E+00  0.00000000000E+00  0.74945118466E+03  0.74945118466E+03  0.00000000000E+00 0.  1.
         21   -1    0    0  501  503 -0.00000000000E+00 -0.00000000000E+00 -0.41015796682E+03  0.41015796682E+03  0.00000000000E+00 0. -1.
          6    1    1    2  501    0 -0.96043488262E+02 -0.17420547661E+03 -0.34041746957E+03  0.43056352993E+03  0.17300000000E+03 0. -1.
         -6    1    1    2    0  502  0.96043488262E+02  0.17420547661E+03  0.67971068741E+03  0.72904562155E+03  0.17300000000E+03 0.  1.
</event>
<event>
 4    1  0.5821292E+000  0.1000000E+03  0.7546771E-02  0.1280296E+00
         21   -1    0    0  503  502  0.00000000000E+00  0.00000000000E+00  0.88145658216E+03  0.88145658216E+03  0.00000000000E+00 0.  1.
         21   -1    0    0  501  503 -0.00000000000E+00 -0.00000000000E+00 -0.54765117284E+02  0.54765117284E+02  0.00000000000E+00 0. -1.
          6    1    1    2  501    0 -0.74041937584E+02 -0.48717778382E+02  0.19514724409E+03  0.27543978894E+03  0.17300000000E+03 0. -1.
         -6    1    1    2    0  502  0.74041937584E+02  0.48717778382E+02  0.63154422079E+03  0.66078191051E+03  0.17300000000E+03 0.  1.
</event>
<event>
 4    1  0.5821292E+000  0.1000000E+03  0.7546771E-02  0.1280296E+00
         21   -1    0    0  501  502  0.00000000000E+00  0.00000000000E+00  0.33521905093E+03  0.33521905093E+03  0.00000000000E+00 0.  1.
         21   -1    0    0  502  503 -0.00000000000E+00 -0.00000000000E+00 -0.92201579437E+02  0.92201579437E+02  0.00000000000E+00 0.  1.
          6    1    1    2  501    0  0.60836198411E+01 -0.25016670940E+02  0.14311373174E+03  0.22599421335E+03  0.17300000000E+03 0.  1.
         -6    1    1    2    0  503 -0.60836198411E+01  0.25016670940E+02  0.99903739751E+02  0.20142641702E+03  0.17300000000E+03 0.  1.
</event>
<event>
 4    1  0.5821292E+000  0.1000000E+03  0.7546771E-02  0.1280296E+00
         21   -1    0    0  501  502  0.00000000000E+00  0.00000000000E+00  0.82538666189E+02  0.82538666189E+02  0.00000000000E+00 0. -1.
         21   -1    0    0  502  503 -0.00000000000E+00 -0.00000000000E+00 -0.11641742318E+04  0.11641742318E+04  0.00000000000E+00 0.  1.
          6    1    1    2  501    0  0.27740808772E+02 -0.45656315718E+01 -0.26670015075E+02  0.17728701917E+03  0.17300000000E+03 0. -1.
         -6    1    1    2    0  503 -0.27740808772E+02  0.45656315718E+01 -0.10549655505E+04  0.10694258788E+04  0.17300000000E+03 0. -1.
</event>
<event>
 4    1  0.5821292E+000  0.1000000E+03  0.7546771E-02  0.1280296E+00
         21   -1    0    0  501  502  0.00000000000E+00  0.00000000000E+00  0.12860031032E+03  0.12860031032E+03  0.00000000000E+00 0.  1.
         21   -1    0    0  502  503 -0.00000000000E+00 -0.00000000000E+00 -0.66927358748E+03  0.66927358748E+03  0.00000000000E+00 0.  1.
          6    1    1    2  501    0  0.44874188992E+01 -0.17230799455E+03 -0.49268181270E+02  0.24913156283E+03  0.17300000000E+03 0.  1.
         -6    1    1    2    0  503 -0.44874188992E+01  0.17230799455E+03 -0.49140509589E+03  0.54874233497E+03  0.17300000000E+03 0.  1.
</event>
<event>
 4    1  0.5821292E+000  0.1000000E+03  0.7546771E-02  0.1280296E+00
         21   -1    0    0  501  502  0.00000000000E+00  0.00000000000E+00  0.29890624538E+03  0.29890624538E+03  0.00000000000E+00 0.  1.
         21   -1    0    0  502  503 -0.00000000000E+00 -0.00000000000E+00 -0.24338151306E+03  0.24338151306E+03  0.00000000000E+00 0.  1.
          6    1    1    2  501    0 -0.31496626550E+02 -0.14212717034E+03  0.17560085102E+03  0.28628103135E+03  0.17300000000E+03 0.  1.
         -6    1    1    2    0  503  0.31496626550E+02  0.14212717034E+03 -0.12007611870E+03  0.25600672709E+03  0.17300000000E+03 0.  1.
</event>
<event>
 4    1  0.5821292E+000  0.1000000E+03  0.7546771E-02  0.1280296E+00
         21   -1    0    0  501  502  0.00000000000E+00  0.00000000000E+00  0.39523249753E+03  0.39523249753E+03  0.00000000000E+00 0. -1.
         21   -1    0    0  502  503 -0.00000000000E+00 -0.00000000000E+00 -0.14755397866E+03  0.14755397866E+03  0.00000000000E+00 0. -1.
          6    1    1    2  501    0 -0.63516330005E+02 -0.43371405779E+02  0.29231398728E+03  0.34826982381E+03  0.17300000000E+03 0. -1.
         -6    1    1    2    0  503  0.63516330005E+02  0.43371405779E+02 -0.44635468411E+02  0.19451665239E+03  0.17300000000E+03 0. -1.
</event>
<event>
 4    1  0.5821292E+000  0.1000000E+03  0.7546771E-02  0.1280296E+00
         21   -1    0    0  501  502  0.00000000000E+00  0.00000000000E+00  0.35669908149E+03  0.35669908149E+03  0.00000000000E+00 0. -1.
         21   -1    0    0  502  503 -0.00000000000E+00 -0.00000000000E+00 -0.15033151298E+03  0.15033151298E+03  0.00000000000E+00 0. -1.
          6    1    1    2  501    0 -0.99055040939E+02 -0.10939709254E+03  0.55281696698E+02  0.23401856973E+03  0.17300000000E+03 0. -1.
         -6    1    1    2    0  503  0.99055040939E+02  0.10939709254E+03  0.15108587181E+03  0.27301202474E+03  0.17300000000E+03 0. -1.
</event>
<event>
 4    1  0.5821292E+000  0.1000000E+03  0.7546771E-02  0.1280296E+00
         21   -1    0    0  503  502  0.00000000000E+00  0.00000000000E+00  0.30690492679E+03  0.30690492679E+03  0.00000000000E+00 0. -1.
         21   -1    0    0  501  503 -0.00000000000E+00 -0.00000000000E+00 -0.14924905200E+03  0.14924905200E+03  0.00000000000E+00 0. -1.
          6    1    1    2  501    0  0.11700753351E+03  0.46045727215E+02  0.70216572844E+02  0.22510073077E+03  0.17300000000E+03 0. -1.
         -6    1    1    2    0  502 -0.11700753351E+03 -0.46045727215E+02  0.87439301951E+02  0.23105324802E+03  0.17300000000E+03 0. -1.
</event>
<event>
 4    1  0.5821292E+000  0.1000000E+03  0.7546771E-02  0.1280296E+00
         21   -1    0    0  503  502  0.00000000000E+00  0.00000000000E+00  0.11614031396E+04  0.11614031396E+04  0.00000000000E+00 0. -1.
         21   -1    0    0  501  503 -0.00000000000E+00 -0.00000000000E+00 -0.49461351654E+02  0.49461351654E+02  0.00000000000E+00 0. -1.
          6    1    1    2  501    0 -0.12417040003E+03 -0.90000049455E+02  0.39626427774E+03  0.45877301028E+03  0.17300000000E+03 0. -1.
         -6    1    1    2    0  502  0.12417040003E+03  0.90000049455E+02  0.71567751019E+03  0.75209148097E+03  0.17300000000E+03 0. -1.
</event>
<event>
 4    1  0.5821292E+000  0.1000000E+03  0.7546771E-02  0.1280296E+00
         21   -1    0    0  503  502  0.00000000000E+00  0.00000000000E+00  0.57705304554E+02  0.57705304554E+02  0.00000000000E+00 0. -1.
         21   -1    0    0  501  503 -0.00000000000E+00 -0.00000000000E+00 -0.95843041840E+03  0.95843041840E+03  0.00000000000E+00 0.  1.
          6    1    1    2  501    0 -0.15400786703E+03 -0.26563112047E+02 -0.51707291352E+03  0.56720139274E+03  0.17300000000E+03 0. -1.
         -6    1    1    2    0  502  0.15400786703E+03  0.26563112047E+02 -0.38365220033E+03  0.44893433022E+03  0.17300000000E+03 0.  1.
</event>
<event>
 4    1  0.5821292E+000  0.1000000E+03  0.7546771E-02  0.1280296E+00
         21   -1    0    0  503  502  0.00000000000E+00  0.00000000000E+00  0.21197955873E+03  0.21197955873E+03  0.00000000000E+00 0. -1.
         21   -1    0    0  501  503 -0.00000000000E+00 -0.00000000000E+00 -0.26562630115E+03  0.26562630115E+03  0.00000000000E+00 0.  1.
          6    1    1    2  501    0  0.26702358390E+02  0.77125894449E+02 -0.16813461897E+03  0.25467561649E+03  0.17300000000E+03 0. -1.
         -6    1    1    2    0  502 -0.26702358390E+02 -0.77125894449E+02  0.11448787656E+03  0.22293024339E+03  0.17300000000E+03 0.  1.
</event>
<event>
 4    1  0.5821292E+000  0.1000000E+03  0.7546771E-02  0.1280296E+00
         21   -1    0    0  503  502  0.00000000000E+00  0.00000000000E+00  0.51148493663E+02  0.51148493663E+02  0.00000000000E+00 0. -1.
         21   -1    0    0  501  503 -0.00000000000E+00 -0.00000000000E+00 -0.63567237439E+03  0.63567237439E+03  0.00000000000E+00 0. -1.
          6    1    1    2  501    0  0.44091686060E+01  0.49714668688E+02 -0.27382709740E+03  0.32772132723E+03  0.17300000000E+03 0.  1.
         -6    1    1    2    0  502 -0.44091686060E+01 -0.49714668688E+02 -0.31069678333E+03  0.35909954083E+03  0.17300000000E+03 0.  1.
</event>
<event>
 4    1  0.5821292E+000  0.1000000E+03  0.7546771E-02  0.1280296E+00
         21   -1    0    0  503  502  0.00000000000E+00  0.00000000000E+00  0.13414284914E+03  0.13414284914E+03  0.00000000000E+00 0. -1.
         21   -1    0    0  501  503 -0.00000000000E+00 -0.00000000000E+00 -0.31279273614E+03  0.31279273614E+03  0.00000000000E+00 0. -1.
          6    1    1    2  501    0 -0.62635988739E+02 -0.38440671871E+01 -0.18746067353E+03  0.26269478118E+03  0.17300000000E+03 0.  1.
         -6    1    1    2    0  502  0.62635988739E+02  0.38440671871E+01  0.88107865374E+01  0.18424080410E+03  0.17300000000E+03 0.  1.
</event>
<event>
 4    1  0.5821292E+000  0.1000000E+03  0.7546771E-02  0.1280296E+00
         21   -1    0    0  501  502  0.00000000000E+00  0.00000000000E+00  0.97970512402E+03  0.97970512402E+03  0.00000000000E+00 0.  1.
         21   -1    0    0  502  503 -0.00000000000E+00 -0.00000000000E+00 -0.77746099566E+02  0.77746099566E+02  0.00000000000E+00 0.  1.
          6    1    1    2  501    0  0.11266821020E+03  0.13196663626E+03  0.69428933436E+03  0.73625810588E+03  0.17300000000E+03 0.  1.
         -6    1    1    2    0  503 -0.11266821020E+03 -0.13196663626E+03  0.20766969009E+03  0.32119311770E+03  0.17300000000E+03 0.  1.
</event>
<event>
 4    1  0.5821292E+000  0.1000000E+03  0.7546771E-02  0.1280296E+00
         21   -1    0    0  503  502  0.00000000000E+00  0.00000000000E+00  0.68048164699E+02  0.68048164699E+02  0.00000000000E+00 0.  1.
         21   -1    0    0  501  503 -0.00000000000E+00 -0.00000000000E+00 -0.56075278596E+03  0.56075278596E+03  0.00000000000E+00 0.  1.
          6    1    1    2  501    0 -0.20341047981E+02  0.74109249019E+02 -0.32393021996E+03  0.37518758832E+03  0.17300000000E+03 0.  1.
         -6    1    1    2    0  502  0.20341047981E+02 -0.74109249019E+02 -0.16877440130E+03  0.25361336234E+03  0.17300000000E+03 0.  1.
</event>
<event>
 4    1  0.5821292E+000  0.1000000E+03  0.7546771E-02  0.1280296E+00
         21   -1    0    0  503  502  0.00000000000E+00  0.00000000000E+00  0.26478447737E+03  0.26478447737E+03  0.00000000000E+00 0.  1.
         21   -1    0    0  501  503 -0.00000000000E+00 -0.00000000000E+00 -0.44721933320E+03  0.44721933320E+03  0.00000000000E+00 0.  1.
          6    1    1    2  501    0  0.10092301152E+03 -0.12559021693E+03 -0.34991231176E+03  0.42228661211E+03  0.17300000000E+03 0.  1.
         -6    1    1    2    0  502 -0.10092301152E+03  0.12559021693E+03  0.16747745593E+03  0.28971719847E+03  0.17300000000E+03 0.  1.
</event>
<event>
 4    1  0.5821292E+000  0.1000000E+03  0.7546771E-02  0.1280296E+00
         21   -1    0    0  503  502  0.00000000000E+00  0.00000000000E+00  0.21812776780E+03  0.21812776780E+03  0.00000000000E+00 0.  1.
         21   -1    0    0  501  503 -0.00000000000E+00 -0.00000000000E+00 -0.33026684407E+03  0.33026684407E+03  0.00000000000E+00 0.  1.
          6    1    1    2  501    0 -0.37918898949E+02 -0.13953311430E+03 -0.20482896283E+03  0.30461654075E+03  0.17300000000E+03 0.  1.
         -6    1    1    2    0  502  0.37918898949E+02  0.13953311430E+03  0.92689886563E+02  0.24377807111E+03  0.17300000000E+03 0.  1.
</event>
<event>
 4    1  0.5821292E+000  0.1000000E+03  0.7546771E-02  0.1280296E+00
         21   -1    0    0  503  502  0.00000000000E+00  0.00000000000E+00  0.12936469432E+03  0.12936469432E+03  0.00000000000E+00 0.  1.
         21   -1    0    0  501  503 -0.00000000000E+00 -0.00000000000E+00 -0.44476157572E+03  0.44476157572E+03  0.00000000000E+00 0.  1.
          6    1    1    2  501    0 -0.10907922943E+03 -0.14096913678E+02 -0.30674365142E+03  0.36894128118E+03  0.17300000000E+03 0. -1.
         -6    1    1    2    0  502  0.10907922943E+03  0.14096913678E+02 -0.86532299757E+01  0.20518498887E+03  0.17300000000E+03 0. -1.
</event>
<event>
 4    1  0.5821292E+000  0.1000000E+03  0.7546771E-02  0.1280296E+00
         21   -1    0    0  503  502  0.00000000000E+00  0.00000000000E+00  0.63863792348E+03  0.63863792348E+03  0.00000000000E+00 0.  1.
         21   -1    0    0  501  503 -0.00000000000E+00 -0.00000000000E+00 -0.30002579399E+03  0.30002579399E+03  0.00000000000E+00 0.  1.
          6    1    1    2  501    0  0.84111692563E+02  0.96407672184E+02 -0.23940894868E+03  0.32189262307E+03  0.17300000000E+03 0. -1.
         -6    1    1    2    0  502 -0.84111692563E+02 -0.96407672184E+02  0.57802107816E+03  0.61677109440E+03  0.17300000000E+03 0. -1.
</event>
<event>
 4    1  0.5821292E+000  0.1000000E+03  0.7546771E-02  0.1280296E+00
         21   -1    0    0  501  502  0.00000000000E+00  0.00000000000E+00  0.79715161296E+03  0.79715161296E+03  0.00000000000E+00 0. -1.
         21   -1    0    0  502  503 -0.00000000000E+00 -0.00000000000E+00 -0.40605622988E+02  0.40605622988E+02  0.00000000000E+00 0. -1.
          6    1    1    2  501    0 -0.15509301134E+02  0.14100002240E+02  0.48240704584E+03  0.51291803084E+03  0.17300000000E+03 0.  1.
         -6    1    1    2    0  503  0.15509301134E+02 -0.14100002240E+02  0.27413894413E+03  0.32483920511E+03  0.17300000000E+03 0.  1.
</event>
<event>
 4    1  0.5821292E+000  0.1000000E+03  0.7546771E-02  0.1280296E+00
         21   -1    0    0  503  502  0.00000000000E+00  0.00000000000E+00  0.17828501721E+03  0.17828501721E+03  0.00000000000E+00 0.  1.
         21   -1    0    0  501  503 -0.00000000000E+00 -0.00000000000E+00 -0.33263502508E+03  0.33263502508E+03  0.00000000000E+00 0.  1.
          6    1    1    2  501    0 -0.60343666102E+02  0.14246260335E+03 -0.15453148974E+03  0.27882957646E+03  0.17300000000E+03 0.  1.
         -6    1    1    2    0  502  0.60343666102E+02 -0.14246260335E+03  0.18148187130E+00  0.23209046582E+03  0.17300000000E+03 0.  1.
</event>
<event>
 4    1  0.5821292E+000  0.1000000E+03  0.7546771E-02  0.1280296E+00
         21   -1    0    0  503  502  0.00000000000E+00  0.00000000000E+00  0.12123529798E+03  0.12123529798E+03  0.00000000000E+00 0.  1.
         21   -1    0    0  501  503 -0.00000000000E+00 -0.00000000000E+00 -0.30108957339E+03  0.30108957339E+03  0.00000000000E+00 0.  1.
          6    1    1    2  501    0 -0.10341075743E+02  0.33298606766E+02 -0.90262003183E+01  0.17670938671E+03  0.17300000000E+03 0.  1.
         -6    1    1    2    0  502  0.10341075743E+02 -0.33298606766E+02 -0.17082807509E+03  0.24561548465E+03  0.17300000000E+03 0.  1.
</event>
<event>
 4    1  0.5821292E+000  0.1000000E+03  0.7546771E-02  0.1280296E+00
         21   -1    0    0  501  502  0.00000000000E+00  0.00000000000E+00  0.17312436697E+04  0.17312436697E+04  0.00000000000E+00 0. -1.
         21   -1    0    0  502  503 -0.00000000000E+00 -0.00000000000E+00 -0.16827078863E+03  0.16827078863E+03  0.00000000000E+00 0.  1.
          6    1    1    2  501    0  0.10343020306E+03  0.21951830770E+03  0.15733393047E+04  0.16013156035E+04  0.17300000000E+03 0. -1.
         -6    1    1    2    0  503 -0.10343020306E+03 -0.21951830770E+03 -0.10366423557E+02  0.29819885489E+03  0.17300000000E+03 0.  1.
</event>
<event>
 4    1  0.5821292E+000  0.1000000E+03  0.7546771E-02  0.1280296E+00
         21   -1    0    0  503  502  0.00000000000E+00  0.00000000000E+00  0.94229693633E+03  0.94229693633E+03  0.00000000000E+00 0. -1.
         21   -1    0    0  501  503 -0.00000000000E+00 -0.00000000000E+00 -0.57858690631E+02  0.57858690631E+02  0.00000000000E+00 0. -1.
          6    1    1    2  501    0 -0.79104626062E+02  0.13102876876E+03  0.36911869786E+03  0.43543506200E+03  0.17300000000E+03 0. -1.
         -6    1    1    2    0  502  0.79104626062E+02 -0.13102876876E+03  0.51531954784E+03  0.56472056496E+03  0.17300000000E+03 0. -1.
</event>
<event>
 4    1  0.5821292E+000  0.1000000E+03  0.7546771E-02  0.1280296E+00
         21   -1    0    0  503  502  0.00000000000E+00  0.00000000000E+00  0.53836375632E+02  0.53836375632E+02  0.00000000000E+00 0. -1.
         21   -1    0    0  501  503 -0.00000000000E+00 -0.00000000000E+00 -0.15774001184E+04  0.15774001184E+04  0.00000000000E+00 0. -1.
          6    1    1    2  501    0 -0.12173702516E+03  0.24588204353E+02 -0.13185190994E+04  0.13356070151E+04  0.17300000000E+03 0. -1.
         -6    1    1    2    0  502  0.12173702516E+03 -0.24588204353E+02 -0.20504464337E+03  0.29562947901E+03  0.17300000000E+03 0. -1.
</event>
<event>
 4    1  0.5821292E+000  0.1000000E+03  0.7546771E-02  0.1280296E+00
         21   -1    0    0  503  502  0.00000000000E+00  0.00000000000E+00  0.37542579727E+03  0.37542579727E+03  0.00000000000E+00 0. -1.
         21   -1    0    0  501  503 -0.00000000000E+00 -0.00000000000E+00 -0.27908097253E+03  0.27908097253E+03  0.00000000000E+00 0. -1.
          6    1    1    2  501    0 -0.89672325123E+02 -0.38572355360E+02 -0.21021275504E+03  0.28921852443E+03  0.17300000000E+03 0. -1.
         -6    1    1    2    0  502  0.89672325123E+02  0.38572355360E+02  0.30655757978E+03  0.36528824538E+03  0.17300000000E+03 0. -1.
</event>
<event>
 4    1  0.5821292E+000  0.1000000E+03  0.7546771E-02  0.1280296E+00
         21   -1    0    0  501  502  0.00000000000E+00  0.00000000000E+00  0.31677290704E+03  0.31677290704E+03  0.00000000000E+00 0. -1.
         21   -1    0    0  502  503 -0.00000000000E+00 -0.00000000000E+00 -0.96364505423E+02  0.96364505423E+02  0.00000000000E+00 0. -1.
          6    1    1    2  501    0  0.92352840180E+01  0.15399151772E+02  0.90624885422E+02  0.19612316080E+03  0.17300000000E+03 0. -1.
         -6    1    1    2    0  503 -0.92352840180E+01 -0.15399151772E+02  0.12978351619E+03  0.21701425166E+03  0.17300000000E+03 0. -1.
</event>
<event>
 4    1  0.5821292E+000  0.1000000E+03  0.7546771E-02  0.1280296E+00
         21   -1    0    0  501  502  0.00000000000E+00  0.00000000000E+00  0.18575843816E+03  0.18575843816E+03  0.00000000000E+00 0. -1.
         21   -1    0    0  502  503 -0.00000000000E+00 -0.00000000000E+00 -0.32835787739E+03  0.32835787739E+03  0.00000000000E+00 0. -1.
          6    1    1    2  501    0  0.17616067193E+03  0.24470403319E+01 -0.76775373598E+02  0.25857692923E+03  0.17300000000E+03 0. -1.
         -6    1    1    2    0  503 -0.17616067193E+03 -0.24470403319E+01 -0.65824065630E+02  0.25553938631E+03  0.17300000000E+03 0. -1.
</event>
<event>
 4    1  0.5821292E+000  0.1000000E+03  0.7546771E-02  0.1280296E+00
         21   -1    0    0  501  502  0.00000000000E+00  0.00000000000E+00  0.20979672399E+04  0.20979672399E+04  0.00000000000E+00 0.  1.
         21   -1    0    0  502  503 -0.00000000000E+00 -0.00000000000E+00 -0.99110617833E+02  0.99110617833E+02  0.00000000000E+00 0.  1.
          6    1    1    2  501    0  0.17412634532E+03  0.17513763195E+03  0.18235000157E+04  0.18482625575E+04  0.17300000000E+03 0.  1.
         -6    1    1    2    0  503 -0.17412634532E+03 -0.17513763195E+03  0.17535660634E+03  0.34881530019E+03  0.17300000000E+03 0.  1.
</event>
<event>
 4    1  0.5821292E+000  0.1000000E+03  0.7546771E-02  0.1280296E+00
         21   -1    0    0  501  502  0.00000000000E+00  0.00000000000E+00  0.25450787570E+03  0.25450787570E+03  0.00000000000E+00 0.  1.
         21   -1    0    0  502  503 -0.00000000000E+00 -0.00000000000E+00 -0.18444726154E+03  0.18444726154E+03  0.00000000000E+00 0.  1.
          6    1    1    2  501    0  0.11678104034E+03  0.23779637257E+01 -0.23782357467E+02  0.21009061526E+03  0.17300000000E+03 0.  1.
         -6    1    1    2    0  503 -0.11678104034E+03 -0.23779637257E+01  0.93842971624E+02  0.22886452197E+03  0.17300000000E+03 0.  1.
</event>
<event>
 4    1  0.5821292E+000  0.1000000E+03  0.7546771E-02  0.1280296E+00
         21   -1    0    0  501  502  0.00000000000E+00  0.00000000000E+00  0.69558508910E+02  0.69558508910E+02  0.00000000000E+00 0.  1.
         21   -1    0    0  502  503 -0.00000000000E+00 -0.00000000000E+00 -0.64884060611E+03  0.64884060611E+03  0.00000000000E+00 0.  1.
          6    1    1    2  501    0 -0.37997464724E+02  0.10223384798E+03 -0.38688496898E+03  0.43761232412E+03  0.17300000000E+03 0.  1.
         -6    1    1    2    0  503  0.37997464724E+02 -0.10223384798E+03 -0.19239712823E+03  0.28078679091E+03  0.17300000000E+03 0.  1.
</event>
<event>
 4    1  0.5821292E+000  0.1000000E+03  0.7546771E-02  0.1280296E+00
         21   -1    0    0  501  502  0.00000000000E+00  0.00000000000E+00  0.29919264703E+03  0.29919264703E+03  0.00000000000E+00 0.  1.
         21   -1    0    0  502  503 -0.00000000000E+00 -0.00000000000E+00 -0.22328018683E+03  0.22328018683E+03  0.00000000000E+00 0.  1.
          6    1    1    2  501    0  0.15903328524E+03  0.10096014403E+03  0.75642242437E+02  0.26671198949E+03  0.17300000000E+03 0.  1.
         -6    1    1    2    0  503 -0.15903328524E+03 -0.10096014403E+03  0.27021776393E+00  0.25576084438E+03  0.17300000000E+03 0.  1.
</event>
<event>
 4    1  0.5821292E+000  0.1000000E+03  0.7546771E-02  0.1280296E+00
         21   -1    0    0  503  502  0.00000000000E+00  0.00000000000E+00  0.59970315366E+03  0.59970315366E+03  0.00000000000E+00 0. -1.
         21   -1    0    0  501  503 -0.00000000000E+00 -0.00000000000E+00 -0.75255970255E+02  0.75255970255E+02  0.00000000000E+00 0.  1.
          6    1    1    2  501    0 -0.92266391728E+02  0.66131809194E+02  0.18577778303E+03  0.27808072191E+03  0.17300000000E+03 0.  1.
         -6    1    1    2    0  502  0.92266391728E+02 -0.66131809194E+02  0.33866940038E+03  0.39687840201E+03  0.17300000000E+03 0.  1.
</event>
<event>
 4    1  0.5821292E+000  0.1000000E+03  0.7546771E-02  0.1280296E+00
         21   -1    0    0  503  502  0.00000000000E+00  0.00000000000E+00  0.13035791558E+04  0.13035791558E+04  0.00000000000E+00 0.  1.
         21   -1    0    0  501  503 -0.00000000000E+00 -0.00000000000E+00 -0.12334932240E+03  0.12334932240E+03  0.00000000000E+00 0.  1.
          6    1    1    2  501    0  0.92738165427E+02  0.11280429497E+03  0.12382808245E+01  0.22639723856E+03  0.17300000000E+03 0.  1.
         -6    1    1    2    0  502 -0.92738165427E+02 -0.11280429497E+03  0.11789915525E+04  0.12005312396E+04  0.17300000000E+03 0.  1.
</event>
<event>
 4    1  0.5821292E+000  0.1000000E+03  0.7546771E-02  0.1280296E+00
         21   -1    0    0  503  502  0.00000000000E+00  0.00000000000E+00  0.81887076913E+03  0.81887076913E+03  0.00000000000E+00 0.  1.
         21   -1    0    0  501  503 -0.00000000000E+00 -0.00000000000E+00 -0.48560905402E+02  0.48560905402E+02  0.00000000000E+00 0.  1.
          6    1    1    2  501    0  0.70561519769E+02  0.61310691604E+02  0.31307898166E+03  0.36970985615E+03  0.17300000000E+03 0.  1.
         -6    1    1    2    0  502 -0.70561519769E+02 -0.61310691604E+02  0.45723088207E+03  0.49772181838E+03  0.17300000000E+03 0.  1.
</event>
<event>
 4    1  0.5821292E+000  0.1000000E+03  0.7546771E-02  0.1280296E+00
         21   -1    0    0  503  502  0.00000000000E+00  0.00000000000E+00  0.41400690850E+03  0.41400690850E+03  0.00000000000E+00 0.  1.
         21   -1    0    0  501  503 -0.00000000000E+00 -0.00000000000E+00 -0.21344134073E+03  0.21344134073E+03  0.00000000000E+00 0.  1.
          6    1    1    2  501    0  0.15731987257E+03  0.24416339507E+01 -0.93404791074E+02  0.25181135573E+03  0.17300000000E+03 0.  1.
         -6    1    1    2    0  502 -0.15731987257E+03 -0.24416339507E+01  0.29397035884E+03  0.37563689350E+03  0.17300000000E+03 0.  1.
</event>
<event>
 4    1  0.5821292E+000  0.1000000E+03  0.7546771E-02  0.1280296E+00
         21   -1    0    0  503  502  0.00000000000E+00  0.00000000000E+00  0.37081551477E+03  0.37081551477E+03  0.00000000000E+00 0.  1.
         21   -1    0    0  501  503 -0.00000000000E+00 -0.00000000000E+00 -0.18401447185E+03  0.18401447185E+03  0.00000000000E+00 0.  1.
          6    1    1    2  501    0  0.15933162468E+03  0.54466099223E+02  0.19935236219E+03  0.31308702767E+03  0.17300000000E+03 0.  1.
         -6    1    1    2    0  502 -0.15933162468E+03 -0.54466099223E+02 -0.12551319261E+02  0.24174295895E+03  0.17300000000E+03 0.  1.
</event>
<event>
 4    1  0.5821292E+000  0.1000000E+03  0.7546771E-02  0.1280296E+00
         21   -1    0    0  501  502  0.00000000000E+00  0.00000000000E+00  0.21402274188E+03  0.21402274188E+03  0.00000000000E+00 0.  1.
         21   -1    0    0  502  503 -0.00000000000E+00 -0.00000000000E+00 -0.19554980838E+03  0.19554980838E+03  0.00000000000E+00 0.  1.
          6    1    1    2  501    0  0.29788295007E+02 -0.62198729668E+02  0.93981326293E+02  0.20860851896E+03  0.17300000000E+03 0.  1.
         -6    1    1    2    0  503 -0.29788295007E+02  0.62198729668E+02 -0.75508392792E+02  0.20096403129E+03  0.17300000000E+03 0.  1.
</event>
<event>
 4    1  0.5821292E+000  0.1000000E+03  0.7546771E-02  0.1280296E+00
         21   -1    0    0  501  502  0.00000000000E+00  0.00000000000E+00  0.10104800905E+04  0.10104800905E+04  0.00000000000E+00 0. -1.
         21   -1    0    0  502  503 -0.00000000000E+00 -0.00000000000E+00 -0.62029908246E+02  0.62029908246E+02  0.00000000000E+00 0. -1.
          6    1    1    2  501    0  0.11508590801E+03  0.19716684858E+02  0.77038219306E+03  0.79815489554E+03  0.17300000000E+03 0. -1.
         -6    1    1    2    0  503 -0.11508590801E+03 -0.19716684858E+02  0.17806798920E+03  0.27435510322E+03  0.17300000000E+03 0. -1.
</event>
<event>
 4    1  0.5821292E+000  0.1000000E+03  0.7546771E-02  0.1280296E+00
         21   -1    0    0  501  502  0.00000000000E+00  0.00000000000E+00  0.14602432208E+03  0.14602432208E+03  0.00000000000E+00 0. -1.
         21   -1    0    0  502  503 -0.00000000000E+00 -0.00000000000E+00 -0.25776920771E+03  0.25776920771E+03  0.00000000000E+00 0. -1.
          6    1    1    2  501    0  0.62073106941E+02  0.18608418455E+02  0.58002220150E+01  0.18482961456E+03  0.17300000000E+03 0. -1.
         -6    1    1    2    0  503 -0.62073106941E+02 -0.18608418455E+02 -0.11754510764E+03  0.21896391523E+03  0.17300000000E+03 0. -1.
</event>
<event>
 4    1  0.5821292E+000  0.1000000E+03  0.7546771E-02  0.1280296E+00
         21   -1    0    0  503  502  0.00000000000E+00  0.00000000000E+00  0.74653311523E+03  0.74653311523E+03  0.00000000000E+00 0. -1.
         21   -1    0    0  501  503 -0.00000000000E+00 -0.00000000000E+00 -0.13790093245E+03  0.13790093245E+03  0.00000000000E+00 0. -1.
          6    1    1    2  501    0 -0.14609273381E+03 -0.12209744645E+03  0.40038231169E+02  0.26035155704E+03  0.17300000000E+03 0.  1.
         -6    1    1    2    0  502  0.14609273381E+03  0.12209744645E+03  0.56859395162E+03  0.62408249063E+03  0.17300000000E+03 0.  1.
</event>
<event>
 4    1  0.5821292E+000  0.1000000E+03  0.7546771E-02  0.1280296E+00
         21   -1    0    0  503  502  0.00000000000E+00  0.00000000000E+00  0.12315341498E+03  0.12315341498E+03  0.00000000000E+00 0. -1.
         21   -1    0    0  501  503 -0.00000000000E+00 -0.00000000000E+00 -0.27756895237E+03  0.27756895237E+03  0.00000000000E+00 0. -1.
          6    1    1    2  501    0 -0.32692978645E+02 -0.75723672840E+01 -0.13782073710E+03  0.22371796346E+03  0.17300000000E+03 0.  1.
         -6    1    1    2    0  502  0.32692978645E+02  0.75723672840E+01 -0.16594800293E+02  0.17700440389E+03  0.17300000000E+03 0.  1.
</event>
<event>
 4    1  0.5821292E+000  0.1000000E+03  0.7546771E-02  0.1280296E+00
         21   -1    0    0  503  502  0.00000000000E+00  0.00000000000E+00  0.19358322205E+03  0.19358322205E+03  0.00000000000E+00 0. -1.
         21   -1    0    0  501  503 -0.00000000000E+00 -0.00000000000E+00 -0.57976183697E+03  0.57976183697E+03  0.00000000000E+00 0. -1.
          6    1    1    2  501    0 -0.20737604048E+03 -0.19664281738E+03 -0.22205846323E+03  0.40113860558E+03  0.17300000000E+03 0.  1.
         -6    1    1    2    0  502  0.20737604048E+03  0.19664281738E+03 -0.16412015169E+03  0.37220645344E+03  0.17300000000E+03 0.  1.
</event>
<event>
 4    1  0.5821292E+000  0.1000000E+03  0.7546771E-02  0.1280296E+00
         21   -1    0    0  503  502  0.00000000000E+00  0.00000000000E+00  0.42364521085E+03  0.42364521085E+03  0.00000000000E+00 0.  1.
         21   -1    0    0  501  503 -0.00000000000E+00 -0.00000000000E+00 -0.98498306457E+02  0.98498306457E+02  0.00000000000E+00 0.  1.
          6    1    1    2  501    0 -0.45314287613E+02  0.29334575332E+02  0.42102128843E+02  0.18605238839E+03  0.17300000000E+03 0.  1.
         -6    1    1    2    0  502  0.45314287613E+02 -0.29334575332E+02  0.28304477555E+03  0.33609112892E+03  0.17300000000E+03 0.  1.
</event>
<event>
 4    1  0.5821292E+000  0.1000000E+03  0.7546771E-02  0.1280296E+00
         21   -1    0    0  503  502  0.00000000000E+00  0.00000000000E+00  0.42231645164E+03  0.42231645164E+03  0.00000000000E+00 0. -1.
         21   -1    0    0  501  503 -0.00000000000E+00 -0.00000000000E+00 -0.10014200052E+03  0.10014200052E+03  0.00000000000E+00 0. -1.
          6    1    1    2  501    0 -0.91888080272E+02  0.56328582051E+02  0.12638580601E+03  0.23983056605E+03  0.17300000000E+03 0. -1.
         -6    1    1    2    0  502  0.91888080272E+02 -0.56328582051E+02  0.19578864511E+03  0.28262788611E+03  0.17300000000E+03 0. -1.
</event>
<event>
 4    1  0.5821292E+000  0.1000000E+03  0.7546771E-02  0.1280296E+00
         21   -1    0    0  501  502  0.00000000000E+00  0.00000000000E+00  0.11663694481E+03  0.11663694481E+03  0.00000000000E+00 0.  1.
         21   -1    0    0  502  503 -0.00000000000E+00 -0.00000000000E+00 -0.33009426888E+03  0.33009426888E+03  0.00000000000E+00 0. -1.
          6    1    1    2  501    0  0.11155358767E+02 -0.91900454846E+02 -0.10509822762E+03  0.22258655188E+03  0.17300000000E+03 0.  1.
         -6    1    1    2    0  503 -0.11155358767E+02  0.91900454846E+02 -0.10835909645E+03  0.22414466180E+03  0.17300000000E+03 0. -1.
</event>
<event>
 4    1  0.5821292E+000  0.1000000E+03  0.7546771E-02  0.1280296E+00
         21   -1    0    0  501  502  0.00000000000E+00  0.00000000000E+00  0.59114688594E+02  0.59114688594E+02  0.00000000000E+00 0.  1.
         21   -1    0    0  502  503 -0.00000000000E+00 -0.00000000000E+00 -0.54247686145E+03  0.54247686145E+03  0.00000000000E+00 0. -1.
          6    1    1    2  501    0 -0.37864287878E+02 -0.15548695213E+02 -0.27785857017E+03  0.32986338269E+03  0.17300000000E+03 0.  1.
         -6    1    1    2    0  503  0.37864287878E+02  0.15548695213E+02 -0.20550360269E+03  0.27172816736E+03  0.17300000000E+03 0. -1.
</event>
<event>
 4    1  0.5821292E+000  0.1000000E+03  0.7546771E-02  0.1280296E+00
         21   -1    0    0  501  502  0.00000000000E+00  0.00000000000E+00  0.92444138571E+03  0.92444138571E+03  0.00000000000E+00 0.  1.
         21   -1    0    0  502  503 -0.00000000000E+00 -0.00000000000E+00 -0.92998474789E+02  0.92998474789E+02  0.00000000000E+00 0. -1.
          6    1    1    2  501    0 -0.17181194985E+03  0.16034985636E+03  0.36630523799E+03  0.46833743169E+03  0.17300000000E+03 0.  1.
         -6    1    1    2    0  503  0.17181194985E+03 -0.16034985636E+03  0.46513767293E+03  0.54910242881E+03  0.17300000000E+03 0. -1.
</event>
<event>
 4    1  0.5821292E+000  0.1000000E+03  0.7546771E-02  0.1280296E+00
         21   -1    0    0  501  502  0.00000000000E+00  0.00000000000E+00  0.10926058985E+03  0.10926058985E+03  0.00000000000E+00 0.  1.
         21   -1    0    0  502  503 -0.00000000000E+00 -0.00000000000E+00 -0.48167553177E+03  0.48167553177E+03  0.00000000000E+00 0.  1.
          6    1    1    2  501    0  0.72750794575E+02 -0.30609826715E+02 -0.20919267646E+02  0.19130147768E+03  0.17300000000E+03 0.  1.
         -6    1    1    2    0  503 -0.72750794575E+02  0.30609826715E+02 -0.35149567428E+03  0.39963464394E+03  0.17300000000E+03 0.  1.
</event>
<event>
 4    1  0.5821292E+000  0.1000000E+03  0.7546771E-02  0.1280296E+00
         21   -1    0    0  501  502  0.00000000000E+00  0.00000000000E+00  0.37740413231E+03  0.37740413231E+03  0.00000000000E+00 0.  1.
         21   -1    0    0  502  503 -0.00000000000E+00 -0.00000000000E+00 -0.91797786570E+02  0.91797786570E+02  0.00000000000E+00 0.  1.
          6    1    1    2  501    0 -0.62904446400E+02 -0.80011322809E+00  0.17751023329E+03  0.25572737922E+03  0.17300000000E+03 0.  1.
         -6    1    1    2    0  503  0.62904446400E+02  0.80011322809E+00  0.10809611245E+03  0.21347453966E+03  0.17300000000E+03 0.  1.
</event>
<event>
 4    1  0.5821292E+000  0.1000000E+03  0.7546771E-02  0.1280296E+00
         21   -1    0    0  503  502  0.00000000000E+00  0.00000000000E+00  0.65744150759E+03  0.65744150759E+03  0.00000000000E+00 0.  1.
         21   -1    0    0  501  503 -0.00000000000E+00 -0.00000000000E+00 -0.53655759073E+02  0.53655759073E+02  0.00000000000E+00 0. -1.
          6    1    1    2  501    0  0.41020125855E+02 -0.26129430347E+01  0.18741345156E+03  0.25834527289E+03  0.17300000000E+03 0. -1.
         -6    1    1    2    0  502 -0.41020125855E+02  0.26129430347E+01  0.41637229695E+03  0.45275199377E+03  0.17300000000E+03 0.  1.
</event>
<event>
 4    1  0.5821292E+000  0.1000000E+03  0.7546771E-02  0.1280296E+00
         21   -1    0    0  501  502  0.00000000000E+00  0.00000000000E+00  0.39611789741E+03  0.39611789741E+03  0.00000000000E+00 0. -1.
         21   -1    0    0  502  503 -0.00000000000E+00 -0.00000000000E+00 -0.14427983514E+03  0.14427983514E+03  0.00000000000E+00 0.  1.
          6    1    1    2  501    0  0.89394078655E+02  0.60277220394E+02  0.26707701270E+03  0.33598180801E+03  0.17300000000E+03 0. -1.
         -6    1    1    2    0  503 -0.89394078655E+02 -0.60277220394E+02 -0.15238950439E+02  0.20441592455E+03  0.17300000000E+03 0.  1.
</event>
<event>
 4    1  0.5821292E+000  0.1000000E+03  0.7546771E-02  0.1280296E+00
         21   -1    0    0  501  502  0.00000000000E+00  0.00000000000E+00  0.77905132175E+02  0.77905132175E+02  0.00000000000E+00 0. -1.
         21   -1    0    0  502  503 -0.00000000000E+00 -0.00000000000E+00 -0.76720976663E+03  0.76720976663E+03  0.00000000000E+00 0.  1.
          6    1    1    2  501    0  0.84310080865E+01 -0.10893280306E+02 -0.47030944989E+02  0.17980727249E+03  0.17300000000E+03 0. -1.
         -6    1    1    2    0  503 -0.84310080865E+01  0.10893280306E+02 -0.64227368947E+03  0.66530762632E+03  0.17300000000E+03 0.  1.
</event>
<event>
 4    1  0.5821292E+000  0.1000000E+03  0.7546771E-02  0.1280296E+00
         21   -1    0    0  501  502  0.00000000000E+00  0.00000000000E+00  0.92051198582E+02  0.92051198582E+02  0.00000000000E+00 0. -1.
         21   -1    0    0  502  503 -0.00000000000E+00 -0.00000000000E+00 -0.61938316695E+03  0.61938316695E+03  0.00000000000E+00 0.  1.
          6    1    1    2  501    0 -0.82942968163E+02  0.87884615685E+02 -0.97223167212E+02  0.23234583251E+03  0.17300000000E+03 0. -1.
         -6    1    1    2    0  503  0.82942968163E+02 -0.87884615685E+02 -0.43010880116E+03  0.47908853302E+03  0.17300000000E+03 0.  1.
</event>
<event>
 4    1  0.5821292E+000  0.1000000E+03  0.7546771E-02  0.1280296E+00
         21   -1    0    0  501  502  0.00000000000E+00  0.00000000000E+00  0.72973441472E+03  0.72973441472E+03  0.00000000000E+00 0. -1.
         21   -1    0    0  502  503 -0.00000000000E+00 -0.00000000000E+00 -0.15235087237E+03  0.15235087237E+03  0.00000000000E+00 0.  1.
          6    1    1    2  501    0 -0.75141665201E+02  0.25804271501E+03  0.41427833982E+03  0.52324741324E+03  0.17300000000E+03 0. -1.
         -6    1    1    2    0  503  0.75141665201E+02 -0.25804271501E+03  0.16310520253E+03  0.35883787385E+03  0.17300000000E+03 0.  1.
</event>
<event>
 4    1  0.5821292E+000  0.1000000E+03  0.7546771E-02  0.1280296E+00
         21   -1    0    0  501  502  0.00000000000E+00  0.00000000000E+00  0.54360827436E+03  0.54360827436E+03  0.00000000000E+00 0. -1.
         21   -1    0    0  502  503 -0.00000000000E+00 -0.00000000000E+00 -0.14088952734E+03  0.14088952734E+03  0.00000000000E+00 0.  1.
          6    1    1    2  501    0  0.47595804773E+02 -0.20116066318E+03  0.27887447311E+03  0.38785428294E+03  0.17300000000E+03 0. -1.
         -6    1    1    2    0  503 -0.47595804773E+02  0.20116066318E+03  0.12384427391E+03  0.29664351876E+03  0.17300000000E+03 0.  1.
</event>
<event>
 4    1  0.5821292E+000  0.1000000E+03  0.7546771E-02  0.1280296E+00
         21   -1    0    0  503  502  0.00000000000E+00  0.00000000000E+00  0.34852355992E+03  0.34852355992E+03  0.00000000000E+00 0.  1.
         21   -1    0    0  501  503 -0.00000000000E+00 -0.00000000000E+00 -0.13710630971E+03  0.13710630971E+03  0.00000000000E+00 0.  1.
          6    1    1    2  501    0  0.79337507058E+02 -0.72724607304E+02  0.17735519925E+02  0.20451615389E+03  0.17300000000E+03 0. -1.
         -6    1    1    2    0  502 -0.79337507058E+02  0.72724607304E+02  0.19368173028E+03  0.28111371574E+03  0.17300000000E+03 0. -1.
</event>
<event>
 4    1  0.5821292E+000  0.1000000E+03  0.7546771E-02  0.1280296E+00
         21   -1    0    0  503  502  0.00000000000E+00  0.00000000000E+00  0.23444971596E+03  0.23444971596E+03  0.00000000000E+00 0.  1.
         21   -1    0    0  501  503 -0.00000000000E+00 -0.00000000000E+00 -0.24349155850E+03  0.24349155850E+03  0.00000000000E+00 0.  1.
          6    1    1    2  501    0 -0.41668135070E+02 -0.43111440017E+02 -0.15804985391E+03  0.24187514560E+03  0.17300000000E+03 0. -1.
         -6    1    1    2    0  502  0.41668135070E+02  0.43111440017E+02  0.14900801137E+03  0.23606612885E+03  0.17300000000E+03 0. -1.
</event>
<event>
 4    1  0.5821292E+000  0.1000000E+03  0.7546771E-02  0.1280296E+00
         21   -1    0    0  503  502  0.00000000000E+00  0.00000000000E+00  0.16266695072E+03  0.16266695072E+03  0.00000000000E+00 0. -1.
         21   -1    0    0  501  503 -0.00000000000E+00 -0.00000000000E+00 -0.15090628625E+04  0.15090628625E+04  0.00000000000E+00 0.  1.
          6    1    1    2  501    0  0.18212142088E+03 -0.38696044289E+01 -0.13936423967E+04  0.14161042743E+04  0.17300000000E+03 0.  1.
         -6    1    1    2    0  502 -0.18212142088E+03  0.38696044289E+01  0.47246484972E+02  0.25562553887E+03  0.17300000000E+03 0. -1.
</event>
<event>
 4    1  0.5821292E+000  0.1000000E+03  0.7546771E-02  0.1280296E+00
         21   -1    0    0  503  502  0.00000000000E+00  0.00000000000E+00  0.58152047859E+03  0.58152047859E+03  0.00000000000E+00 0. -1.
         21   -1    0    0  501  503 -0.00000000000E+00 -0.00000000000E+00 -0.16968037435E+03  0.16968037435E+03  0.00000000000E+00 0.  1.
          6    1    1    2  501    0  0.24242243291E+02 -0.74984641887E+02 -0.93088212729E+02  0.21167143933E+03  0.17300000000E+03 0.  1.
         -6    1    1    2    0  502 -0.24242243291E+02  0.74984641887E+02  0.50492831696E+03  0.53952941361E+03  0.17300000000E+03 0. -1.
</event>
<event>
 4    1  0.5821292E+000  0.1000000E+03  0.7546771E-02  0.1280296E+00
         21   -1    0    0  503  502  0.00000000000E+00  0.00000000000E+00  0.30825836618E+03  0.30825836618E+03  0.00000000000E+00 0. -1.
         21   -1    0    0  501  503 -0.00000000000E+00 -0.00000000000E+00 -0.20364231682E+03  0.20364231682E+03  0.00000000000E+00 0.  1.
          6    1    1    2  501    0  0.42560745647E+02 -0.28285516108E+02 -0.12532012110E+03  0.21964885669E+03  0.17300000000E+03 0.  1.
         -6    1    1    2    0  502 -0.42560745647E+02  0.28285516108E+02  0.22993617046E+03  0.29225182631E+03  0.17300000000E+03 0. -1.
</event>
<event>
 4    1  0.5821292E+000  0.1000000E+03  0.7546771E-02  0.1280296E+00
         21   -1    0    0  503  502  0.00000000000E+00  0.00000000000E+00  0.25143191120E+03  0.25143191120E+03  0.00000000000E+00 0. -1.
         21   -1    0    0  501  503 -0.00000000000E+00 -0.00000000000E+00 -0.42170370349E+03  0.42170370349E+03  0.00000000000E+00 0.  1.
          6    1    1    2  501    0  0.19096678483E+02 -0.24989950898E+03 -0.20427683782E+03  0.36670488705E+03  0.17300000000E+03 0.  1.
         -6    1    1    2    0  502 -0.19096678483E+02  0.24989950898E+03  0.34005045531E+02  0.30643072763E+03  0.17300000000E+03 0. -1.
</event>
<event>
 4    1  0.5821292E+000  0.1000000E+03  0.7546771E-02  0.1280296E+00
         21   -1    0    0  503  502  0.00000000000E+00  0.00000000000E+00  0.98769735087E+03  0.98769735087E+03  0.00000000000E+00 0. -1.
         21   -1    0    0  501  503 -0.00000000000E+00 -0.00000000000E+00 -0.46525032877E+02  0.46525032877E+02  0.00000000000E+00 0.  1.
          6    1    1    2  501    0  0.11621407188E+02 -0.11224730685E+03  0.33223920181E+03  0.39121145462E+03  0.17300000000E+03 0.  1.
         -6    1    1    2    0  502 -0.11621407188E+02  0.11224730685E+03  0.60893311618E+03  0.64301092913E+03  0.17300000000E+03 0. -1.
</event>
<event>
 4    1  0.5821292E+000  0.1000000E+03  0.7546771E-02  0.1280296E+00
         21   -1    0    0  501  502  0.00000000000E+00  0.00000000000E+00  0.64343538901E+03  0.64343538901E+03  0.00000000000E+00 0.  1.
         21   -1    0    0  502  503 -0.00000000000E+00 -0.00000000000E+00 -0.11816321233E+03  0.11816321233E+03  0.00000000000E+00 0. -1.
          6    1    1    2  501    0 -0.26745783323E+02  0.14795324278E+03  0.47432519423E+03  0.52680061584E+03  0.17300000000E+03 0.  1.
         -6    1    1    2    0  503  0.26745783323E+02 -0.14795324278E+03  0.50946982449E+02  0.23479798550E+03  0.17300000000E+03 0. -1.
</event>
<event>
 4    1  0.5821292E+000  0.1000000E+03  0.7546771E-02  0.1280296E+00
         21   -1    0    0  501  502  0.00000000000E+00  0.00000000000E+00  0.35793822976E+03  0.35793822976E+03  0.00000000000E+00 0.  1.
         21   -1    0    0  502  503 -0.00000000000E+00 -0.00000000000E+00 -0.40817408151E+03  0.40817408151E+03  0.00000000000E+00 0. -1.
          6    1    1    2  501    0  0.10710255791E+03 -0.58076770689E+02  0.29388960685E+03  0.36213805409E+03  0.17300000000E+03 0.  1.
         -6    1    1    2    0  503 -0.10710255791E+03  0.58076770689E+02 -0.34412545860E+03  0.40397425718E+03  0.17300000000E+03 0. -1.
</event>
<event>
 4    1  0.5821292E+000  0.1000000E+03  0.7546771E-02  0.1280296E+00
         21   -1    0    0  501  502  0.00000000000E+00  0.00000000000E+00  0.61823484906E+02  0.61823484906E+02  0.00000000000E+00 0.  1.
         21   -1    0    0  502  503 -0.00000000000E+00 -0.00000000000E+00 -0.11352333705E+04  0.11352333705E+04  0.00000000000E+00 0. -1.
          6    1    1    2  501    0 -0.17637402139E+03 -0.27097753165E+01 -0.32071314738E+03  0.40484696022E+03  0.17300000000E+03 0.  1.
         -6    1    1    2    0  503  0.17637402139E+03  0.27097753165E+01 -0.75269673824E+03  0.79220989520E+03  0.17300000000E+03 0. -1.
</event>
<event>
 4    1  0.5821292E+000  0.1000000E+03  0.7546771E-02  0.1280296E+00
         21   -1    0    0  501  502  0.00000000000E+00  0.00000000000E+00  0.13232014316E+03  0.13232014316E+03  0.00000000000E+00 0.  1.
         21   -1    0    0  502  503 -0.00000000000E+00 -0.00000000000E+00 -0.53807028762E+03  0.53807028762E+03  0.00000000000E+00 0. -1.
          6    1    1    2  501    0 -0.16089832559E+02  0.18231755777E+03 -0.92142650741E+02  0.26817502246E+03  0.17300000000E+03 0.  1.
         -6    1    1    2    0  503  0.16089832559E+02 -0.18231755777E+03 -0.31360749372E+03  0.40221540833E+03  0.17300000000E+03 0. -1.
</event>
<event>
 4    1  0.5821292E+000  0.1000000E+03  0.7546771E-02  0.1280296E+00
         21   -1    0    0  501  502  0.00000000000E+00  0.00000000000E+00  0.42254134927E+03  0.42254134927E+03  0.00000000000E+00 0.  1.
         21   -1    0    0  502  503 -0.00000000000E+00 -0.00000000000E+00 -0.23142623315E+03  0.23142623315E+03  0.00000000000E+00 0.  1.
          6    1    1    2  501    0  0.47422207267E+02  0.74006963637E+02  0.35196998813E+03  0.40191761463E+03  0.17300000000E+03 0.  1.
         -6    1    1    2    0  503 -0.47422207267E+02 -0.74006963637E+02 -0.16085487201E+03  0.25204996778E+03  0.17300000000E+03 0.  1.
</event>
<event>
 4    1  0.5821292E+000  0.1000000E+03  0.7546771E-02  0.1280296E+00
         21   -1    0    0  501  502  0.00000000000E+00  0.00000000000E+00  0.73440197720E+03  0.73440197720E+03  0.00000000000E+00 0.  1.
         21   -1    0    0  502  503 -0.00000000000E+00 -0.00000000000E+00 -0.55412217152E+02  0.55412217152E+02  0.00000000000E+00 0.  1.
          6    1    1    2  501    0  0.61693765462E+02 -0.59667913907E+02  0.45363289102E+03  0.49302959390E+03  0.17300000000E+03 0.  1.
         -6    1    1    2    0  503 -0.61693765462E+02  0.59667913907E+02  0.22535686903E+03  0.29678460045E+03  0.17300000000E+03 0.  1.
</event>
<event>
 4    1  0.5821292E+000  0.1000000E+03  0.7546771E-02  0.1280296E+00
         21   -1    0    0  503  502  0.00000000000E+00  0.00000000000E+00  0.54071472910E+03  0.54071472910E+03  0.00000000000E+00 0. -1.
         21   -1    0    0  501  503 -0.00000000000E+00 -0.00000000000E+00 -0.62313361588E+02  0.62313361588E+02  0.00000000000E+00 0. -1.
          6    1    1    2  501    0 -0.16288306513E+02 -0.56554888943E+02  0.21070313695E+03  0.27890603492E+03  0.17300000000E+03 0. -1.
         -6    1    1    2    0  502  0.16288306513E+02  0.56554888943E+02  0.26769823056E+03  0.32412205577E+03  0.17300000000E+03 0. -1.
</event>
<event>
 4    1  0.5821292E+000  0.1000000E+03  0.7546771E-02  0.1280296E+00
         21   -1    0    0  503  502  0.00000000000E+00  0.00000000000E+00  0.86984402030E+02  0.86984402030E+02  0.00000000000E+00 0. -1.
         21   -1    0    0  501  503 -0.00000000000E+00 -0.00000000000E+00 -0.56365911401E+03  0.56365911401E+03  0.00000000000E+00 0. -1.
          6    1    1    2  501    0  0.64242577608E+01 -0.13594658843E+03 -0.27365362333E+03  0.35119517587E+03  0.17300000000E+03 0. -1.
         -6    1    1    2    0  502 -0.64242577608E+01  0.13594658843E+03 -0.20302108865E+03  0.29944834017E+03  0.17300000000E+03 0. -1.
</event>
<event>
 4    1  0.5821292E+000  0.1000000E+03  0.7546771E-02  0.1280296E+00
         21   -1    0    0  501  502  0.00000000000E+00  0.00000000000E+00  0.38991736168E+03  0.38991736168E+03  0.00000000000E+00 0.  1.
         21   -1    0    0  502  503 -0.00000000000E+00 -0.00000000000E+00 -0.17354726491E+03  0.17354726491E+03  0.00000000000E+00 0.  1.
          6    1    1    2  501    0  0.52947148358E+02  0.16006302361E+03  0.21272164076E+03  0.32187430543E+03  0.17300000000E+03 0.  1.
         -6    1    1    2    0  503 -0.52947148358E+02 -0.16006302361E+03  0.36484559977E+01  0.24159032116E+03  0.17300000000E+03 0.  1.
</event>
<event>
 4    1  0.5821292E+000  0.1000000E+03  0.7546771E-02  0.1280296E+00
         21   -1    0    0  503  502  0.00000000000E+00  0.00000000000E+00  0.54226516192E+03  0.54226516192E+03  0.00000000000E+00 0. -1.
         21   -1    0    0  501  503 -0.00000000000E+00 -0.00000000000E+00 -0.12089821610E+03  0.12089821610E+03  0.00000000000E+00 0. -1.
          6    1    1    2  501    0 -0.74541499732E+01 -0.18205471271E+03  0.14684031948E+03  0.29101642942E+03  0.17300000000E+03 0. -1.
         -6    1    1    2    0  502  0.74541499732E+01  0.18205471271E+03  0.27452662635E+03  0.37214694859E+03  0.17300000000E+03 0. -1.
</event>
<event>
 4    1  0.5821292E+000  0.1000000E+03  0.7546771E-02  0.1280296E+00
         21   -1    0    0  503  502  0.00000000000E+00  0.00000000000E+00  0.14832379523E+03  0.14832379523E+03  0.00000000000E+00 0. -1.
         21   -1    0    0  501  503 -0.00000000000E+00 -0.00000000000E+00 -0.40927636967E+03  0.40927636967E+03  0.00000000000E+00 0. -1.
          6    1    1    2  501    0 -0.39139948931E+02  0.14439720203E+02 -0.32329421759E+03  0.36903738598E+03  0.17300000000E+03 0. -1.
         -6    1    1    2    0  502  0.39139948931E+02 -0.14439720203E+02  0.62341643151E+02  0.18856277892E+03  0.17300000000E+03 0. -1.
</event>
<event>
 4    1  0.5821292E+000  0.1000000E+03  0.7546771E-02  0.1280296E+00
         21   -1    0    0  503  502  0.00000000000E+00  0.00000000000E+00  0.18315736564E+03  0.18315736564E+03  0.00000000000E+00 0. -1.
         21   -1    0    0  501  503 -0.00000000000E+00 -0.00000000000E+00 -0.21614859013E+03  0.21614859013E+03  0.00000000000E+00 0. -1.
          6    1    1    2  501    0 -0.16455871284E+02  0.95751273585E+02 -0.15750237779E+01  0.19842021770E+03  0.17300000000E+03 0. -1.
         -6    1    1    2    0  502  0.16455871284E+02 -0.95751273585E+02 -0.31416200705E+02  0.20088573807E+03  0.17300000000E+03 0. -1.
</event>
<event>
 4    1  0.5821292E+000  0.1000000E+03  0.7546771E-02  0.1280296E+00
         21   -1    0    0  501  502  0.00000000000E+00  0.00000000000E+00  0.59153891221E+02  0.59153891221E+02  0.00000000000E+00 0.  1.
         21   -1    0    0  502  503 -0.00000000000E+00 -0.00000000000E+00 -0.76967958521E+03  0.76967958521E+03  0.00000000000E+00 0.  1.
          6    1    1    2  501    0 -0.81657201775E+02 -0.89447999560E+02 -0.29598007346E+03  0.36359599436E+03  0.17300000000E+03 0.  1.
         -6    1    1    2    0  503  0.81657201775E+02  0.89447999560E+02 -0.41454562053E+03  0.46523748208E+03  0.17300000000E+03 0.  1.
</event>
<event>
 4    1  0.5821292E+000  0.1000000E+03  0.7546771E-02  0.1280296E+00
         21   -1    0    0  501  502  0.00000000000E+00  0.00000000000E+00  0.21428055389E+03  0.21428055389E+03  0.00000000000E+00 0.  1.
         21   -1    0    0  502  503 -0.00000000000E+00 -0.00000000000E+00 -0.28088713679E+03  0.28088713679E+03  0.00000000000E+00 0.  1.
          6    1    1    2  501    0 -0.85101019598E+02  0.13788245366E+03  0.30569349066E+02  0.23899213307E+03  0.17300000000E+03 0.  1.
         -6    1    1    2    0  503  0.85101019598E+02 -0.13788245366E+03 -0.97175931972E+02  0.25617555762E+03  0.17300000000E+03 0.  1.
</event>
<event>
 4    1  0.5821292E+000  0.1000000E+03  0.7546771E-02  0.1280296E+00
         21   -1    0    0  503  502  0.00000000000E+00  0.00000000000E+00  0.86195057239E+02  0.86195057239E+02  0.00000000000E+00 0. -1.
         21   -1    0    0  501  503 -0.00000000000E+00 -0.00000000000E+00 -0.42499106277E+03  0.42499106277E+03  0.00000000000E+00 0. -1.
          6    1    1    2  501    0  0.69529837207E+01 -0.66513196024E+02 -0.23247141472E+03  0.29739587739E+03  0.17300000000E+03 0. -1.
         -6    1    1    2    0  502 -0.69529837207E+01  0.66513196024E+02 -0.10632459081E+03  0.21379024262E+03  0.17300000000E+03 0. -1.
</event>
<event>
 4    1  0.5821292E+000  0.1000000E+03  0.7546771E-02  0.1280296E+00
         21   -1    0    0  501  502  0.00000000000E+00  0.00000000000E+00  0.27769594640E+03  0.27769594640E+03  0.00000000000E+00 0.  1.
         21   -1    0    0  502  503 -0.00000000000E+00 -0.00000000000E+00 -0.20268951297E+03  0.20268951297E+03  0.00000000000E+00 0. -1.
          6    1    1    2  501    0 -0.55489561261E+02  0.43152965136E+02  0.18566167853E+03  0.26332589824E+03  0.17300000000E+03 0.  1.
         -6    1    1    2    0  503  0.55489561261E+02 -0.43152965136E+02 -0.11065524510E+03  0.21705956113E+03  0.17300000000E+03 0. -1.
</event>
<event>
 4    1  0.5821292E+000  0.1000000E+03  0.7546771E-02  0.1280296E+00
         21   -1    0    0  503  502  0.00000000000E+00  0.00000000000E+00  0.20090128203E+03  0.20090128203E+03  0.00000000000E+00 0.  1.
         21   -1    0    0  501  503 -0.00000000000E+00 -0.00000000000E+00 -0.19327378181E+03  0.19327378181E+03  0.00000000000E+00 0.  1.
          6    1    1    2  501    0  0.68887858651E+02 -0.40189540372E+02 -0.46586304165E+02  0.19611226367E+03  0.17300000000E+03 0. -1.
         -6    1    1    2    0  502 -0.68887858651E+02  0.40189540372E+02  0.54213804387E+02  0.19806280017E+03  0.17300000000E+03 0. -1.
</event>
<event>
 4    1  0.5821292E+000  0.1000000E+03  0.7546771E-02  0.1280296E+00
         21   -1    0    0  503  502  0.00000000000E+00  0.00000000000E+00  0.27912280732E+03  0.27912280732E+03  0.00000000000E+00 0.  1.
         21   -1    0    0  501  503 -0.00000000000E+00 -0.00000000000E+00 -0.19655616190E+03  0.19655616190E+03  0.00000000000E+00 0.  1.
          6    1    1    2  501    0 -0.50705762306E+02 -0.34396982253E+02 -0.10649365133E+03  0.21218888871E+03  0.17300000000E+03 0. -1.
         -6    1    1    2    0  502  0.50705762306E+02  0.34396982253E+02  0.18906029675E+03  0.26349008051E+03  0.17300000000E+03 0. -1.
</event>
<event>
 4    1  0.5821292E+000  0.1000000E+03  0.7546771E-02  0.1280296E+00
         21   -1    0    0  501  502  0.00000000000E+00  0.00000000000E+00  0.46633763203E+03  0.46633763203E+03  0.00000000000E+00 0. -1.
         21   -1    0    0  502  503 -0.00000000000E+00 -0.00000000000E+00 -0.30998790357E+03  0.30998790357E+03  0.00000000000E+00 0.  1.
          6    1    1    2  501    0  0.37577877993E+02 -0.33647868776E+03  0.78321658909E+02  0.38819233182E+03  0.17300000000E+03 0.  1.
         -6    1    1    2    0  503 -0.37577877993E+02  0.33647868776E+03  0.78028069549E+02  0.38813320377E+03  0.17300000000E+03 0. -1.
</event>
<event>
 4    1  0.5821292E+000  0.1000000E+03  0.7546771E-02  0.1280296E+00
         21   -1    0    0  501  502  0.00000000000E+00  0.00000000000E+00  0.51496120587E+03  0.51496120587E+03  0.00000000000E+00 0. -1.
         21   -1    0    0  502  503 -0.00000000000E+00 -0.00000000000E+00 -0.89525477076E+02  0.89525477076E+02  0.00000000000E+00 0.  1.
          6    1    1    2  501    0  0.98116808995E+01 -0.28312440554E+02  0.38669445422E+03  0.42468749016E+03  0.17300000000E+03 0.  1.
         -6    1    1    2    0  503 -0.98116808995E+01  0.28312440554E+02  0.38741274574E+02  0.17979919279E+03  0.17300000000E+03 0. -1.
</event>
<event>
 4    1  0.5821292E+000  0.1000000E+03  0.7546771E-02  0.1280296E+00
         21   -1    0    0  501  502  0.00000000000E+00  0.00000000000E+00  0.36436720572E+03  0.36436720572E+03  0.00000000000E+00 0. -1.
         21   -1    0    0  502  503 -0.00000000000E+00 -0.00000000000E+00 -0.14011159055E+03  0.14011159055E+03  0.00000000000E+00 0.  1.
          6    1    1    2  501    0 -0.96599481519E+02  0.80749054183E+02  0.31076325378E+02  0.21620963804E+03  0.17300000000E+03 0.  1.
         -6    1    1    2    0  503  0.96599481519E+02 -0.80749054183E+02  0.19317928980E+03  0.28826915823E+03  0.17300000000E+03 0. -1.
</event>
<event>
 4    1  0.5821292E+000  0.1000000E+03  0.7546771E-02  0.1280296E+00
         21   -1    0    0  503  502  0.00000000000E+00  0.00000000000E+00  0.50638442010E+02  0.50638442010E+02  0.00000000000E+00 0.  1.
         21   -1    0    0  501  503 -0.00000000000E+00 -0.00000000000E+00 -0.11552214675E+04  0.11552214675E+04  0.00000000000E+00 0. -1.
          6    1    1    2  501    0 -0.51092851796E+02  0.10126687911E+03 -0.86468455629E+03  0.88908595883E+03  0.17300000000E+03 0. -1.
         -6    1    1    2    0  502  0.51092851796E+02 -0.10126687911E+03 -0.23989846924E+03  0.31677395071E+03  0.17300000000E+03 0.  1.
</event>
<event>
 4    1  0.5821292E+000  0.1000000E+03  0.7546771E-02  0.1280296E+00
         21   -1    0    0  503  502  0.00000000000E+00  0.00000000000E+00  0.83270621710E+03  0.83270621710E+03  0.00000000000E+00 0.  1.
         21   -1    0    0  501  503 -0.00000000000E+00 -0.00000000000E+00 -0.10481225290E+04  0.10481225290E+04  0.00000000000E+00 0. -1.
          6    1    1    2  501    0 -0.42266353917E+03  0.19074540127E+03 -0.90530825815E+03  0.10317656312E+04  0.17300000000E+03 0. -1.
         -6    1    1    2    0  502  0.42266353917E+03 -0.19074540127E+03  0.68989194629E+03  0.84906311486E+03  0.17300000000E+03 0.  1.
</event>
<event>
 4    1  0.5821292E+000  0.1000000E+03  0.7546771E-02  0.1280296E+00
         21   -1    0    0  503  502  0.00000000000E+00  0.00000000000E+00  0.67904275443E+03  0.67904275443E+03  0.00000000000E+00 0.  1.
         21   -1    0    0  501  503 -0.00000000000E+00 -0.00000000000E+00 -0.70076042865E+02  0.70076042865E+02  0.00000000000E+00 0. -1.
          6    1    1    2  501    0 -0.78146286773E+02  0.10640914412E+03  0.27867696441E+03  0.35358110609E+03  0.17300000000E+03 0. -1.
         -6    1    1    2    0  502  0.78146286773E+02 -0.10640914412E+03  0.33028974715E+03  0.39553769120E+03  0.17300000000E+03 0.  1.
</event>
<event>
 4    1  0.5821292E+000  0.1000000E+03  0.7546771E-02  0.1280296E+00
         21   -1    0    0  501  502  0.00000000000E+00  0.00000000000E+00  0.12483663074E+04  0.12483663074E+04  0.00000000000E+00 0.  1.
         21   -1    0    0  502  503 -0.00000000000E+00 -0.00000000000E+00 -0.42462251645E+03  0.42462251645E+03  0.00000000000E+00 0.  1.
          6    1    1    2  501    0  0.17298170382E+03 -0.34035988534E+03  0.10958307409E+04  0.11732610682E+04  0.17300000000E+03 0.  1.
         -6    1    1    2    0  503 -0.17298170382E+03  0.34035988534E+03 -0.27208694998E+03  0.49972775564E+03  0.17300000000E+03 0.  1.
</event>
<event>
 4    1  0.5821292E+000  0.1000000E+03  0.7546771E-02  0.1280296E+00
         21   -1    0    0  501  502  0.00000000000E+00  0.00000000000E+00  0.17986328381E+04  0.17986328381E+04  0.00000000000E+00 0.  1.
         21   -1    0    0  502  503 -0.00000000000E+00 -0.00000000000E+00 -0.36358742356E+02  0.36358742356E+02  0.00000000000E+00 0.  1.
          6    1    1    2  501    0 -0.17515636040E+03 -0.16909871326E+02  0.11218497433E+04  0.11486694654E+04  0.17300000000E+03 0.  1.
         -6    1    1    2    0  503  0.17515636040E+03  0.16909871326E+02  0.64042435250E+03  0.68632211505E+03  0.17300000000E+03 0.  1.
</event>
<event>
 4    1  0.5821292E+000  0.1000000E+03  0.7546771E-02  0.1280296E+00
         21   -1    0    0  503  502  0.00000000000E+00  0.00000000000E+00  0.73051263421E+02  0.73051263421E+02  0.00000000000E+00 0.  1.
         21   -1    0    0  501  503 -0.00000000000E+00 -0.00000000000E+00 -0.91953053354E+03  0.91953053354E+03  0.00000000000E+00 0.  1.
          6    1    1    2  501    0  0.88113190495E+02  0.11436291363E+03 -0.66847058753E+03  0.70542521697E+03  0.17300000000E+03 0.  1.
         -6    1    1    2    0  502 -0.88113190495E+02 -0.11436291363E+03 -0.17800868259E+03  0.28715657999E+03  0.17300000000E+03 0.  1.
</event>
<event>
 4    1  0.5821292E+000  0.1000000E+03  0.7546771E-02  0.1280296E+00
         21   -1    0    0  503  502  0.00000000000E+00  0.00000000000E+00  0.94081669173E+02  0.94081669173E+02  0.00000000000E+00 0.  1.
         21   -1    0    0  501  503 -0.00000000000E+00 -0.00000000000E+00 -0.34359233578E+03  0.34359233578E+03  0.00000000000E+00 0.  1.
          6    1    1    2  501    0  0.13252077780E+02  0.47127330121E+02 -0.12520692225E+03  0.21909444582E+03  0.17300000000E+03 0.  1.
         -6    1    1    2    0  502 -0.13252077780E+02 -0.47127330121E+02 -0.12430374436E+03  0.21857955913E+03  0.17300000000E+03 0.  1.
</event>
<event>
 4    1  0.5821292E+000  0.1000000E+03  0.7546771E-02  0.1280296E+00
         21   -1    0    0  503  502  0.00000000000E+00  0.00000000000E+00  0.12030193377E+03  0.12030193377E+03  0.00000000000E+00 0.  1.
         21   -1    0    0  501  503 -0.00000000000E+00 -0.00000000000E+00 -0.27845831360E+03  0.27845831360E+03  0.00000000000E+00 0.  1.
          6    1    1    2  501    0  0.35718119789E+02  0.34157443146E+02 -0.11565745896E+03  0.21388820168E+03  0.17300000000E+03 0.  1.
         -6    1    1    2    0  502 -0.35718119789E+02 -0.34157443146E+02 -0.42498920872E+02  0.18487204569E+03  0.17300000000E+03 0.  1.
</event>
<event>
 4    1  0.5821292E+000  0.1000000E+03  0.7546771E-02  0.1280296E+00
         21   -1    0    0  503  502  0.00000000000E+00  0.00000000000E+00  0.66526571346E+03  0.66526571346E+03  0.00000000000E+00 0.  1.
         21   -1    0    0  501  503 -0.00000000000E+00 -0.00000000000E+00 -0.21060753241E+03  0.21060753241E+03  0.00000000000E+00 0.  1.
          6    1    1    2  501    0  0.16674346390E+03  0.21871504743E+03  0.98857147243E+01  0.32506365851E+03  0.17300000000E+03 0.  1.
         -6    1    1    2    0  502 -0.16674346390E+03 -0.21871504743E+03  0.44477246633E+03  0.55080958736E+03  0.17300000000E+03 0.  1.
</event>
<event>
 4    1  0.5821292E+000  0.1000000E+03  0.7546771E-02  0.1280296E+00
         21   -1    0    0  501  502  0.00000000000E+00  0.00000000000E+00  0.19805190243E+02  0.19805190243E+02  0.00000000000E+00 0.  1.
         21   -1    0    0  502  503 -0.00000000000E+00 -0.00000000000E+00 -0.15696805093E+04  0.15696805093E+04  0.00000000000E+00 0.  1.
          6    1    1    2  501    0 -0.19038155899E+02  0.12080325367E+02 -0.65998114327E+03  0.68265107860E+03  0.17300000000E+03 0.  1.
         -6    1    1    2    0  503  0.19038155899E+02 -0.12080325367E+02 -0.88989417581E+03  0.90683462096E+03  0.17300000000E+03 0.  1.
</event>
<event>
 4    1  0.5821292E+000  0.1000000E+03  0.7546771E-02  0.1280296E+00
         21   -1    0    0  503  502  0.00000000000E+00  0.00000000000E+00  0.25684794312E+03  0.25684794312E+03  0.00000000000E+00 0.  1.
         21   -1    0    0  501  503 -0.00000000000E+00 -0.00000000000E+00 -0.28236370207E+03  0.28236370207E+03  0.00000000000E+00 0. -1.
          6    1    1    2  501    0 -0.65909706890E+02  0.11197000356E+03 -0.17329408738E+03  0.27720247452E+03  0.17300000000E+03 0. -1.
         -6    1    1    2    0  502  0.65909706890E+02 -0.11197000356E+03  0.14777832842E+03  0.26200917066E+03  0.17300000000E+03 0.  1.
</event>
<event>
 4    1  0.5821292E+000  0.1000000E+03  0.7546771E-02  0.1280296E+00
         21   -1    0    0  503  502  0.00000000000E+00  0.00000000000E+00  0.28120492183E+03  0.28120492183E+03  0.00000000000E+00 0.  1.
         21   -1    0    0  501  503 -0.00000000000E+00 -0.00000000000E+00 -0.66114516064E+03  0.66114516064E+03  0.00000000000E+00 0. -1.
          6    1    1    2  501    0  0.48846671397E+02 -0.18362777916E+03 -0.56832680771E+03  0.62372230916E+03  0.17300000000E+03 0. -1.
         -6    1    1    2    0  502 -0.48846671397E+02  0.18362777916E+03  0.18838656890E+03  0.31862777331E+03  0.17300000000E+03 0.  1.
</event>
<event>
 4    1  0.5821292E+000  0.1000000E+03  0.7546771E-02  0.1280296E+00
         21   -1    0    0  501  502  0.00000000000E+00  0.00000000000E+00  0.30277219095E+02  0.30277219095E+02  0.00000000000E+00 0.  1.
         21   -1    0    0  502  503 -0.00000000000E+00 -0.00000000000E+00 -0.22954911357E+04  0.22954911357E+04  0.00000000000E+00 0. -1.
          6    1    1    2  501    0 -0.79012621569E+02  0.17779457346E+03 -0.13154487253E+04  0.13409654185E+04  0.17300000000E+03 0. -1.
         -6    1    1    2    0  503  0.79012621569E+02 -0.17779457346E+03 -0.94976519129E+03  0.98480293628E+03  0.17300000000E+03 0.  1.
</event>
<event>
 4    1  0.5821292E+000  0.1000000E+03  0.7546771E-02  0.1280296E+00
         21   -1    0    0  501  502  0.00000000000E+00  0.00000000000E+00  0.14848698209E+03  0.14848698209E+03  0.00000000000E+00 0. -1.
         21   -1    0    0  502  503 -0.00000000000E+00 -0.00000000000E+00 -0.26759916443E+03  0.26759916443E+03  0.00000000000E+00 0. -1.
          6    1    1    2  501    0  0.47060760935E+02  0.63871395643E+02  0.22920645969E+01  0.19033792045E+03  0.17300000000E+03 0. -1.
         -6    1    1    2    0  503 -0.47060760935E+02 -0.63871395643E+02 -0.12140424694E+03  0.22574822607E+03  0.17300000000E+03 0. -1.
</event>
<event>
 4    1  0.5821292E+000  0.1000000E+03  0.7546771E-02  0.1280296E+00
         21   -1    0    0  501  502  0.00000000000E+00  0.00000000000E+00  0.10084894872E+03  0.10084894872E+03  0.00000000000E+00 0. -1.
         21   -1    0    0  502  503 -0.00000000000E+00 -0.00000000000E+00 -0.80046957133E+03  0.80046957133E+03  0.00000000000E+00 0. -1.
          6    1    1    2  501    0 -0.21469178260E+03 -0.65071817332E+02 -0.38421927671E+03  0.47736815512E+03  0.17300000000E+03 0. -1.
         -6    1    1    2    0  503  0.21469178260E+03  0.65071817332E+02 -0.31540134590E+03  0.42395036493E+03  0.17300000000E+03 0. -1.
</event>
<event>
 4    1  0.5821292E+000  0.1000000E+03  0.7546771E-02  0.1280296E+00
         21   -1    0    0  501  502  0.00000000000E+00  0.00000000000E+00  0.32688893130E+02  0.32688893130E+02  0.00000000000E+00 0. -1.
         21   -1    0    0  502  503 -0.00000000000E+00 -0.00000000000E+00 -0.11799814843E+04  0.11799814843E+04  0.00000000000E+00 0. -1.
          6    1    1    2  501    0 -0.86679173265E+02 -0.23922827903E+02 -0.64655484435E+03  0.67531307371E+03  0.17300000000E+03 0. -1.
         -6    1    1    2    0  503  0.86679173265E+02  0.23922827903E+02 -0.50073774686E+03  0.53735730376E+03  0.17300000000E+03 0. -1.
</event>
<event>
 4    1  0.5821292E+000  0.1000000E+03  0.7546771E-02  0.1280296E+00
         21   -1    0    0  501  502  0.00000000000E+00  0.00000000000E+00  0.83758620819E+03  0.83758620819E+03  0.00000000000E+00 0. -1.
         21   -1    0    0  502  503 -0.00000000000E+00 -0.00000000000E+00 -0.63989760033E+02  0.63989760033E+02  0.00000000000E+00 0. -1.
          6    1    1    2  501    0 -0.30174393448E+02  0.12009588917E+03  0.20903573478E+03  0.29825904015E+03  0.17300000000E+03 0. -1.
         -6    1    1    2    0  503  0.30174393448E+02 -0.12009588917E+03  0.56456071337E+03  0.60331692807E+03  0.17300000000E+03 0. -1.
</event>
<event>
 4    1  0.5821292E+000  0.1000000E+03  0.7546771E-02  0.1280296E+00
         21   -1    0    0  501  502  0.00000000000E+00  0.00000000000E+00  0.17457431926E+03  0.17457431926E+03  0.00000000000E+00 0.  1.
         21   -1    0    0  502  503 -0.00000000000E+00 -0.00000000000E+00 -0.27297052570E+03  0.27297052570E+03  0.00000000000E+00 0. -1.
          6    1    1    2  501    0  0.50990674855E+02  0.88893891071E+02  0.37918595072E+02  0.20461914046E+03  0.17300000000E+03 0.  1.
         -6    1    1    2    0  503 -0.50990674855E+02 -0.88893891071E+02 -0.13631480152E+03  0.24292570450E+03  0.17300000000E+03 0. -1.
</event>
<event>
 4    1  0.5821292E+000  0.1000000E+03  0.7546771E-02  0.1280296E+00
         21   -1    0    0  501  502  0.00000000000E+00  0.00000000000E+00  0.33410226289E+03  0.33410226289E+03  0.00000000000E+00 0.  1.
         21   -1    0    0  502  503 -0.00000000000E+00 -0.00000000000E+00 -0.10223364273E+03  0.10223364273E+03  0.00000000000E+00 0. -1.
          6    1    1    2  501    0  0.52284154486E+02 -0.14433324426E+02  0.15825928812E+03  0.24065941897E+03  0.17300000000E+03 0.  1.
         -6    1    1    2    0  503 -0.52284154486E+02  0.14433324426E+02  0.73609332044E+02  0.19567648665E+03  0.17300000000E+03 0. -1.
</event>
<event>
 4    1  0.5821292E+000  0.1000000E+03  0.7546771E-02  0.1280296E+00
         21   -1    0    0  501  502  0.00000000000E+00  0.00000000000E+00  0.17695841783E+03  0.17695841783E+03  0.00000000000E+00 0.  1.
         21   -1    0    0  502  503 -0.00000000000E+00 -0.00000000000E+00 -0.21047026890E+03  0.21047026890E+03  0.00000000000E+00 0. -1.
          6    1    1    2  501    0  0.32262821466E+02 -0.70245110804E+02 -0.53502674535E+02  0.19689286788E+03  0.17300000000E+03 0.  1.
         -6    1    1    2    0  503 -0.32262821466E+02  0.70245110804E+02  0.19990823458E+02  0.19053581885E+03  0.17300000000E+03 0. -1.
</event>
<event>
 4    1  0.5821292E+000  0.1000000E+03  0.7546771E-02  0.1280296E+00
         21   -1    0    0  501  502  0.00000000000E+00  0.00000000000E+00  0.11873700885E+04  0.11873700885E+04  0.00000000000E+00 0.  1.
         21   -1    0    0  502  503 -0.00000000000E+00 -0.00000000000E+00 -0.34990542204E+02  0.34990542204E+02  0.00000000000E+00 0. -1.
          6    1    1    2  501    0  0.31207894192E+02  0.91237784604E+02  0.72059873666E+03  0.74732175485E+03  0.17300000000E+03 0.  1.
         -6    1    1    2    0  503 -0.31207894192E+02 -0.91237784604E+02  0.43178080961E+03  0.47503887583E+03  0.17300000000E+03 0. -1.
</event>
<event>
 4    1  0.5821292E+000  0.1000000E+03  0.7546771E-02  0.1280296E+00
         21   -1    0    0  503  502  0.00000000000E+00  0.00000000000E+00  0.71162570863E+03  0.71162570863E+03  0.00000000000E+00 0.  1.
         21   -1    0    0  501  503 -0.00000000000E+00 -0.00000000000E+00 -0.97467765524E+02  0.97467765524E+02  0.00000000000E+00 0. -1.
          6    1    1    2  501    0  0.90311244891E+02 -0.17187128126E+03  0.24308325663E+03  0.35596956039E+03  0.17300000000E+03 0. -1.
         -6    1    1    2    0  502 -0.90311244891E+02  0.17187128126E+03  0.37107468648E+03  0.45312391376E+03  0.17300000000E+03 0.  1.
</event>
<event>
 4    1  0.5821292E+000  0.1000000E+03  0.7546771E-02  0.1280296E+00
         21   -1    0    0  503  502  0.00000000000E+00  0.00000000000E+00  0.41009151361E+03  0.41009151361E+03  0.00000000000E+00 0. -1.
         21   -1    0    0  501  503 -0.00000000000E+00 -0.00000000000E+00 -0.79879821863E+02  0.79879821863E+02  0.00000000000E+00 0. -1.
          6    1    1    2  501    0  0.40378502968E+02 -0.15824609858E+02  0.12342556504E+03  0.21689562440E+03  0.17300000000E+03 0. -1.
         -6    1    1    2    0  502 -0.40378502968E+02  0.15824609858E+02  0.20678612671E+03  0.27307571107E+03  0.17300000000E+03 0. -1.
</event>
<event>
 4    1  0.5821292E+000  0.1000000E+03  0.7546771E-02  0.1280296E+00
         21   -1    0    0  503  502  0.00000000000E+00  0.00000000000E+00  0.50025736491E+03  0.50025736491E+03  0.00000000000E+00 0. -1.
         21   -1    0    0  501  503 -0.00000000000E+00 -0.00000000000E+00 -0.33232607101E+03  0.33232607101E+03  0.00000000000E+00 0. -1.
          6    1    1    2  501    0  0.56282488511E+02 -0.23976874278E+03 -0.19687503036E+03  0.35964641818E+03  0.17300000000E+03 0. -1.
         -6    1    1    2    0  502 -0.56282488511E+02  0.23976874278E+03  0.36480632426E+03  0.47293701774E+03  0.17300000000E+03 0. -1.
</event>
<event>
 4    1  0.5821292E+000  0.1000000E+03  0.7546771E-02  0.1280296E+00
         21   -1    0    0  503  502  0.00000000000E+00  0.00000000000E+00  0.22316262535E+03  0.22316262535E+03  0.00000000000E+00 0. -1.
         21   -1    0    0  501  503 -0.00000000000E+00 -0.00000000000E+00 -0.74611119499E+03  0.74611119499E+03  0.00000000000E+00 0. -1.
          6    1    1    2  501    0 -0.29556754778E+03  0.12505967823E+03 -0.43847566720E+02  0.36722160547E+03  0.17300000000E+03 0. -1.
         -6    1    1    2    0  502  0.29556754778E+03 -0.12505967823E+03 -0.47910100292E+03  0.60205221486E+03  0.17300000000E+03 0. -1.
</event>
<event>
 4    1  0.5821292E+000  0.1000000E+03  0.7546771E-02  0.1280296E+00
         21   -1    0    0  503  502  0.00000000000E+00  0.00000000000E+00  0.11070805291E+03  0.11070805291E+03  0.00000000000E+00 0. -1.
         21   -1    0    0  501  503 -0.00000000000E+00 -0.00000000000E+00 -0.50056776767E+03  0.50056776767E+03  0.00000000000E+00 0. -1.
          6    1    1    2  501    0  0.91714456918E+02 -0.86619895587E+02 -0.32196322249E+03  0.38665729600E+03  0.17300000000E+03 0. -1.
         -6    1    1    2    0  502 -0.91714456918E+02  0.86619895587E+02 -0.67896492273E+02  0.22461852458E+03  0.17300000000E+03 0. -1.
</event>
<event>
 4    1  0.5821292E+000  0.1000000E+03  0.7546771E-02  0.1280296E+00
         21   -1    0    0  501  502  0.00000000000E+00  0.00000000000E+00  0.61359532625E+02  0.61359532625E+02  0.00000000000E+00 0. -1.
         21   -1    0    0  502  503 -0.00000000000E+00 -0.00000000000E+00 -0.66267985414E+03  0.66267985414E+03  0.00000000000E+00 0.  1.
          6    1    1    2  501    0 -0.39185443694E+02  0.95850630426E+02 -0.30630434025E+03  0.36670722819E+03  0.17300000000E+03 0. -1.
         -6    1    1    2    0  503  0.39185443694E+02 -0.95850630426E+02 -0.29501598127E+03  0.35733215858E+03  0.17300000000E+03 0.  1.
</event>
<event>
 4    1  0.5821292E+000  0.1000000E+03  0.7546771E-02  0.1280296E+00
         21   -1    0    0  501  502  0.00000000000E+00  0.00000000000E+00  0.18980962547E+03  0.18980962547E+03  0.00000000000E+00 0. -1.
         21   -1    0    0  502  503 -0.00000000000E+00 -0.00000000000E+00 -0.16604482938E+03  0.16604482938E+03  0.00000000000E+00 0.  1.
          6    1    1    2  501    0  0.23932779934E+02  0.31633303904E+02  0.80708634236E+01  0.17767268419E+03  0.17300000000E+03 0. -1.
         -6    1    1    2    0  503 -0.23932779934E+02 -0.31633303904E+02  0.15693932665E+02  0.17818177065E+03  0.17300000000E+03 0.  1.
</event>
<event>
 4    1  0.5821292E+000  0.1000000E+03  0.7546771E-02  0.1280296E+00
         21   -1    0    0  501  502  0.00000000000E+00  0.00000000000E+00  0.91794276889E+03  0.91794276889E+03  0.00000000000E+00 0.  1.
         21   -1    0    0  502  503 -0.00000000000E+00 -0.00000000000E+00 -0.47970530689E+02  0.47970530689E+02  0.00000000000E+00 0.  1.
          6    1    1    2  501    0  0.31116195516E+02  0.71273120470E+02  0.22839903026E+03  0.29688919204E+03  0.17300000000E+03 0.  1.
         -6    1    1    2    0  503 -0.31116195516E+02 -0.71273120470E+02  0.64157320795E+03  0.66902410755E+03  0.17300000000E+03 0.  1.
</event>
<event>
 4    1  0.5821292E+000  0.1000000E+03  0.7546771E-02  0.1280296E+00
         21   -1    0    0  501  502  0.00000000000E+00  0.00000000000E+00  0.38098272501E+02  0.38098272501E+02  0.00000000000E+00 0.  1.
         21   -1    0    0  502  503 -0.00000000000E+00 -0.00000000000E+00 -0.15767919385E+04  0.15767919385E+04  0.00000000000E+00 0.  1.
          6    1    1    2  501    0  0.11523255040E+03  0.71215556210E+01 -0.34215896033E+03  0.40041355042E+03  0.17300000000E+03 0.  1.
         -6    1    1    2    0  503 -0.11523255040E+03 -0.71215556210E+01 -0.11965347057E+04  0.12144766606E+04  0.17300000000E+03 0.  1.
</event>
<event>
 4    1  0.5821292E+000  0.1000000E+03  0.7546771E-02  0.1280296E+00
         21   -1    0    0  501  502  0.00000000000E+00  0.00000000000E+00  0.70755950563E+02  0.70755950563E+02  0.00000000000E+00 0. -1.
         21   -1    0    0  502  503 -0.00000000000E+00 -0.00000000000E+00 -0.20131665804E+04  0.20131665804E+04  0.00000000000E+00 0. -1.
          6    1    1    2  501    0 -0.12938953575E+03  0.10685800969E+03 -0.16937280003E+03  0.29457839634E+03  0.17300000000E+03 0. -1.
         -6    1    1    2    0  503  0.12938953575E+03 -0.10685800969E+03 -0.17730378298E+04  0.17893441346E+04  0.17300000000E+03 0. -1.
</event>
<event>
 4    1  0.5821292E+000  0.1000000E+03  0.7546771E-02  0.1280296E+00
         21   -1    0    0  501  502  0.00000000000E+00  0.00000000000E+00  0.14104968593E+04  0.14104968593E+04  0.00000000000E+00 0. -1.
         21   -1    0    0  502  503 -0.00000000000E+00 -0.00000000000E+00 -0.27571948505E+02  0.27571948505E+02  0.00000000000E+00 0. -1.
          6    1    1    2  501    0 -0.18147182984E+02  0.92465680931E+02  0.72446416504E+03  0.75077063663E+03  0.17300000000E+03 0. -1.
         -6    1    1    2    0  503  0.18147182984E+02 -0.92465680931E+02  0.65846074577E+03  0.68729817119E+03  0.17300000000E+03 0. -1.
</event>
<event>
 4    1  0.5821292E+000  0.1000000E+03  0.7546771E-02  0.1280296E+00
         21   -1    0    0  503  502  0.00000000000E+00  0.00000000000E+00  0.64947250867E+02  0.64947250867E+02  0.00000000000E+00 0. -1.
         21   -1    0    0  501  503 -0.00000000000E+00 -0.00000000000E+00 -0.47788466292E+04  0.47788466292E+04  0.00000000000E+00 0. -1.
          6    1    1    2  501    0  0.17704776329E+03  0.25433107337E+03 -0.42238037558E+04  0.42386881665E+04  0.17300000000E+03 0. -1.
         -6    1    1    2    0  502 -0.17704776329E+03 -0.25433107337E+03 -0.49009562258E+03  0.60510571360E+03  0.17300000000E+03 0. -1.
</event>
<event>
 4    1  0.5821292E+000  0.1000000E+03  0.7546771E-02  0.1280296E+00
         21   -1    0    0  503  502  0.00000000000E+00  0.00000000000E+00  0.11717127209E+04  0.11717127209E+04  0.00000000000E+00 0. -1.
         21   -1    0    0  501  503 -0.00000000000E+00 -0.00000000000E+00 -0.44008137059E+02  0.44008137059E+02  0.00000000000E+00 0. -1.
          6    1    1    2  501    0  0.10805695124E+03 -0.83565426553E+02  0.41781186407E+03  0.47239309794E+03  0.17300000000E+03 0. -1.
         -6    1    1    2    0  502 -0.10805695124E+03  0.83565426553E+02  0.70989271975E+03  0.74332775999E+03  0.17300000000E+03 0. -1.
</event>
<event>
 4    1  0.5821292E+000  0.1000000E+03  0.7546771E-02  0.1280296E+00
         21   -1    0    0  503  502  0.00000000000E+00  0.00000000000E+00  0.60494412400E+03  0.60494412400E+03  0.00000000000E+00 0. -1.
         21   -1    0    0  501  503 -0.00000000000E+00 -0.00000000000E+00 -0.69603221895E+02  0.69603221895E+02  0.00000000000E+00 0. -1.
          6    1    1    2  501    0 -0.42779834741E+02  0.46713429458E+02  0.41618977048E+03  0.45514303664E+03  0.17300000000E+03 0. -1.
         -6    1    1    2    0  502  0.42779834741E+02 -0.46713429458E+02  0.11915113163E+03  0.21940430926E+03  0.17300000000E+03 0. -1.
</event>
<event>
 4    1  0.5821292E+000  0.1000000E+03  0.7546771E-02  0.1280296E+00
         21   -1    0    0  503  502  0.00000000000E+00  0.00000000000E+00  0.27424985815E+03  0.27424985815E+03  0.00000000000E+00 0. -1.
         21   -1    0    0  501  503 -0.00000000000E+00 -0.00000000000E+00 -0.21129054046E+03  0.21129054046E+03  0.00000000000E+00 0. -1.
          6    1    1    2  501    0  0.10504873812E+02  0.79562704055E+02 -0.11666155765E+03  0.22356094311E+03  0.17300000000E+03 0. -1.
         -6    1    1    2    0  502 -0.10504873812E+02 -0.79562704055E+02  0.17962087534E+03  0.26197945551E+03  0.17300000000E+03 0. -1.
</event>
<event>
 4    1  0.5821292E+000  0.1000000E+03  0.7546771E-02  0.1280296E+00
         21   -1    0    0  501  502  0.00000000000E+00  0.00000000000E+00  0.30323050022E+03  0.30323050022E+03  0.00000000000E+00 0. -1.
         21   -1    0    0  502  503 -0.00000000000E+00 -0.00000000000E+00 -0.21034986583E+03  0.21034986583E+03  0.00000000000E+00 0. -1.
          6    1    1    2  501    0 -0.13508318765E+03  0.15807649883E+02  0.17244603335E+03  0.27957822483E+03  0.17300000000E+03 0.  1.
         -6    1    1    2    0  503  0.13508318765E+03 -0.15807649883E+02 -0.79565398961E+02  0.23400214122E+03  0.17300000000E+03 0.  1.
</event>
<event>
 4    1  0.5821292E+000  0.1000000E+03  0.7546771E-02  0.1280296E+00
         21   -1    0    0  503  502  0.00000000000E+00  0.00000000000E+00  0.14340213978E+03  0.14340213978E+03  0.00000000000E+00 0.  1.
         21   -1    0    0  501  503 -0.00000000000E+00 -0.00000000000E+00 -0.26605737356E+03  0.26605737356E+03  0.00000000000E+00 0.  1.
          6    1    1    2  501    0 -0.23240766066E+02  0.74162882288E+02 -0.11030943453E+03  0.21940245592E+03  0.17300000000E+03 0.  1.
         -6    1    1    2    0  502  0.23240766066E+02 -0.74162882288E+02 -0.12345799248E+02  0.19005705742E+03  0.17300000000E+03 0.  1.
</event>
<event>
 4    1  0.5821292E+000  0.1000000E+03  0.7546771E-02  0.1280296E+00
         21   -1    0    0  501  502  0.00000000000E+00  0.00000000000E+00  0.29139462666E+03  0.29139462666E+03  0.00000000000E+00 0. -1.
         21   -1    0    0  502  503 -0.00000000000E+00 -0.00000000000E+00 -0.15521203934E+03  0.15521203934E+03  0.00000000000E+00 0.  1.
          6    1    1    2  501    0  0.12664069921E+02 -0.41621477279E+02  0.18966650617E+03  0.26037494042E+03  0.17300000000E+03 0.  1.
         -6    1    1    2    0  503 -0.12664069921E+02  0.41621477279E+02 -0.53483918845E+02  0.18623172558E+03  0.17300000000E+03 0. -1.
</event>
<event>
 4    1  0.5821292E+000  0.1000000E+03  0.7546771E-02  0.1280296E+00
         21   -1    0    0  501  502  0.00000000000E+00  0.00000000000E+00  0.46904380093E+03  0.46904380093E+03  0.00000000000E+00 0.  1.
         21   -1    0    0  502  503 -0.00000000000E+00 -0.00000000000E+00 -0.88452929478E+02  0.88452929478E+02  0.00000000000E+00 0.  1.
          6    1    1    2  501    0  0.40898804844E+02 -0.93821460192E+02  0.23535511742E+03  0.30950962816E+03  0.17300000000E+03 0. -1.
         -6    1    1    2    0  503 -0.40898804844E+02  0.93821460192E+02  0.14523575403E+03  0.24798710224E+03  0.17300000000E+03 0. -1.
</event>
<event>
 4    1  0.5821292E+000  0.1000000E+03  0.7546771E-02  0.1280296E+00
         21   -1    0    0  501  502  0.00000000000E+00  0.00000000000E+00  0.13978085722E+04  0.13978085722E+04  0.00000000000E+00 0.  1.
         21   -1    0    0  502  503 -0.00000000000E+00 -0.00000000000E+00 -0.11917918335E+03  0.11917918335E+03  0.00000000000E+00 0.  1.
          6    1    1    2  501    0 -0.99309786346E+02  0.98812431022E+02  0.12750622637E+04  0.12943489122E+04  0.17300000000E+03 0. -1.
         -6    1    1    2    0  503  0.99309786346E+02 -0.98812431022E+02  0.35671251423E+01  0.22263884336E+03  0.17300000000E+03 0. -1.
</event>
<event>
 4    1  0.5821292E+000  0.1000000E+03  0.7546771E-02  0.1280296E+00
         21   -1    0    0  503  502  0.00000000000E+00  0.00000000000E+00  0.91089131778E+02  0.91089131778E+02  0.00000000000E+00 0. -1.
         21   -1    0    0  501  503 -0.00000000000E+00 -0.00000000000E+00 -0.49240324960E+03  0.49240324960E+03  0.00000000000E+00 0.  1.
          6    1    1    2  501    0 -0.97636498535E+02 -0.83403039313E+01 -0.10016917109E+03  0.22263267809E+03  0.17300000000E+03 0.  1.
         -6    1    1    2    0  502  0.97636498535E+02  0.83403039313E+01 -0.30114494674E+03  0.36085970329E+03  0.17300000000E+03 0. -1.
</event>
<event>
 4    1  0.5821292E+000  0.1000000E+03  0.7546771E-02  0.1280296E+00
         21   -1    0    0  503  502  0.00000000000E+00  0.00000000000E+00  0.65072237489E+03  0.65072237489E+03  0.00000000000E+00 0. -1.
         21   -1    0    0  501  503 -0.00000000000E+00 -0.00000000000E+00 -0.17063572691E+03  0.17063572691E+03  0.00000000000E+00 0.  1.
          6    1    1    2  501    0 -0.11397576753E+03 -0.15078941146E+03 -0.22499318520E+02  0.25722196937E+03  0.17300000000E+03 0.  1.
         -6    1    1    2    0  502  0.11397576753E+03  0.15078941146E+03  0.50258596650E+03  0.56413613243E+03  0.17300000000E+03 0. -1.
</event>
<event>
 4    1  0.5821292E+000  0.1000000E+03  0.7546771E-02  0.1280296E+00
         21   -1    0    0  503  502  0.00000000000E+00  0.00000000000E+00  0.31880316246E+03  0.31880316246E+03  0.00000000000E+00 0.  1.
         21   -1    0    0  501  503 -0.00000000000E+00 -0.00000000000E+00 -0.10267861269E+03  0.10267861269E+03  0.00000000000E+00 0.  1.
          6    1    1    2  501    0  0.24671760610E+02  0.32738518598E+02  0.14712634076E+03  0.23077189282E+03  0.17300000000E+03 0.  1.
         -6    1    1    2    0  502 -0.24671760610E+02 -0.32738518598E+02  0.68998209003E+02  0.19070988233E+03  0.17300000000E+03 0.  1.
</event>
<event>
 4    1  0.5821292E+000  0.1000000E+03  0.7546771E-02  0.1280296E+00
         21   -1    0    0  503  502  0.00000000000E+00  0.00000000000E+00  0.20058422408E+03  0.20058422408E+03  0.00000000000E+00 0. -1.
         21   -1    0    0  501  503 -0.00000000000E+00 -0.00000000000E+00 -0.31448172928E+03  0.31448172928E+03  0.00000000000E+00 0. -1.
          6    1    1    2  501    0  0.79972020350E+01 -0.75339985468E+02 -0.22671417220E+03  0.29507352394E+03  0.17300000000E+03 0. -1.
         -6    1    1    2    0  502 -0.79972020350E+01  0.75339985468E+02  0.11281666700E+03  0.21999242942E+03  0.17300000000E+03 0. -1.
</event>
<event>
 4    1  0.5821292E+000  0.1000000E+03  0.7546771E-02  0.1280296E+00
         21   -1    0    0  503  502  0.00000000000E+00  0.00000000000E+00  0.11714195089E+03  0.11714195089E+03  0.00000000000E+00 0. -1.
         21   -1    0    0  501  503 -0.00000000000E+00 -0.00000000000E+00 -0.13290535919E+04  0.13290535919E+04  0.00000000000E+00 0. -1.
          6    1    1    2  501    0 -0.74926629801E+02  0.98986480361E+02 -0.12147199338E+04  0.12332420041E+04  0.17300000000E+03 0. -1.
         -6    1    1    2    0  502  0.74926629801E+02 -0.98986480361E+02  0.28082927329E+01  0.21295353873E+03  0.17300000000E+03 0. -1.
</event>
<event>
 4    1  0.5821292E+000  0.1000000E+03  0.7546771E-02  0.1280296E+00
         21   -1    0    0  503  502  0.00000000000E+00  0.00000000000E+00  0.16586596652E+03  0.16586596652E+03  0.00000000000E+00 0. -1.
         21   -1    0    0  501  503 -0.00000000000E+00 -0.00000000000E+00 -0.25201163048E+03  0.25201163048E+03  0.00000000000E+00 0. -1.
          6    1    1    2  501    0 -0.13291585248E+01 -0.66550221064E+02 -0.13122436701E+03  0.22711127907E+03  0.17300000000E+03 0. -1.
         -6    1    1    2    0  502  0.13291585248E+01  0.66550221064E+02  0.45078703052E+02  0.19076631793E+03  0.17300000000E+03 0. -1.
</event>
<event>
 4    1  0.5821292E+000  0.1000000E+03  0.7546771E-02  0.1280296E+00
         21   -1    0    0  501  502  0.00000000000E+00  0.00000000000E+00  0.54660255246E+03  0.54660255246E+03  0.00000000000E+00 0. -1.
         21   -1    0    0  502  503 -0.00000000000E+00 -0.00000000000E+00 -0.22230402117E+03  0.22230402117E+03  0.00000000000E+00 0. -1.
          6    1    1    2  501    0  0.31653579679E+02 -0.13607108750E+03  0.45822189573E+03  0.50932661003E+03  0.17300000000E+03 0. -1.
         -6    1    1    2    0  503 -0.31653579679E+02  0.13607108750E+03 -0.13392336444E+03  0.25957996360E+03  0.17300000000E+03 0. -1.
</event>
<event>
 4    1  0.5821292E+000  0.1000000E+03  0.7546771E-02  0.1280296E+00
         21   -1    0    0  501  502  0.00000000000E+00  0.00000000000E+00  0.49883472139E+03  0.49883472139E+03  0.00000000000E+00 0. -1.
         21   -1    0    0  502  503 -0.00000000000E+00 -0.00000000000E+00 -0.17327988983E+03  0.17327988983E+03  0.00000000000E+00 0. -1.
          6    1    1    2  501    0  0.19716768142E+03  0.13161962070E+03  0.18290938744E+03  0.34580870892E+03  0.17300000000E+03 0. -1.
         -6    1    1    2    0  503 -0.19716768142E+03 -0.13161962070E+03  0.14264544411E+03  0.32630590230E+03  0.17300000000E+03 0. -1.
</event>
<event>
 4    1  0.5821292E+000  0.1000000E+03  0.7546771E-02  0.1280296E+00
         21   -1    0    0  501  502  0.00000000000E+00  0.00000000000E+00  0.51571631183E+02  0.51571631183E+02  0.00000000000E+00 0. -1.
         21   -1    0    0  502  503 -0.00000000000E+00 -0.00000000000E+00 -0.78648771459E+03  0.78648771459E+03  0.00000000000E+00 0. -1.
          6    1    1    2  501    0  0.70595730730E+02  0.71821585150E+02 -0.41348436669E+03  0.45939135689E+03  0.17300000000E+03 0. -1.
         -6    1    1    2    0  503 -0.70595730730E+02 -0.71821585150E+02 -0.32143171672E+03  0.37866798888E+03  0.17300000000E+03 0. -1.
</event>
<event>
 4    1  0.5821292E+000  0.1000000E+03  0.7546771E-02  0.1280296E+00
         21   -1    0    0  501  502  0.00000000000E+00  0.00000000000E+00  0.27136869378E+03  0.27136869378E+03  0.00000000000E+00 0. -1.
         21   -1    0    0  502  503 -0.00000000000E+00 -0.00000000000E+00 -0.19720604514E+03  0.19720604514E+03  0.00000000000E+00 0. -1.
          6    1    1    2  501    0 -0.44758481688E+02  0.15647875690E+02  0.18502264952E+03  0.25770246125E+03  0.17300000000E+03 0. -1.
         -6    1    1    2    0  503  0.44758481688E+02 -0.15647875690E+02 -0.11086000088E+03  0.21087227768E+03  0.17300000000E+03 0. -1.
</event>
<event>
 4    1  0.5821292E+000  0.1000000E+03  0.7546771E-02  0.1280296E+00
         21   -1    0    0  503  502  0.00000000000E+00  0.00000000000E+00  0.15141190035E+03  0.15141190035E+03  0.00000000000E+00 0. -1.
         21   -1    0    0  501  503 -0.00000000000E+00 -0.00000000000E+00 -0.14786824308E+04  0.14786824308E+04  0.00000000000E+00 0. -1.
          6    1    1    2  501    0 -0.26546097755E+03 -0.19747793174E+03 -0.11643361405E+04  0.12227324778E+04  0.17300000000E+03 0. -1.
         -6    1    1    2    0  502  0.26546097755E+03  0.19747793174E+03 -0.16293438990E+03  0.40736185332E+03  0.17300000000E+03 0. -1.
</event>
<event>
 4    1  0.5821292E+000  0.1000000E+03  0.7546771E-02  0.1280296E+00
         21   -1    0    0  503  502  0.00000000000E+00  0.00000000000E+00  0.40868946839E+03  0.40868946839E+03  0.00000000000E+00 0. -1.
         21   -1    0    0  501  503 -0.00000000000E+00 -0.00000000000E+00 -0.95692195061E+02  0.95692195061E+02  0.00000000000E+00 0. -1.
          6    1    1    2  501    0  0.41667993187E+02 -0.59607979538E+02  0.76961045973E+02  0.20283327015E+03  0.17300000000E+03 0. -1.
         -6    1    1    2    0  502 -0.41667993187E+02  0.59607979538E+02  0.23603622736E+03  0.30154839331E+03  0.17300000000E+03 0. -1.
</event>
<event>
 4    1  0.5821292E+000  0.1000000E+03  0.7546771E-02  0.1280296E+00
         21   -1    0    0  503  502  0.00000000000E+00  0.00000000000E+00  0.25177089603E+03  0.25177089603E+03  0.00000000000E+00 0. -1.
         21   -1    0    0  501  503 -0.00000000000E+00 -0.00000000000E+00 -0.42512234012E+03  0.42512234012E+03  0.00000000000E+00 0. -1.
          6    1    1    2  501    0 -0.13860537705E+02  0.23811455782E+03 -0.23375590773E+03  0.37611365510E+03  0.17300000000E+03 0. -1.
         -6    1    1    2    0  502  0.13860537705E+02 -0.23811455782E+03  0.60404463642E+02  0.30077958106E+03  0.17300000000E+03 0. -1.
</event>
<event>
 4    1  0.5821292E+000  0.1000000E+03  0.7546771E-02  0.1280296E+00
         21   -1    0    0  501  502  0.00000000000E+00  0.00000000000E+00  0.81928031208E+03  0.81928031208E+03  0.00000000000E+00 0.  1.
         21   -1    0    0  502  503 -0.00000000000E+00 -0.00000000000E+00 -0.53895766153E+02  0.53895766153E+02  0.00000000000E+00 0.  1.
          6    1    1    2  501    0 -0.47182376645E+02 -0.57493903374E+02  0.57642964528E+03  0.60640898868E+03  0.17300000000E+03 0.  1.
         -6    1    1    2    0  503  0.47182376645E+02  0.57493903374E+02  0.18895490064E+03  0.26676708955E+03  0.17300000000E+03 0.  1.
</event>
<event>
 4    1  0.5821292E+000  0.1000000E+03  0.7546771E-02  0.1280296E+00
         21   -1    0    0  501  502  0.00000000000E+00  0.00000000000E+00  0.65451023310E+03  0.65451023310E+03  0.00000000000E+00 0.  1.
         21   -1    0    0  502  503 -0.00000000000E+00 -0.00000000000E+00 -0.60719631838E+02  0.60719631838E+02  0.00000000000E+00 0.  1.
          6    1    1    2  501    0 -0.38373134618E+02 -0.87635593702E+02  0.34298524262E+03  0.39587923840E+03  0.17300000000E+03 0.  1.
         -6    1    1    2    0  503  0.38373134618E+02  0.87635593702E+02  0.25080535865E+03  0.31935062654E+03  0.17300000000E+03 0.  1.
</event>
<event>
 4    1  0.5821292E+000  0.1000000E+03  0.7546771E-02  0.1280296E+00
         21   -1    0    0  503  502  0.00000000000E+00  0.00000000000E+00  0.41983195737E+03  0.41983195737E+03  0.00000000000E+00 0.  1.
         21   -1    0    0  501  503 -0.00000000000E+00 -0.00000000000E+00 -0.13307023287E+03  0.13307023287E+03  0.00000000000E+00 0.  1.
          6    1    1    2  501    0  0.10154226464E+03  0.12416348902E+03  0.16035963125E+03  0.28525710306E+03  0.17300000000E+03 0.  1.
         -6    1    1    2    0  502 -0.10154226464E+03 -0.12416348902E+03  0.12640209325E+03  0.26764508718E+03  0.17300000000E+03 0.  1.
</event>
<event>
 4    1  0.5821292E+000  0.1000000E+03  0.7546771E-02  0.1280296E+00
         21   -1    0    0  503  502  0.00000000000E+00  0.00000000000E+00  0.10373497140E+03  0.10373497140E+03  0.00000000000E+00 0.  1.
         21   -1    0    0  501  503 -0.00000000000E+00 -0.00000000000E+00 -0.48423555377E+03  0.48423555377E+03  0.00000000000E+00 0.  1.
          6    1    1    2  501    0  0.11773751368E+03 -0.55063337441E+01 -0.29527416042E+03  0.36195064808E+03  0.17300000000E+03 0.  1.
         -6    1    1    2    0  502 -0.11773751368E+03  0.55063337441E+01 -0.85226421950E+02  0.22601987708E+03  0.17300000000E+03 0.  1.
</event>
<event>
 4    1  0.5821292E+000  0.1000000E+03  0.7546771E-02  0.1280296E+00
         21   -1    0    0  501  502  0.00000000000E+00  0.00000000000E+00  0.23865415804E+03  0.23865415804E+03  0.00000000000E+00 0. -1.
         21   -1    0    0  502  503 -0.00000000000E+00 -0.00000000000E+00 -0.40220347423E+03  0.40220347423E+03  0.00000000000E+00 0.  1.
          6    1    1    2  501    0 -0.95928621282E+02  0.11967820437E+03  0.13152442674E+03  0.26599407476E+03  0.17300000000E+03 0. -1.
         -6    1    1    2    0  503  0.95928621282E+02 -0.11967820437E+03 -0.29507374293E+03  0.37486355751E+03  0.17300000000E+03 0.  1.
</event>
<event>
 4    1  0.5821292E+000  0.1000000E+03  0.7546771E-02  0.1280296E+00
         21   -1    0    0  501  502  0.00000000000E+00  0.00000000000E+00  0.20056755863E+04  0.20056755863E+04  0.00000000000E+00 0. -1.
         21   -1    0    0  502  503 -0.00000000000E+00 -0.00000000000E+00 -0.15218246798E+02  0.15218246798E+02  0.00000000000E+00 0.  1.
          6    1    1    2  501    0 -0.32101275811E+01  0.18550458453E+02  0.90573327505E+03  0.92229940364E+03  0.17300000000E+03 0. -1.
         -6    1    1    2    0  503  0.32101275811E+01 -0.18550458453E+02  0.10847240644E+04  0.10985944294E+04  0.17300000000E+03 0.  1.
</event>
<event>
 4    1  0.5821292E+000  0.1000000E+03  0.7546771E-02  0.1280296E+00
         21   -1    0    0  501  502  0.00000000000E+00  0.00000000000E+00  0.46074706761E+03  0.46074706761E+03  0.00000000000E+00 0. -1.
         21   -1    0    0  502  503 -0.00000000000E+00 -0.00000000000E+00 -0.80199402849E+02  0.80199402849E+02  0.00000000000E+00 0.  1.
          6    1    1    2  501    0  0.32951279693E+02  0.21909756783E+02  0.29421248199E+03  0.34359250405E+03  0.17300000000E+03 0. -1.
         -6    1    1    2    0  503 -0.32951279693E+02 -0.21909756783E+02  0.86335182768E+02  0.19735396641E+03  0.17300000000E+03 0.  1.
</event>
<event>
 4    1  0.5821292E+000  0.1000000E+03  0.7546771E-02  0.1280296E+00
         21   -1    0    0  503  502  0.00000000000E+00  0.00000000000E+00  0.30561460211E+03  0.30561460211E+03  0.00000000000E+00 0.  1.
         21   -1    0    0  501  503 -0.00000000000E+00 -0.00000000000E+00 -0.17052922007E+03  0.17052922007E+03  0.00000000000E+00 0.  1.
          6    1    1    2  501    0 -0.63579625536E+02  0.13131157917E+03  0.98865008885E+02  0.24695827500E+03  0.17300000000E+03 0.  1.
         -6    1    1    2    0  502  0.63579625536E+02 -0.13131157917E+03  0.36220373153E+02  0.22918554719E+03  0.17300000000E+03 0.  1.
</event>
<event>
 4    1  0.5821292E+000  0.1000000E+03  0.7546771E-02  0.1280296E+00
         21   -1    0    0  503  502  0.00000000000E+00  0.00000000000E+00  0.42670805980E+02  0.42670805980E+02  0.00000000000E+00 0.  1.
         21   -1    0    0  501  503 -0.00000000000E+00 -0.00000000000E+00 -0.21029414328E+04  0.21029414328E+04  0.00000000000E+00 0.  1.
          6    1    1    2  501    0  0.12657096885E+03  0.47450365246E+02 -0.17599981971E+04  0.17736387459E+04  0.17300000000E+03 0.  1.
         -6    1    1    2    0  502 -0.12657096885E+03 -0.47450365246E+02 -0.30027242968E+03  0.37197349279E+03  0.17300000000E+03 0.  1.
</event>
<event>
 4    1  0.5821292E+000  0.1000000E+03  0.7546771E-02  0.1280296E+00
         21   -1    0    0  501  502  0.00000000000E+00  0.00000000000E+00  0.19048861041E+03  0.19048861041E+03  0.00000000000E+00 0.  1.
         21   -1    0    0  502  503 -0.00000000000E+00 -0.00000000000E+00 -0.27887948586E+03  0.27887948586E+03  0.00000000000E+00 0. -1.
          6    1    1    2  501    0 -0.53837479508E+02  0.53913699308E+02  0.90075072022E+02  0.20939837576E+03  0.17300000000E+03 0. -1.
         -6    1    1    2    0  503  0.53837479508E+02 -0.53913699308E+02 -0.17846594748E+03  0.25996972051E+03  0.17300000000E+03 0.  1.
</event>
<event>
 4    1  0.5821292E+000  0.1000000E+03  0.7546771E-02  0.1280296E+00
         21   -1    0    0  501  502  0.00000000000E+00  0.00000000000E+00  0.83341399398E+02  0.83341399398E+02  0.00000000000E+00 0.  1.
         21   -1    0    0  502  503 -0.00000000000E+00 -0.00000000000E+00 -0.12037753997E+04  0.12037753997E+04  0.00000000000E+00 0. -1.
          6    1    1    2  501    0  0.10777627997E+03  0.24205403157E+03 -0.53225120619E+03  0.61921420140E+03  0.17300000000E+03 0. -1.
         -6    1    1    2    0  503 -0.10777627997E+03 -0.24205403157E+03 -0.58818279410E+03  0.66790259769E+03  0.17300000000E+03 0.  1.
</event>
<event>
 4    1  0.5821292E+000  0.1000000E+03  0.7546771E-02  0.1280296E+00
         21   -1    0    0  503  502  0.00000000000E+00  0.00000000000E+00  0.89313767505E+02  0.89313767505E+02  0.00000000000E+00 0.  1.
         21   -1    0    0  501  503 -0.00000000000E+00 -0.00000000000E+00 -0.81046689852E+03  0.81046689852E+03  0.00000000000E+00 0.  1.
          6    1    1    2  501    0 -0.15050399010E+03  0.22594896026E+02 -0.59285065384E+03  0.63605257497E+03  0.17300000000E+03 0.  1.
         -6    1    1    2    0  502  0.15050399010E+03 -0.22594896026E+02 -0.12830247717E+03  0.26372809106E+03  0.17300000000E+03 0.  1.
</event>
<event>
 4    1  0.5821292E+000  0.1000000E+03  0.7546771E-02  0.1280296E+00
         21   -1    0    0  501  502  0.00000000000E+00  0.00000000000E+00  0.50570758630E+03  0.50570758630E+03  0.00000000000E+00 0. -1.
         21   -1    0    0  502  503 -0.00000000000E+00 -0.00000000000E+00 -0.13468853997E+03  0.13468853997E+03  0.00000000000E+00 0. -1.
          6    1    1    2  501    0  0.38737562333E+02 -0.13355146005E+03  0.35394348274E+03  0.41778173750E+03  0.17300000000E+03 0. -1.
         -6    1    1    2    0  503 -0.38737562333E+02  0.13355146005E+03  0.17075563594E+02  0.22261438878E+03  0.17300000000E+03 0. -1.
</event>
<event>
 4    1  0.5821292E+000  0.1000000E+03  0.7546771E-02  0.1280296E+00
         21   -1    0    0  501  502  0.00000000000E+00  0.00000000000E+00  0.32017575501E+03  0.32017575501E+03  0.00000000000E+00 0.  1.
         21   -1    0    0  502  503 -0.00000000000E+00 -0.00000000000E+00 -0.26070006680E+03  0.26070006680E+03  0.00000000000E+00 0.  1.
          6    1    1    2  501    0  0.19670807186E+03  0.67646162961E+02  0.13161810592E+03  0.30086939808E+03  0.17300000000E+03 0.  1.
         -6    1    1    2    0  503 -0.19670807186E+03 -0.67646162961E+02 -0.72142417708E+02  0.28000642373E+03  0.17300000000E+03 0.  1.
</event>
<event>
 4    1  0.5821292E+000  0.1000000E+03  0.7546771E-02  0.1280296E+00
         21   -1    0    0  501  502  0.00000000000E+00  0.00000000000E+00  0.54432913860E+03  0.54432913860E+03  0.00000000000E+00 0.  1.
         21   -1    0    0  502  503 -0.00000000000E+00 -0.00000000000E+00 -0.83282739486E+02  0.83282739486E+02  0.00000000000E+00 0.  1.
          6    1    1    2  501    0  0.26268557738E+02 -0.80899452516E+02  0.36373712595E+03  0.41166546532E+03  0.17300000000E+03 0.  1.
         -6    1    1    2    0  503 -0.26268557738E+02  0.80899452516E+02  0.97309273165E+02  0.21594641277E+03  0.17300000000E+03 0.  1.
</event>
<event>
 4    1  0.5821292E+000  0.1000000E+03  0.7546771E-02  0.1280296E+00
         21   -1    0    0  501  502  0.00000000000E+00  0.00000000000E+00  0.27675991755E+03  0.27675991755E+03  0.00000000000E+00 0.  1.
         21   -1    0    0  502  503 -0.00000000000E+00 -0.00000000000E+00 -0.16151383916E+03  0.16151383916E+03  0.00000000000E+00 0.  1.
          6    1    1    2  501    0 -0.79829926432E+02 -0.53932555607E+02  0.13442033573E+03  0.23933107689E+03  0.17300000000E+03 0.  1.
         -6    1    1    2    0  503  0.79829926432E+02  0.53932555607E+02 -0.19174257339E+02  0.19894267982E+03  0.17300000000E+03 0.  1.
</event>
<event>
 4    1  0.5821292E+000  0.1000000E+03  0.7546771E-02  0.1280296E+00
         21   -1    0    0  501  502  0.00000000000E+00  0.00000000000E+00  0.29895966114E+03  0.29895966114E+03  0.00000000000E+00 0.  1.
         21   -1    0    0  502  503 -0.00000000000E+00 -0.00000000000E+00 -0.16788874060E+03  0.16788874060E+03  0.00000000000E+00 0.  1.
          6    1    1    2  501    0  0.64535691697E+02 -0.35739811404E+02  0.19237778782E+03  0.26903606239E+03  0.17300000000E+03 0.  1.
         -6    1    1    2    0  503 -0.64535691697E+02  0.35739811404E+02 -0.61306867283E+02  0.19781233935E+03  0.17300000000E+03 0.  1.
</event>
<event>
 4    1  0.5821292E+000  0.1000000E+03  0.7546771E-02  0.1280296E+00
         21   -1    0    0  501  502  0.00000000000E+00  0.00000000000E+00  0.27750083282E+03  0.27750083282E+03  0.00000000000E+00 0.  1.
         21   -1    0    0  502  503 -0.00000000000E+00 -0.00000000000E+00 -0.63084177977E+03  0.63084177977E+03  0.00000000000E+00 0.  1.
          6    1    1    2  501    0 -0.67469578825E+02 -0.11969865623E+03  0.20902396135E+03  0.30413800944E+03  0.17300000000E+03 0.  1.
         -6    1    1    2    0  503  0.67469578825E+02  0.11969865623E+03 -0.56236490830E+03  0.60420460314E+03  0.17300000000E+03 0.  1.
</event>
<event>
 4    1  0.5821292E+000  0.1000000E+03  0.7546771E-02  0.1280296E+00
         21   -1    0    0  501  502  0.00000000000E+00  0.00000000000E+00  0.47090133472E+03  0.47090133472E+03  0.00000000000E+00 0. -1.
         21   -1    0    0  502  503 -0.00000000000E+00 -0.00000000000E+00 -0.11480069484E+03  0.11480069484E+03  0.00000000000E+00 0. -1.
          6    1    1    2  501    0  0.32376352383E+02 -0.80543120610E+01  0.36914142842E+03  0.40903238785E+03  0.17300000000E+03 0. -1.
         -6    1    1    2    0  503 -0.32376352383E+02  0.80543120610E+01 -0.13040788544E+02  0.17666964171E+03  0.17300000000E+03 0. -1.
</event>
<event>
 4    1  0.5821292E+000  0.1000000E+03  0.7546771E-02  0.1280296E+00
         21   -1    0    0  501  502  0.00000000000E+00  0.00000000000E+00  0.22503757297E+03  0.22503757297E+03  0.00000000000E+00 0. -1.
         21   -1    0    0  502  503 -0.00000000000E+00 -0.00000000000E+00 -0.16772115800E+03  0.16772115800E+03  0.00000000000E+00 0. -1.
          6    1    1    2  501    0 -0.20941429012E+02  0.67575548680E+02  0.82237118370E+02  0.20419829056E+03  0.17300000000E+03 0. -1.
         -6    1    1    2    0  503  0.20941429012E+02 -0.67575548680E+02 -0.24920703397E+02  0.18856044041E+03  0.17300000000E+03 0. -1.
</event>
<event>
 4    1  0.5821292E+000  0.1000000E+03  0.7546771E-02  0.1280296E+00
         21   -1    0    0  503  502  0.00000000000E+00  0.00000000000E+00  0.46906268734E+02  0.46906268734E+02  0.00000000000E+00 0.  1.
         21   -1    0    0  501  503 -0.00000000000E+00 -0.00000000000E+00 -0.13294619650E+04  0.13294619650E+04  0.00000000000E+00 0.  1.
          6    1    1    2  501    0 -0.98927712863E+02  0.12577673843E+03 -0.86893981151E+03  0.90032876014E+03  0.17300000000E+03 0.  1.
         -6    1    1    2    0  502  0.98927712863E+02 -0.12577673843E+03 -0.41361588476E+03  0.47603947360E+03  0.17300000000E+03 0.  1.
</event>
<event>
 4    1  0.5821292E+000  0.1000000E+03  0.7546771E-02  0.1280296E+00
         21   -1    0    0  503  502  0.00000000000E+00  0.00000000000E+00  0.23969736630E+03  0.23969736630E+03  0.00000000000E+00 0. -1.
         21   -1    0    0  501  503 -0.00000000000E+00 -0.00000000000E+00 -0.21669078372E+03  0.21669078372E+03  0.00000000000E+00 0. -1.
          6    1    1    2  501    0 -0.76723380781E+02  0.11884815922E+03 -0.33273298250E+02  0.22593688164E+03  0.17300000000E+03 0. -1.
         -6    1    1    2    0  502  0.76723380781E+02 -0.11884815922E+03  0.56279880830E+02  0.23045126837E+03  0.17300000000E+03 0. -1.
</event>
<event>
 4    1  0.5821292E+000  0.1000000E+03  0.7546771E-02  0.1280296E+00
         21   -1    0    0  501  502  0.00000000000E+00  0.00000000000E+00  0.14712417154E+03  0.14712417154E+03  0.00000000000E+00 0.  1.
         21   -1    0    0  502  503 -0.00000000000E+00 -0.00000000000E+00 -0.21131020802E+03  0.21131020802E+03  0.00000000000E+00 0.  1.
          6    1    1    2  501    0 -0.53211787695E+01 -0.33090248857E+02 -0.38238829158E+02  0.18031774058E+03  0.17300000000E+03 0.  1.
         -6    1    1    2    0  503  0.53211787695E+01  0.33090248857E+02 -0.25947207315E+02  0.17811663898E+03  0.17300000000E+03 0.  1.
</event>
<event>
 4    1  0.5821292E+000  0.1000000E+03  0.7546771E-02  0.1280296E+00
         21   -1    0    0  501  502  0.00000000000E+00  0.00000000000E+00  0.78147670167E+03  0.78147670167E+03  0.00000000000E+00 0.  1.
         21   -1    0    0  502  503 -0.00000000000E+00 -0.00000000000E+00 -0.75134566094E+02  0.75134566094E+02  0.00000000000E+00 0.  1.
          6    1    1    2  501    0  0.15877939676E+03 -0.45896177114E+02  0.42093039636E+03  0.48417843249E+03  0.17300000000E+03 0.  1.
         -6    1    1    2    0  503 -0.15877939676E+03  0.45896177114E+02  0.28541173922E+03  0.37243283528E+03  0.17300000000E+03 0.  1.
</event>
<event>
 4    1  0.5821292E+000  0.1000000E+03  0.7546771E-02  0.1280296E+00
         21   -1    0    0  501  502  0.00000000000E+00  0.00000000000E+00  0.47325542431E+03  0.47325542431E+03  0.00000000000E+00 0.  1.
         21   -1    0    0  502  503 -0.00000000000E+00 -0.00000000000E+00 -0.84345623707E+02  0.84345623707E+02  0.00000000000E+00 0.  1.
          6    1    1    2  501    0  0.27675972397E+02 -0.38900756556E+02  0.31697512214E+03  0.36425465867E+03  0.17300000000E+03 0.  1.
         -6    1    1    2    0  503 -0.27675972397E+02  0.38900756556E+02  0.71934678472E+02  0.19334638935E+03  0.17300000000E+03 0.  1.
</event>
<event>
 4    1  0.5821292E+000  0.1000000E+03  0.7546771E-02  0.1280296E+00
         21   -1    0    0  503  502  0.00000000000E+00  0.00000000000E+00  0.82699361682E+02  0.82699361682E+02  0.00000000000E+00 0. -1.
         21   -1    0    0  501  503 -0.00000000000E+00 -0.00000000000E+00 -0.57376802810E+03  0.57376802810E+03  0.00000000000E+00 0. -1.
          6    1    1    2  501    0  0.13990877905E+02 -0.13152606855E+03 -0.23779235537E+03  0.32244232917E+03  0.17300000000E+03 0. -1.
         -6    1    1    2    0  502 -0.13990877905E+02  0.13152606855E+03 -0.25327631105E+03  0.33402506061E+03  0.17300000000E+03 0. -1.
</event>
<event>
 4    1  0.5821292E+000  0.1000000E+03  0.7546771E-02  0.1280296E+00
         21   -1    0    0  503  502  0.00000000000E+00  0.00000000000E+00  0.22611659519E+04  0.22611659519E+04  0.00000000000E+00 0. -1.
         21   -1    0    0  501  503 -0.00000000000E+00 -0.00000000000E+00 -0.64489975896E+02  0.64489975896E+02  0.00000000000E+00 0. -1.
          6    1    1    2  501    0  0.16620748449E+02  0.13095441699E+03  0.14279285450E+03  0.26027698305E+03  0.17300000000E+03 0. -1.
         -6    1    1    2    0  502 -0.16620748449E+02 -0.13095441699E+03  0.20538831215E+04  0.20653789448E+04  0.17300000000E+03 0. -1.
</event>
<event>
 4    1  0.5821292E+000  0.1000000E+03  0.7546771E-02  0.1280296E+00
         21   -1    0    0  503  502  0.00000000000E+00  0.00000000000E+00  0.11344641656E+04  0.11344641656E+04  0.00000000000E+00 0. -1.
         21   -1    0    0  501  503 -0.00000000000E+00 -0.00000000000E+00 -0.64156885886E+02  0.64156885886E+02  0.00000000000E+00 0. -1.
          6    1    1    2  501    0 -0.85316756521E+01 -0.81409395069E+02  0.11276181000E+03  0.22213623047E+03  0.17300000000E+03 0. -1.
         -6    1    1    2    0  502  0.85316756521E+01  0.81409395069E+02  0.95754546967E+03  0.97648482096E+03  0.17300000000E+03 0. -1.
</event>
<event>
 4    1  0.5821292E+000  0.1000000E+03  0.7546771E-02  0.1280296E+00
         21   -1    0    0  503  502  0.00000000000E+00  0.00000000000E+00  0.39510616726E+03  0.39510616726E+03  0.00000000000E+00 0.  1.
         21   -1    0    0  501  503 -0.00000000000E+00 -0.00000000000E+00 -0.86699871843E+02  0.86699871843E+02  0.00000000000E+00 0.  1.
          6    1    1    2  501    0 -0.10068035417E+01  0.65746591700E+02  0.15646736023E+03  0.24235235256E+03  0.17300000000E+03 0. -1.
         -6    1    1    2    0  502  0.10068035417E+01 -0.65746591700E+02  0.15193893519E+03  0.23945368655E+03  0.17300000000E+03 0. -1.
</event>
<event>
 4    1  0.5821292E+000  0.1000000E+03  0.7546771E-02  0.1280296E+00
         21   -1    0    0  503  502  0.00000000000E+00  0.00000000000E+00  0.28677997072E+03  0.28677997072E+03  0.00000000000E+00 0.  1.
         21   -1    0    0  501  503 -0.00000000000E+00 -0.00000000000E+00 -0.19858580379E+03  0.19858580379E+03  0.00000000000E+00 0.  1.
          6    1    1    2  501    0  0.10942531979E+03  0.78105733721E+02 -0.52092925426E+02  0.22520452733E+03  0.17300000000E+03 0. -1.
         -6    1    1    2    0  502 -0.10942531979E+03 -0.78105733721E+02  0.14028709236E+03  0.26016124718E+03  0.17300000000E+03 0. -1.
</event>
<event>
 4    1  0.5821292E+000  0.1000000E+03  0.7546771E-02  0.1280296E+00
         21   -1    0    0  503  502  0.00000000000E+00  0.00000000000E+00  0.53635321376E+03  0.53635321376E+03  0.00000000000E+00 0. -1.
         21   -1    0    0  501  503 -0.00000000000E+00 -0.00000000000E+00 -0.21078652237E+03  0.21078652237E+03  0.00000000000E+00 0. -1.
          6    1    1    2  501    0  0.24888103138E+03  0.14937044139E+02  0.19252797080E+01  0.30347584710E+03  0.17300000000E+03 0. -1.
         -6    1    1    2    0  502 -0.24888103138E+03 -0.14937044139E+02  0.32364141168E+03  0.44366388903E+03  0.17300000000E+03 0. -1.
</event>
<event>
 4    1  0.5821292E+000  0.1000000E+03  0.7546771E-02  0.1280296E+00
         21   -1    0    0  503  502  0.00000000000E+00  0.00000000000E+00  0.25228301288E+03  0.25228301288E+03  0.00000000000E+00 0. -1.
         21   -1    0    0  501  503 -0.00000000000E+00 -0.00000000000E+00 -0.22096697963E+03  0.22096697963E+03  0.00000000000E+00 0. -1.
          6    1    1    2  501    0 -0.41697191452E+02 -0.10039856703E+03 -0.10291792514E+03  0.22877855527E+03  0.17300000000E+03 0. -1.
         -6    1    1    2    0  502  0.41697191452E+02  0.10039856703E+03  0.13423395839E+03  0.24447143723E+03  0.17300000000E+03 0. -1.
</event>
<event>
 4    1  0.5821292E+000  0.1000000E+03  0.7546771E-02  0.1280296E+00
         21   -1    0    0  503  502  0.00000000000E+00  0.00000000000E+00  0.32988511931E+03  0.32988511931E+03  0.00000000000E+00 0.  1.
         21   -1    0    0  501  503 -0.00000000000E+00 -0.00000000000E+00 -0.21169257588E+03  0.21169257588E+03  0.00000000000E+00 0.  1.
          6    1    1    2  501    0  0.11964047738E+02 -0.56671416473E+02 -0.13680755467E+03  0.22803529310E+03  0.17300000000E+03 0.  1.
         -6    1    1    2    0  502 -0.11964047738E+02  0.56671416473E+02  0.25500009810E+03  0.31354240210E+03  0.17300000000E+03 0.  1.
</event>
<event>
 4    1  0.5821292E+000  0.1000000E+03  0.7546771E-02  0.1280296E+00
         21   -1    0    0  501  502  0.00000000000E+00  0.00000000000E+00  0.10171307049E+03  0.10171307049E+03  0.00000000000E+00 0. -1.
         21   -1    0    0  502  503 -0.00000000000E+00 -0.00000000000E+00 -0.66091923040E+03  0.66091923040E+03  0.00000000000E+00 0. -1.
          6    1    1    2  501    0 -0.11158132863E+03  0.22098206842E+01 -0.47811801506E+02  0.21135336422E+03  0.17300000000E+03 0. -1.
         -6    1    1    2    0  503  0.11158132863E+03 -0.22098206842E+01 -0.51139435841E+03  0.55127893667E+03  0.17300000000E+03 0. -1.
</event>
<event>
 4    1  0.5821292E+000  0.1000000E+03  0.7546771E-02  0.1280296E+00
         21   -1    0    0  503  502  0.00000000000E+00  0.00000000000E+00  0.88481821630E+03  0.88481821630E+03  0.00000000000E+00 0. -1.
         21   -1    0    0  501  503 -0.00000000000E+00 -0.00000000000E+00 -0.69596795680E+02  0.69596795680E+02  0.00000000000E+00 0.  1.
          6    1    1    2  501    0 -0.88831209181E+02  0.15388705625E+03  0.42473568348E+03  0.49183494247E+03  0.17300000000E+03 0. -1.
         -6    1    1    2    0  502  0.88831209181E+02 -0.15388705625E+03  0.39048573713E+03  0.46258006951E+03  0.17300000000E+03 0.  1.
</event>
<event>
 4    1  0.5821292E+000  0.1000000E+03  0.7546771E-02  0.1280296E+00
         21   -1    0    0  503  502  0.00000000000E+00  0.00000000000E+00  0.79692980509E+03  0.79692980509E+03  0.00000000000E+00 0.  1.
         21   -1    0    0  501  503 -0.00000000000E+00 -0.00000000000E+00 -0.99495564177E+02  0.99495564177E+02  0.00000000000E+00 0.  1.
          6    1    1    2  501    0 -0.17205803430E+02 -0.74671309557E+02  0.16770972111E+02  0.18995291429E+03  0.17300000000E+03 0.  1.
         -6    1    1    2    0  502  0.17205803430E+02  0.74671309557E+02  0.68066326881E+03  0.70647245498E+03  0.17300000000E+03 0.  1.
</event>
<event>
 4    1  0.5821292E+000  0.1000000E+03  0.7546771E-02  0.1280296E+00
         21   -1    0    0  503  502  0.00000000000E+00  0.00000000000E+00  0.13073457517E+02  0.13073457517E+02  0.00000000000E+00 0.  1.
         21   -1    0    0  501  503 -0.00000000000E+00 -0.00000000000E+00 -0.33184928268E+04  0.33184928268E+04  0.00000000000E+00 0.  1.
          6    1    1    2  501    0 -0.36287503522E+02  0.39281659265E+02 -0.24759190603E+04  0.24825317772E+04  0.17300000000E+03 0.  1.
         -6    1    1    2    0  502  0.36287503522E+02 -0.39281659265E+02 -0.82950030899E+03  0.84903450712E+03  0.17300000000E+03 0.  1.
</event>
<event>
 4    1  0.5821292E+000  0.1000000E+03  0.7546771E-02  0.1280296E+00
         21   -1    0    0  503  502  0.00000000000E+00  0.00000000000E+00  0.25577526510E+04  0.25577526510E+04  0.00000000000E+00 0.  1.
         21   -1    0    0  501  503 -0.00000000000E+00 -0.00000000000E+00 -0.25349738892E+02  0.25349738892E+02  0.00000000000E+00 0.  1.
          6    1    1    2  501    0 -0.10188226113E+03 -0.34226913559E+02  0.49100394863E+03  0.53156876725E+03  0.17300000000E+03 0.  1.
         -6    1    1    2    0  502  0.10188226113E+03  0.34226913559E+02  0.20413989635E+04  0.20515336227E+04  0.17300000000E+03 0.  1.
</event>
<event>
 4    1  0.5821292E+000  0.1000000E+03  0.7546771E-02  0.1280296E+00
         21   -1    0    0  503  502  0.00000000000E+00  0.00000000000E+00  0.20080048880E+03  0.20080048880E+03  0.00000000000E+00 0. -1.
         21   -1    0    0  501  503 -0.00000000000E+00 -0.00000000000E+00 -0.23997596052E+03  0.23997596052E+03  0.00000000000E+00 0. -1.
          6    1    1    2  501    0  0.42463336227E+02  0.87733983967E+02 -0.11354323568E+03  0.22873883194E+03  0.17300000000E+03 0. -1.
         -6    1    1    2    0  502 -0.42463336227E+02 -0.87733983967E+02  0.74367763962E+02  0.21203761738E+03  0.17300000000E+03 0. -1.
</event>
<event>
 4    1  0.5821292E+000  0.1000000E+03  0.7546771E-02  0.1280296E+00
         21   -1    0    0  503  502  0.00000000000E+00  0.00000000000E+00  0.13582865796E+03  0.13582865796E+03  0.00000000000E+00 0. -1.
         21   -1    0    0  501  503 -0.00000000000E+00 -0.00000000000E+00 -0.34129084083E+03  0.34129084083E+03  0.00000000000E+00 0. -1.
          6    1    1    2  501    0 -0.58970963933E+02 -0.12276646417E+02 -0.22808575827E+03  0.29254128557E+03  0.17300000000E+03 0. -1.
         -6    1    1    2    0  502  0.58970963933E+02  0.12276646417E+02  0.22623575405E+02  0.18457821323E+03  0.17300000000E+03 0. -1.
</event>
<event>
 4    1  0.5821292E+000  0.1000000E+03  0.7546771E-02  0.1280296E+00
         21   -1    0    0  503  502  0.00000000000E+00  0.00000000000E+00  0.25518093329E+03  0.25518093329E+03  0.00000000000E+00 0. -1.
         21   -1    0    0  501  503 -0.00000000000E+00 -0.00000000000E+00 -0.40599081054E+03  0.40599081054E+03  0.00000000000E+00 0. -1.
          6    1    1    2  501    0 -0.16015825295E+03 -0.16267771989E+03  0.75394714167E+02  0.29618924602E+03  0.17300000000E+03 0. -1.
         -6    1    1    2    0  502  0.16015825295E+03  0.16267771989E+03 -0.22620459142E+03  0.36498249782E+03  0.17300000000E+03 0. -1.
</event>
<event>
 4    1  0.5821292E+000  0.1000000E+03  0.7546771E-02  0.1280296E+00
         21   -1    0    0  503  502  0.00000000000E+00  0.00000000000E+00  0.38910200891E+03  0.38910200891E+03  0.00000000000E+00 0.  1.
         21   -1    0    0  501  503 -0.00000000000E+00 -0.00000000000E+00 -0.89702558020E+02  0.89702558020E+02  0.00000000000E+00 0.  1.
          6    1    1    2  501    0  0.68200993684E+02  0.17534264940E+02  0.15476412901E+03  0.24256908627E+03  0.17300000000E+03 0.  1.
         -6    1    1    2    0  502 -0.68200993684E+02 -0.17534264940E+02  0.14463532188E+03  0.23623548066E+03  0.17300000000E+03 0.  1.
</event>
<event>
 4    1  0.5821292E+000  0.1000000E+03  0.7546771E-02  0.1280296E+00
         21   -1    0    0  503  502  0.00000000000E+00  0.00000000000E+00  0.12960991321E+04  0.12960991321E+04  0.00000000000E+00 0.  1.
         21   -1    0    0  501  503 -0.00000000000E+00 -0.00000000000E+00 -0.51038213004E+02  0.51038213004E+02  0.00000000000E+00 0.  1.
          6    1    1    2  501    0  0.23892695590E+01 -0.13180606956E+03  0.26303743537E+03  0.34131545671E+03  0.17300000000E+03 0.  1.
         -6    1    1    2    0  502 -0.23892695590E+01  0.13180606956E+03  0.98202348369E+03  0.10058218884E+04  0.17300000000E+03 0.  1.
</event>
<event>
 4    1  0.5821292E+000  0.1000000E+03  0.7546771E-02  0.1280296E+00
         21   -1    0    0  501  502  0.00000000000E+00  0.00000000000E+00  0.12697165578E+03  0.12697165578E+03  0.00000000000E+00 0. -1.
         21   -1    0    0  502  503 -0.00000000000E+00 -0.00000000000E+00 -0.27658315547E+03  0.27658315547E+03  0.00000000000E+00 0. -1.
          6    1    1    2  501    0  0.62940895089E+02  0.17487315667E+02 -0.42113977606E+02  0.18965745330E+03  0.17300000000E+03 0. -1.
         -6    1    1    2    0  503 -0.62940895089E+02 -0.17487315667E+02 -0.10749752208E+03  0.21389735795E+03  0.17300000000E+03 0. -1.
</event>
<event>
 4    1  0.5821292E+000  0.1000000E+03  0.7546771E-02  0.1280296E+00
         21   -1    0    0  501  502  0.00000000000E+00  0.00000000000E+00  0.21657263194E+04  0.21657263194E+04  0.00000000000E+00 0. -1.
         21   -1    0    0  502  503 -0.00000000000E+00 -0.00000000000E+00 -0.54343658997E+02  0.54343658997E+02  0.00000000000E+00 0. -1.
          6    1    1    2  501    0 -0.12776252447E+03  0.18983973074E+03  0.16644918231E+04  0.16890306141E+04  0.17300000000E+03 0. -1.
         -6    1    1    2    0  503  0.12776252447E+03 -0.18983973074E+03  0.44689083734E+03  0.53103936439E+03  0.17300000000E+03 0. -1.
</event>
<event>
 4    1  0.5821292E+000  0.1000000E+03  0.7546771E-02  0.1280296E+00
         21   -1    0    0  501  502  0.00000000000E+00  0.00000000000E+00  0.11297485801E+04  0.11297485801E+04  0.00000000000E+00 0. -1.
         21   -1    0    0  502  503 -0.00000000000E+00 -0.00000000000E+00 -0.43782681778E+03  0.43782681778E+03  0.00000000000E+00 0. -1.
          6    1    1    2  501    0 -0.10627681128E+03 -0.19980717566E+03  0.10625786694E+04  0.11001000394E+04  0.17300000000E+03 0. -1.
         -6    1    1    2    0  503  0.10627681128E+03  0.19980717566E+03 -0.37065690705E+03  0.46747535850E+03  0.17300000000E+03 0. -1.
</event>
<event>
 4    1  0.5821292E+000  0.1000000E+03  0.7546771E-02  0.1280296E+00
         21   -1    0    0  501  502  0.00000000000E+00  0.00000000000E+00  0.58707429455E+02  0.58707429455E+02  0.00000000000E+00 0. -1.
         21   -1    0    0  502  503 -0.00000000000E+00 -0.00000000000E+00 -0.11544494250E+04  0.11544494250E+04  0.00000000000E+00 0.  1.
          6    1    1    2  501    0 -0.76057364205E+02 -0.14188442245E+03 -0.80236080609E+03  0.83643755005E+03  0.17300000000E+03 0. -1.
         -6    1    1    2    0  503  0.76057364205E+02  0.14188442245E+03 -0.29338118944E+03  0.37671930439E+03  0.17300000000E+03 0.  1.
</event>
<event>
 4    1  0.5821292E+000  0.1000000E+03  0.7546771E-02  0.1280296E+00
         21   -1    0    0  501  502  0.00000000000E+00  0.00000000000E+00  0.31287255397E+03  0.31287255397E+03  0.00000000000E+00 0. -1.
         21   -1    0    0  502  503 -0.00000000000E+00 -0.00000000000E+00 -0.36156412959E+03  0.36156412959E+03  0.00000000000E+00 0.  1.
          6    1    1    2  501    0 -0.68980889730E+02  0.13983625974E+03  0.21894511934E+03  0.31965373135E+03  0.17300000000E+03 0. -1.
         -6    1    1    2    0  503  0.68980889730E+02 -0.13983625974E+03 -0.26763669496E+03  0.35478295221E+03  0.17300000000E+03 0.  1.
</event>
<event>
 4    1  0.5821292E+000  0.1000000E+03  0.7546771E-02  0.1280296E+00
         21   -1    0    0  501  502  0.00000000000E+00  0.00000000000E+00  0.84452787435E+02  0.84452787435E+02  0.00000000000E+00 0.  1.
         21   -1    0    0  502  503 -0.00000000000E+00 -0.00000000000E+00 -0.57546001050E+03  0.57546001050E+03  0.00000000000E+00 0.  1.
          6    1    1    2  501    0  0.15979110074E+02  0.11003781936E+03 -0.12664303038E+03  0.24151834463E+03  0.17300000000E+03 0.  1.
         -6    1    1    2    0  503 -0.15979110074E+02 -0.11003781936E+03 -0.36436419269E+03  0.41839445331E+03  0.17300000000E+03 0.  1.
</event>
<event>
 4    1  0.5821292E+000  0.1000000E+03  0.7546771E-02  0.1280296E+00
         21   -1    0    0  501  502  0.00000000000E+00  0.00000000000E+00  0.10432871235E+03  0.10432871235E+03  0.00000000000E+00 0. -1.
         21   -1    0    0  502  503 -0.00000000000E+00 -0.00000000000E+00 -0.21474874763E+04  0.21474874763E+04  0.00000000000E+00 0.  1.
          6    1    1    2  501    0  0.16890945785E+03  0.10387813770E+03 -0.85713739328E+02  0.27676148134E+03  0.17300000000E+03 0. -1.
         -6    1    1    2    0  503 -0.16890945785E+03 -0.10387813770E+03 -0.19574450246E+04  0.19750547073E+04  0.17300000000E+03 0.  1.
</event>
<event>
 4    1  0.5821292E+000  0.1000000E+03  0.7546771E-02  0.1280296E+00
         21   -1    0    0  503  502  0.00000000000E+00  0.00000000000E+00  0.42551924050E+03  0.42551924050E+03  0.00000000000E+00 0.  1.
         21   -1    0    0  501  503 -0.00000000000E+00 -0.00000000000E+00 -0.24523005780E+03  0.24523005780E+03  0.00000000000E+00 0.  1.
          6    1    1    2  501    0 -0.98715525231E+02  0.10785779144E+03 -0.14896556505E+03  0.27110477249E+03  0.17300000000E+03 0.  1.
         -6    1    1    2    0  502  0.98715525231E+02 -0.10785779144E+03  0.32925474775E+03  0.39964452581E+03  0.17300000000E+03 0.  1.
</event>
<event>
 4    1  0.5821292E+000  0.1000000E+03  0.7546771E-02  0.1280296E+00
         21   -1    0    0  501  502  0.00000000000E+00  0.00000000000E+00  0.63005276908E+03  0.63005276908E+03  0.00000000000E+00 0. -1.
         21   -1    0    0  502  503 -0.00000000000E+00 -0.00000000000E+00 -0.84029295666E+02  0.84029295666E+02  0.00000000000E+00 0. -1.
          6    1    1    2  501    0 -0.86180231166E+02  0.89431060302E+02  0.40818941063E+03  0.46040475860E+03  0.17300000000E+03 0. -1.
         -6    1    1    2    0  503  0.86180231166E+02 -0.89431060302E+02  0.13783406279E+03  0.25367730615E+03  0.17300000000E+03 0. -1.
</event>
<event>
 4    1  0.5821292E+000  0.1000000E+03  0.7546771E-02  0.1280296E+00
         21   -1    0    0  501  502  0.00000000000E+00  0.00000000000E+00  0.17091789108E+02  0.17091789108E+02  0.00000000000E+00 0. -1.
         21   -1    0    0  502  503 -0.00000000000E+00 -0.00000000000E+00 -0.21884876222E+04  0.21884876222E+04  0.00000000000E+00 0. -1.
          6    1    1    2  501    0  0.30201107969E+02 -0.21602176510E+02 -0.15309433969E+04  0.15411344671E+04  0.17300000000E+03 0. -1.
         -6    1    1    2    0  503 -0.30201107969E+02  0.21602176510E+02 -0.64045243617E+03  0.66444494426E+03  0.17300000000E+03 0. -1.
</event>
<event>
 4    1  0.5821292E+000  0.1000000E+03  0.7546771E-02  0.1280296E+00
         21   -1    0    0  501  502  0.00000000000E+00  0.00000000000E+00  0.96211867685E+02  0.96211867685E+02  0.00000000000E+00 0. -1.
         21   -1    0    0  502  503 -0.00000000000E+00 -0.00000000000E+00 -0.79417232959E+03  0.79417232959E+03  0.00000000000E+00 0. -1.
          6    1    1    2  501    0 -0.61008283789E+02  0.15775116882E+03 -0.13366898449E+03  0.27641244431E+03  0.17300000000E+03 0. -1.
         -6    1    1    2    0  503  0.61008283789E+02 -0.15775116882E+03 -0.56429147742E+03  0.61397175297E+03  0.17300000000E+03 0. -1.
</event>
<event>
 4    1  0.5821292E+000  0.1000000E+03  0.7546771E-02  0.1280296E+00
         21   -1    0    0  501  502  0.00000000000E+00  0.00000000000E+00  0.41824784672E+02  0.41824784672E+02  0.00000000000E+00 0. -1.
         21   -1    0    0  502  503 -0.00000000000E+00 -0.00000000000E+00 -0.14501736878E+04  0.14501736878E+04  0.00000000000E+00 0. -1.
          6    1    1    2  501    0 -0.51104800960E+02 -0.57922108521E+02 -0.22756222371E+03  0.29610848856E+03  0.17300000000E+03 0. -1.
         -6    1    1    2    0  503  0.51104800960E+02  0.57922108521E+02 -0.11807866794E+04  0.11958899839E+04  0.17300000000E+03 0. -1.
</event>
<event>
 4    1  0.5821292E+000  0.1000000E+03  0.7546771E-02  0.1280296E+00
         21   -1    0    0  501  502  0.00000000000E+00  0.00000000000E+00  0.46319762605E+02  0.46319762605E+02  0.00000000000E+00 0. -1.
         21   -1    0    0  502  503 -0.00000000000E+00 -0.00000000000E+00 -0.12165165584E+04  0.12165165584E+04  0.00000000000E+00 0. -1.
          6    1    1    2  501    0 -0.12519948860E+03  0.69302955692E+02 -0.38005808060E+03  0.44141925223E+03  0.17300000000E+03 0. -1.
         -6    1    1    2    0  503  0.12519948860E+03 -0.69302955692E+02 -0.79013871515E+03  0.82141706873E+03  0.17300000000E+03 0. -1.
</event>
<event>
 4    1  0.5821292E+000  0.1000000E+03  0.7546771E-02  0.1280296E+00
         21   -1    0    0  503  502  0.00000000000E+00  0.00000000000E+00  0.12558050718E+03  0.12558050718E+03  0.00000000000E+00 0. -1.
         21   -1    0    0  501  503 -0.00000000000E+00 -0.00000000000E+00 -0.69788292173E+03  0.69788292173E+03  0.00000000000E+00 0. -1.
          6    1    1    2  501    0 -0.16389629268E+03  0.17161371950E+03 -0.33815689985E+03  0.44787537596E+03  0.17300000000E+03 0. -1.
         -6    1    1    2    0  502  0.16389629268E+03 -0.17161371950E+03 -0.23414551470E+03  0.37558805296E+03  0.17300000000E+03 0. -1.
</event>
<event>
 4    1  0.5821292E+000  0.1000000E+03  0.7546771E-02  0.1280296E+00
         21   -1    0    0  503  502  0.00000000000E+00  0.00000000000E+00  0.77697315822E+02  0.77697315822E+02  0.00000000000E+00 0. -1.
         21   -1    0    0  501  503 -0.00000000000E+00 -0.00000000000E+00 -0.42643517021E+03  0.42643517021E+03  0.00000000000E+00 0. -1.
          6    1    1    2  501    0 -0.12488548615E+02 -0.91080654790E+01 -0.98965051512E+02  0.19990498274E+03  0.17300000000E+03 0. -1.
         -6    1    1    2    0  502  0.12488548615E+02  0.91080654790E+01 -0.24977280288E+03  0.30422750329E+03  0.17300000000E+03 0. -1.
</event>
<event>
 4    1  0.5821292E+000  0.1000000E+03  0.7546771E-02  0.1280296E+00
         21   -1    0    0  503  502  0.00000000000E+00  0.00000000000E+00  0.15916541148E+03  0.15916541148E+03  0.00000000000E+00 0. -1.
         21   -1    0    0  501  503 -0.00000000000E+00 -0.00000000000E+00 -0.29798547537E+03  0.29798547537E+03  0.00000000000E+00 0. -1.
          6    1    1    2  501    0  0.14250417617E+02  0.95980492418E+02 -0.16378098176E+03  0.25723246162E+03  0.17300000000E+03 0. -1.
         -6    1    1    2    0  502 -0.14250417617E+02 -0.95980492418E+02  0.24960917869E+02  0.19991842523E+03  0.17300000000E+03 0. -1.
</event>
<event>
 4    1  0.5821292E+000  0.1000000E+03  0.7546771E-02  0.1280296E+00
         21   -1    0    0  501  502  0.00000000000E+00  0.00000000000E+00  0.32313081503E+03  0.32313081503E+03  0.00000000000E+00 0.  1.
         21   -1    0    0  502  503 -0.00000000000E+00 -0.00000000000E+00 -0.25298306856E+03  0.25298306856E+03  0.00000000000E+00 0. -1.
          6    1    1    2  501    0  0.39759287259E+02 -0.67117573478E+02  0.25052749091E+03  0.31429061916E+03  0.17300000000E+03 0.  1.
         -6    1    1    2    0  503 -0.39759287259E+02  0.67117573478E+02 -0.18037974444E+03  0.26182326443E+03  0.17300000000E+03 0. -1.
</event>
<event>
 4    1  0.5821292E+000  0.1000000E+03  0.7546771E-02  0.1280296E+00
         21   -1    0    0  501  502  0.00000000000E+00  0.00000000000E+00  0.29876187413E+03  0.29876187413E+03  0.00000000000E+00 0.  1.
         21   -1    0    0  502  503 -0.00000000000E+00 -0.00000000000E+00 -0.14283812159E+03  0.14283812159E+03  0.00000000000E+00 0.  1.
          6    1    1    2  501    0 -0.65038275153E+02  0.23227965177E+02  0.17341911590E+03  0.25450482384E+03  0.17300000000E+03 0.  1.
         -6    1    1    2    0  503  0.65038275153E+02 -0.23227965177E+02 -0.17495363363E+02  0.18709517188E+03  0.17300000000E+03 0.  1.
</event>
<event>
 4    1  0.5821292E+000  0.1000000E+03  0.7546771E-02  0.1280296E+00
         21   -1    0    0  503  502  0.00000000000E+00  0.00000000000E+00  0.79581988593E+03  0.79581988593E+03  0.00000000000E+00 0. -1.
         21   -1    0    0  501  503 -0.00000000000E+00 -0.00000000000E+00 -0.18658542552E+03  0.18658542552E+03  0.00000000000E+00 0. -1.
          6    1    1    2  501    0 -0.26397991511E+03  0.15667207574E+03  0.10579434004E+03  0.36790348909E+03  0.17300000000E+03 0. -1.
         -6    1    1    2    0  502  0.26397991511E+03 -0.15667207574E+03  0.50344012037E+03  0.61450182237E+03  0.17300000000E+03 0. -1.
</event>
<event>
 4    1  0.5821292E+000  0.1000000E+03  0.7546771E-02  0.1280296E+00
         21   -1    0    0  501  502  0.00000000000E+00  0.00000000000E+00  0.23167801594E+03  0.23167801594E+03  0.00000000000E+00 0. -1.
         21   -1    0    0  502  503 -0.00000000000E+00 -0.00000000000E+00 -0.22081509744E+03  0.22081509744E+03  0.00000000000E+00 0.  1.
          6    1    1    2  501    0 -0.31925076986E+02  0.20889797267E+01  0.14761824113E+03  0.22966000847E+03  0.17300000000E+03 0. -1.
         -6    1    1    2    0  503  0.31925076986E+02 -0.20889797267E+01 -0.13675532262E+03  0.22283310491E+03  0.17300000000E+03 0.  1.
</event>
<event>
 4    1  0.5821292E+000  0.1000000E+03  0.7546771E-02  0.1280296E+00
         21   -1    0    0  501  502  0.00000000000E+00  0.00000000000E+00  0.13043949834E+03  0.13043949834E+03  0.00000000000E+00 0. -1.
         21   -1    0    0  502  503 -0.00000000000E+00 -0.00000000000E+00 -0.41330364536E+03  0.41330364536E+03  0.00000000000E+00 0.  1.
          6    1    1    2  501    0 -0.15259083306E+02 -0.15364353519E+03 -0.12743270176E+03  0.26458886788E+03  0.17300000000E+03 0. -1.
         -6    1    1    2    0  503  0.15259083306E+02  0.15364353519E+03 -0.15543144526E+03  0.27915427581E+03  0.17300000000E+03 0.  1.
</event>
<event>
 4    1  0.5821292E+000  0.1000000E+03  0.7546771E-02  0.1280296E+00
         21   -1    0    0  501  502  0.00000000000E+00  0.00000000000E+00  0.60621622185E+03  0.60621622185E+03  0.00000000000E+00 0. -1.
         21   -1    0    0  502  503 -0.00000000000E+00 -0.00000000000E+00 -0.41610096354E+03  0.41610096354E+03  0.00000000000E+00 0.  1.
          6    1    1    2  501    0 -0.27448118981E+03  0.36494857262E+02  0.48346936149E+03  0.58338959681E+03  0.17300000000E+03 0. -1.
         -6    1    1    2    0  503  0.27448118981E+03 -0.36494857262E+02 -0.29335410318E+03  0.43892758858E+03  0.17300000000E+03 0.  1.
</event>
<event>
 4    1  0.5821292E+000  0.1000000E+03  0.7546771E-02  0.1280296E+00
         21   -1    0    0  501  502  0.00000000000E+00  0.00000000000E+00  0.11761053735E+04  0.11761053735E+04  0.00000000000E+00 0. -1.
         21   -1    0    0  502  503 -0.00000000000E+00 -0.00000000000E+00 -0.35192418077E+02  0.35192418077E+02  0.00000000000E+00 0.  1.
          6    1    1    2  501    0  0.16481905187E+02 -0.35182167132E+02  0.86743066933E+03  0.88536681900E+03  0.17300000000E+03 0.  1.
         -6    1    1    2    0  503 -0.16481905187E+02  0.35182167132E+02  0.27348228610E+03  0.32593097259E+03  0.17300000000E+03 0. -1.
</event>
<event>
 4    1  0.5821292E+000  0.1000000E+03  0.7546771E-02  0.1280296E+00
         21   -1    0    0  501  502  0.00000000000E+00  0.00000000000E+00  0.90458295285E+02  0.90458295285E+02  0.00000000000E+00 0. -1.
         21   -1    0    0  502  503 -0.00000000000E+00 -0.00000000000E+00 -0.67319956452E+03  0.67319956452E+03  0.00000000000E+00 0.  1.
          6    1    1    2  501    0  0.11066555733E+03  0.12548905475E+03 -0.37573881548E+03  0.44620962103E+03  0.17300000000E+03 0.  1.
         -6    1    1    2    0  503 -0.11066555733E+03 -0.12548905475E+03 -0.20700245375E+03  0.31744823877E+03  0.17300000000E+03 0. -1.
</event>
<event>
 4    1  0.5821292E+000  0.1000000E+03  0.7546771E-02  0.1280296E+00
         21   -1    0    0  501  502  0.00000000000E+00  0.00000000000E+00  0.10271986019E+03  0.10271986019E+03  0.00000000000E+00 0. -1.
         21   -1    0    0  502  503 -0.00000000000E+00 -0.00000000000E+00 -0.59260509469E+03  0.59260509469E+03  0.00000000000E+00 0.  1.
          6    1    1    2  501    0 -0.45518313171E+02  0.12024480475E+02 -0.61111192848E+01  0.17939579355E+03  0.17300000000E+03 0.  1.
         -6    1    1    2    0  503  0.45518313171E+02 -0.12024480475E+02 -0.48377411521E+03  0.51592916133E+03  0.17300000000E+03 0. -1.
</event>
<event>
 4    1  0.5821292E+000  0.1000000E+03  0.7546771E-02  0.1280296E+00
         21   -1    0    0  503  502  0.00000000000E+00  0.00000000000E+00  0.15388619980E+03  0.15388619980E+03  0.00000000000E+00 0.  1.
         21   -1    0    0  501  503 -0.00000000000E+00 -0.00000000000E+00 -0.22218067644E+03  0.22218067644E+03  0.00000000000E+00 0. -1.
          6    1    1    2  501    0  0.75162813650E+01  0.11899983547E+02 -0.98970191465E+02  0.19980541257E+03  0.17300000000E+03 0.  1.
         -6    1    1    2    0  502 -0.75162813650E+01 -0.11899983547E+02  0.30675714823E+02  0.17626146367E+03  0.17300000000E+03 0. -1.
</event>
<event>
 4    1  0.5821292E+000  0.1000000E+03  0.7546771E-02  0.1280296E+00
         21   -1    0    0  503  502  0.00000000000E+00  0.00000000000E+00  0.68280871932E+03  0.68280871932E+03  0.00000000000E+00 0.  1.
         21   -1    0    0  501  503 -0.00000000000E+00 -0.00000000000E+00 -0.15618367786E+03  0.15618367786E+03  0.00000000000E+00 0.  1.
          6    1    1    2  501    0 -0.72944840815E+02  0.97799655208E+02 -0.56103193823E+02  0.21900294682E+03  0.17300000000E+03 0.  1.
         -6    1    1    2    0  502  0.72944840815E+02 -0.97799655208E+02  0.58272823528E+03  0.61998945036E+03  0.17300000000E+03 0.  1.
</event>
<event>
 4    1  0.5821292E+000  0.1000000E+03  0.7546771E-02  0.1280296E+00
         21   -1    0    0  503  502  0.00000000000E+00  0.00000000000E+00  0.17147229202E+03  0.17147229202E+03  0.00000000000E+00 0.  1.
         21   -1    0    0  501  503 -0.00000000000E+00 -0.00000000000E+00 -0.32959065559E+03  0.32959065559E+03  0.00000000000E+00 0.  1.
          6    1    1    2  501    0 -0.66176524674E+02 -0.12688252066E+03 -0.16142234675E+03  0.27652247738E+03  0.17300000000E+03 0.  1.
         -6    1    1    2    0  502  0.66176524674E+02  0.12688252066E+03  0.33039831839E+01  0.22454047023E+03  0.17300000000E+03 0.  1.
</event>
<event>
 4    1  0.5821292E+000  0.1000000E+03  0.7546771E-02  0.1280296E+00
         21   -1    0    0  503  502  0.00000000000E+00  0.00000000000E+00  0.22525861740E+03  0.22525861740E+03  0.00000000000E+00 0.  1.
         21   -1    0    0  501  503 -0.00000000000E+00 -0.00000000000E+00 -0.39961805606E+03  0.39961805606E+03  0.00000000000E+00 0.  1.
          6    1    1    2  501    0 -0.38707517708E+02 -0.94145282139E+02 -0.31939796274E+03  0.37723423052E+03  0.17300000000E+03 0.  1.
         -6    1    1    2    0  502  0.38707517708E+02  0.94145282139E+02  0.14503852408E+03  0.24764244294E+03  0.17300000000E+03 0.  1.
</event>
<event>
 4    1  0.5821292E+000  0.1000000E+03  0.7546771E-02  0.1280296E+00
         21   -1    0    0  501  502  0.00000000000E+00  0.00000000000E+00  0.22715647038E+04  0.22715647038E+04  0.00000000000E+00 0.  1.
         21   -1    0    0  502  503 -0.00000000000E+00 -0.00000000000E+00 -0.73092581475E+02  0.73092581475E+02  0.00000000000E+00 0. -1.
          6    1    1    2  501    0  0.64854600028E+02  0.35198787567E+02  0.21392095104E+04  0.21474616186E+04  0.17300000000E+03 0.  1.
         -6    1    1    2    0  503 -0.64854600028E+02 -0.35198787567E+02  0.59262611891E+02  0.19719566668E+03  0.17300000000E+03 0. -1.
</event>
<event>
 4    1  0.5821292E+000  0.1000000E+03  0.7546771E-02  0.1280296E+00
         21   -1    0    0  501  502  0.00000000000E+00  0.00000000000E+00  0.71070041966E+03  0.71070041966E+03  0.00000000000E+00 0.  1.
         21   -1    0    0  502  503 -0.00000000000E+00 -0.00000000000E+00 -0.10249754185E+03  0.10249754185E+03  0.00000000000E+00 0. -1.
          6    1    1    2  501    0  0.14936462915E+03  0.10080230195E+03  0.45806700553E+03  0.52175212321E+03  0.17300000000E+03 0.  1.
         -6    1    1    2    0  503 -0.14936462915E+03 -0.10080230195E+03  0.15013587227E+03  0.29144583830E+03  0.17300000000E+03 0. -1.
</event>
<event>
 4    1  0.5821292E+000  0.1000000E+03  0.7546771E-02  0.1280296E+00
         21   -1    0    0  501  502  0.00000000000E+00  0.00000000000E+00  0.42998473689E+02  0.42998473689E+02  0.00000000000E+00 0.  1.
         21   -1    0    0  502  503 -0.00000000000E+00 -0.00000000000E+00 -0.10896688102E+04  0.10896688102E+04  0.00000000000E+00 0. -1.
          6    1    1    2  501    0 -0.70842780817E+02  0.12544641791E+02 -0.23973952751E+03  0.30426979588E+03  0.17300000000E+03 0.  1.
         -6    1    1    2    0  503  0.70842780817E+02 -0.12544641791E+02 -0.80693080899E+03  0.82839748801E+03  0.17300000000E+03 0. -1.
</event>
<event>
 4    1  0.5821292E+000  0.1000000E+03  0.7546771E-02  0.1280296E+00
         21   -1    0    0  501  502  0.00000000000E+00  0.00000000000E+00  0.38979699485E+03  0.38979699485E+03  0.00000000000E+00 0. -1.
         21   -1    0    0  502  503 -0.00000000000E+00 -0.00000000000E+00 -0.13231321680E+03  0.13231321680E+03  0.00000000000E+00 0. -1.
          6    1    1    2  501    0  0.20267616409E+02 -0.71655883031E+02  0.27460219423E+03  0.33298754770E+03  0.17300000000E+03 0. -1.
         -6    1    1    2    0  503 -0.20267616409E+02  0.71655883031E+02 -0.17118416183E+02  0.18912266395E+03  0.17300000000E+03 0. -1.
</event>
<event>
 4    1  0.5821292E+000  0.1000000E+03  0.7546771E-02  0.1280296E+00
         21   -1    0    0  501  502  0.00000000000E+00  0.00000000000E+00  0.12709402907E+04  0.12709402907E+04  0.00000000000E+00 0.  1.
         21   -1    0    0  502  503 -0.00000000000E+00 -0.00000000000E+00 -0.14793959855E+03  0.14793959855E+03  0.00000000000E+00 0.  1.
          6    1    1    2  501    0 -0.16873268374E+02  0.82710639711E+02  0.11972011750E+04  0.12125780018E+04  0.17300000000E+03 0.  1.
         -6    1    1    2    0  503  0.16873268374E+02 -0.82710639711E+02 -0.74200482835E+02  0.20630188744E+03  0.17300000000E+03 0.  1.
</event>
<event>
 4    1  0.5821292E+000  0.1000000E+03  0.7546771E-02  0.1280296E+00
         21   -1    0    0  501  502  0.00000000000E+00  0.00000000000E+00  0.28643137990E+03  0.28643137990E+03  0.00000000000E+00 0.  1.
         21   -1    0    0  502  503 -0.00000000000E+00 -0.00000000000E+00 -0.35219833099E+03  0.35219833099E+03  0.00000000000E+00 0. -1.
          6    1    1    2  501    0  0.11390699383E+02 -0.26162193751E+03  0.16119935118E+02  0.31426841796E+03  0.17300000000E+03 0.  1.
         -6    1    1    2    0  503 -0.11390699383E+02  0.26162193751E+03 -0.81886886207E+02  0.32436129293E+03  0.17300000000E+03 0. -1.
</event>
<event>
 4    1  0.5821292E+000  0.1000000E+03  0.7546771E-02  0.1280296E+00
         21   -1    0    0  501  502  0.00000000000E+00  0.00000000000E+00  0.24379689227E+03  0.24379689227E+03  0.00000000000E+00 0.  1.
         21   -1    0    0  502  503 -0.00000000000E+00 -0.00000000000E+00 -0.17194627789E+04  0.17194627789E+04  0.00000000000E+00 0. -1.
          6    1    1    2  501    0  0.15199340151E+03  0.20427417789E+03  0.12575182678E+03  0.33252436872E+03  0.17300000000E+03 0.  1.
         -6    1    1    2    0  503 -0.15199340151E+03 -0.20427417789E+03 -0.16014177134E+04  0.16307353024E+04  0.17300000000E+03 0. -1.
</event>
<event>
 4    1  0.5821292E+000  0.1000000E+03  0.7546771E-02  0.1280296E+00
         21   -1    0    0  501  502  0.00000000000E+00  0.00000000000E+00  0.35895733107E+03  0.35895733107E+03  0.00000000000E+00 0. -1.
         21   -1    0    0  502  503 -0.00000000000E+00 -0.00000000000E+00 -0.20520638771E+03  0.20520638771E+03  0.00000000000E+00 0. -1.
          6    1    1    2  501    0  0.72198108473E+02 -0.75517093693E+02  0.26515396910E+03  0.33339319975E+03  0.17300000000E+03 0. -1.
         -6    1    1    2    0  503 -0.72198108473E+02  0.75517093693E+02 -0.11140302575E+03  0.23077051903E+03  0.17300000000E+03 0. -1.
</event>
<event>
 4    1  0.5821292E+000  0.1000000E+03  0.7546771E-02  0.1280296E+00
         21   -1    0    0  501  502  0.00000000000E+00  0.00000000000E+00  0.15428904033E+03  0.15428904033E+03  0.00000000000E+00 0. -1.
         21   -1    0    0  502  503 -0.00000000000E+00 -0.00000000000E+00 -0.22447641858E+03  0.22447641858E+03  0.00000000000E+00 0. -1.
          6    1    1    2  501    0 -0.18545232515E+01 -0.68257631412E+02 -0.41743978529E+02  0.19061506563E+03  0.17300000000E+03 0. -1.
         -6    1    1    2    0  503  0.18545232515E+01  0.68257631412E+02 -0.28443399723E+02  0.18815039328E+03  0.17300000000E+03 0. -1.
</event>
<event>
 4    1  0.5821292E+000  0.1000000E+03  0.7546771E-02  0.1280296E+00
         21   -1    0    0  503  502  0.00000000000E+00  0.00000000000E+00  0.21069430903E+03  0.21069430903E+03  0.00000000000E+00 0. -1.
         21   -1    0    0  501  503 -0.00000000000E+00 -0.00000000000E+00 -0.22833400449E+03  0.22833400449E+03  0.00000000000E+00 0. -1.
          6    1    1    2  501    0  0.47633120606E+02 -0.66881756807E+02 -0.11585295401E+03  0.22381463429E+03  0.17300000000E+03 0.  1.
         -6    1    1    2    0  502 -0.47633120606E+02  0.66881756807E+02  0.98213258547E+02  0.21521367923E+03  0.17300000000E+03 0.  1.
</event>
<event>
 4    1  0.5821292E+000  0.1000000E+03  0.7546771E-02  0.1280296E+00
         21   -1    0    0  503  502  0.00000000000E+00  0.00000000000E+00  0.15944725256E+03  0.15944725256E+03  0.00000000000E+00 0. -1.
         21   -1    0    0  501  503 -0.00000000000E+00 -0.00000000000E+00 -0.30337930181E+03  0.30337930181E+03  0.00000000000E+00 0.  1.
          6    1    1    2  501    0  0.54377891382E+02  0.11376312517E+03 -0.12504591618E+03  0.24792031961E+03  0.17300000000E+03 0.  1.
         -6    1    1    2    0  502 -0.54377891382E+02 -0.11376312517E+03 -0.18886133065E+02  0.21490623477E+03  0.17300000000E+03 0.  1.
</event>
<event>
 4    1  0.5821292E+000  0.1000000E+03  0.7546771E-02  0.1280296E+00
         21   -1    0    0  501  502  0.00000000000E+00  0.00000000000E+00  0.89359816477E+03  0.89359816477E+03  0.00000000000E+00 0. -1.
         21   -1    0    0  502  503 -0.00000000000E+00 -0.00000000000E+00 -0.90667186801E+02  0.90667186801E+02  0.00000000000E+00 0. -1.
          6    1    1    2  501    0 -0.56668572872E+02 -0.12612449941E+02  0.77915861819E+03  0.80024218419E+03  0.17300000000E+03 0. -1.
         -6    1    1    2    0  503  0.56668572872E+02  0.12612449941E+02  0.23772359774E+02  0.18402316738E+03  0.17300000000E+03 0. -1.
</event>
<event>
 4    1  0.5821292E+000  0.1000000E+03  0.7546771E-02  0.1280296E+00
         21   -1    0    0  501  502  0.00000000000E+00  0.00000000000E+00  0.15649415081E+03  0.15649415081E+03  0.00000000000E+00 0. -1.
         21   -1    0    0  502  503 -0.00000000000E+00 -0.00000000000E+00 -0.36294877592E+03  0.36294877592E+03  0.00000000000E+00 0. -1.
          6    1    1    2  501    0 -0.38990783254E+02 -0.17351854585E+01  0.70272890295E+02  0.19076312840E+03  0.17300000000E+03 0. -1.
         -6    1    1    2    0  503  0.38990783254E+02  0.17351854585E+01 -0.27672751541E+03  0.32867979833E+03  0.17300000000E+03 0. -1.
</event>
<event>
 4    1  0.5821292E+000  0.1000000E+03  0.7546771E-02  0.1280296E+00
         21   -1    0    0  501  502  0.00000000000E+00  0.00000000000E+00  0.70787179346E+03  0.70787179346E+03  0.00000000000E+00 0. -1.
         21   -1    0    0  502  503 -0.00000000000E+00 -0.00000000000E+00 -0.27142124873E+03  0.27142124873E+03  0.00000000000E+00 0.  1.
          6    1    1    2  501    0 -0.28898777554E+03  0.20590830142E+03  0.43102870329E+03  0.58448858506E+03  0.17300000000E+03 0. -1.
         -6    1    1    2    0  503  0.28898777554E+03 -0.20590830142E+03  0.54218414372E+01  0.39480445713E+03  0.17300000000E+03 0. -1.
</event>
<event>
 4    1  0.5821292E+000  0.1000000E+03  0.7546771E-02  0.1280296E+00
         21   -1    0    0  501  502  0.00000000000E+00  0.00000000000E+00  0.13745903354E+03  0.13745903354E+03  0.00000000000E+00 0. -1.
         21   -1    0    0  502  503 -0.00000000000E+00 -0.00000000000E+00 -0.31913495786E+03  0.31913495786E+03  0.00000000000E+00 0.  1.
          6    1    1    2  501    0 -0.61630733092E+02 -0.89274236918E+02 -0.40053495933E+02  0.20809017078E+03  0.17300000000E+03 0. -1.
         -6    1    1    2    0  503  0.61630733092E+02  0.89274236918E+02 -0.14162242839E+03  0.24850382062E+03  0.17300000000E+03 0. -1.
</event>
<event>
 4    1  0.5821292E+000  0.1000000E+03  0.7546771E-02  0.1280296E+00
         21   -1    0    0  503  502  0.00000000000E+00  0.00000000000E+00  0.12008284020E+04  0.12008284020E+04  0.00000000000E+00 0.  1.
         21   -1    0    0  501  503 -0.00000000000E+00 -0.00000000000E+00 -0.17508196451E+03  0.17508196451E+03  0.00000000000E+00 0. -1.
          6    1    1    2  501    0 -0.79567703926E+02  0.36836705505E+02 -0.11050642252E+03  0.22322327790E+03  0.17300000000E+03 0.  1.
         -6    1    1    2    0  502  0.79567703926E+02 -0.36836705505E+02  0.11362528600E+04  0.11526870886E+04  0.17300000000E+03 0.  1.
</event>
<event>
 4    1  0.5821292E+000  0.1000000E+03  0.7546771E-02  0.1280296E+00
         21   -1    0    0  503  502  0.00000000000E+00  0.00000000000E+00  0.15712688370E+03  0.15712688370E+03  0.00000000000E+00 0.  1.
         21   -1    0    0  501  503 -0.00000000000E+00 -0.00000000000E+00 -0.26491327167E+03  0.26491327167E+03  0.00000000000E+00 0. -1.
          6    1    1    2  501    0 -0.86496568241E+02  0.26520943140E+02 -0.11517913445E+03  0.22667211949E+03  0.17300000000E+03 0.  1.
         -6    1    1    2    0  502  0.86496568241E+02 -0.26520943140E+02  0.73927464897E+01  0.19536803588E+03  0.17300000000E+03 0.  1.
</event>
<event>
 4    1  0.5821292E+000  0.1000000E+03  0.7546771E-02  0.1280296E+00
         21   -1    0    0  503  502  0.00000000000E+00  0.00000000000E+00  0.26709104939E+03  0.26709104939E+03  0.00000000000E+00 0.  1.
         21   -1    0    0  501  503 -0.00000000000E+00 -0.00000000000E+00 -0.22026597593E+03  0.22026597593E+03  0.00000000000E+00 0. -1.
          6    1    1    2  501    0  0.91858103801E+02  0.11059726501E+02 -0.11987519116E+03  0.22991148349E+03  0.17300000000E+03 0.  1.
         -6    1    1    2    0  502 -0.91858103801E+02 -0.11059726501E+02  0.16670026462E+03  0.25744554183E+03  0.17300000000E+03 0.  1.
</event>
<event>
 4    1  0.5821292E+000  0.1000000E+03  0.7546771E-02  0.1280296E+00
         21   -1    0    0  501  502  0.00000000000E+00  0.00000000000E+00  0.12491121738E+04  0.12491121738E+04  0.00000000000E+00 0.  1.
         21   -1    0    0  502  503 -0.00000000000E+00 -0.00000000000E+00 -0.10770719702E+03  0.10770719702E+03  0.00000000000E+00 0.  1.
          6    1    1    2  501    0  0.37060312205E+02 -0.21283416182E+03  0.10158960984E+04  0.10529224710E+04  0.17300000000E+03 0.  1.
         -6    1    1    2    0  503 -0.37060312205E+02  0.21283416182E+03  0.12550887839E+03  0.30389689985E+03  0.17300000000E+03 0.  1.
</event>
<event>
 4    1  0.5821292E+000  0.1000000E+03  0.7546771E-02  0.1280296E+00
         21   -1    0    0  501  502  0.00000000000E+00  0.00000000000E+00  0.10110780966E+04  0.10110780966E+04  0.00000000000E+00 0. -1.
         21   -1    0    0  502  503 -0.00000000000E+00 -0.00000000000E+00 -0.54268811007E+02  0.54268811007E+02  0.00000000000E+00 0. -1.
          6    1    1    2  501    0 -0.10421272228E+03 -0.10092822959E+03  0.62031139913E+03  0.66012273927E+03  0.17300000000E+03 0. -1.
         -6    1    1    2    0  503  0.10421272228E+03  0.10092822959E+03  0.33649788649E+03  0.40522416836E+03  0.17300000000E+03 0. -1.
</event>
<event>
 4    1  0.5821292E+000  0.1000000E+03  0.7546771E-02  0.1280296E+00
         21   -1    0    0  501  502  0.00000000000E+00  0.00000000000E+00  0.97008190946E+03  0.97008190946E+03  0.00000000000E+00 0. -1.
         21   -1    0    0  502  503 -0.00000000000E+00 -0.00000000000E+00 -0.57908078199E+02  0.57908078199E+02  0.00000000000E+00 0. -1.
          6    1    1    2  501    0 -0.59245213863E+01 -0.11320477337E+03  0.70708779747E+03  0.73671743159E+03  0.17300000000E+03 0. -1.
         -6    1    1    2    0  503  0.59245213863E+01  0.11320477337E+03  0.20508603379E+03  0.29127255608E+03  0.17300000000E+03 0. -1.
</event>
<event>
 4    1  0.5821292E+000  0.1000000E+03  0.7546771E-02  0.1280296E+00
         21   -1    0    0  501  502  0.00000000000E+00  0.00000000000E+00  0.71765873951E+02  0.71765873951E+02  0.00000000000E+00 0. -1.
         21   -1    0    0  502  503 -0.00000000000E+00 -0.00000000000E+00 -0.46604033516E+03  0.46604033516E+03  0.00000000000E+00 0. -1.
          6    1    1    2  501    0 -0.10659991448E+02 -0.57357500346E+02 -0.21278633868E+03  0.28037571969E+03  0.17300000000E+03 0. -1.
         -6    1    1    2    0  503  0.10659991448E+02  0.57357500346E+02 -0.18148812253E+03  0.25743048942E+03  0.17300000000E+03 0. -1.
</event>
<event>
 4    1  0.5821292E+000  0.1000000E+03  0.7546771E-02  0.1280296E+00
         21   -1    0    0  503  502  0.00000000000E+00  0.00000000000E+00  0.95066947705E+03  0.95066947705E+03  0.00000000000E+00 0.  1.
         21   -1    0    0  501  503 -0.00000000000E+00 -0.00000000000E+00 -0.16599235830E+03  0.16599235830E+03  0.00000000000E+00 0.  1.
          6    1    1    2  501    0  0.19416628332E+03  0.96688166572E+02 -0.72450353026E+01  0.27754393827E+03  0.17300000000E+03 0.  1.
         -6    1    1    2    0  502 -0.19416628332E+03 -0.96688166572E+02  0.79192215404E+03  0.83911789708E+03  0.17300000000E+03 0.  1.
</event>
<event>
 4    1  0.5821292E+000  0.1000000E+03  0.7546771E-02  0.1280296E+00
         21   -1    0    0  501  502  0.00000000000E+00  0.00000000000E+00  0.64190915986E+03  0.64190915986E+03  0.00000000000E+00 0.  1.
         21   -1    0    0  502  503 -0.00000000000E+00 -0.00000000000E+00 -0.58519517124E+02  0.58519517124E+02  0.00000000000E+00 0.  1.
          6    1    1    2  501    0 -0.59965957160E+02 -0.20722514078E+02  0.40026058199E+03  0.44063916315E+03  0.17300000000E+03 0.  1.
         -6    1    1    2    0  503  0.59965957160E+02  0.20722514078E+02  0.18312906074E+03  0.25978951383E+03  0.17300000000E+03 0.  1.
</event>
<event>
 4    1  0.5821292E+000  0.1000000E+03  0.7546771E-02  0.1280296E+00
         21   -1    0    0  503  502  0.00000000000E+00  0.00000000000E+00  0.69848033717E+03  0.69848033717E+03  0.00000000000E+00 0.  1.
         21   -1    0    0  501  503 -0.00000000000E+00 -0.00000000000E+00 -0.51911893781E+02  0.51911893781E+02  0.00000000000E+00 0.  1.
          6    1    1    2  501    0  0.52539337736E+02 -0.26973616889E+02  0.21823412871E+03  0.28468068595E+03  0.17300000000E+03 0.  1.
         -6    1    1    2    0  502 -0.52539337736E+02  0.26973616889E+02  0.42833431467E+03  0.46571154500E+03  0.17300000000E+03 0.  1.
</event>
<event>
 4    1  0.5821292E+000  0.1000000E+03  0.7546771E-02  0.1280296E+00
         21   -1    0    0  503  502  0.00000000000E+00  0.00000000000E+00  0.42860906881E+03  0.42860906881E+03  0.00000000000E+00 0.  1.
         21   -1    0    0  501  503 -0.00000000000E+00 -0.00000000000E+00 -0.11867832054E+03  0.11867832054E+03  0.00000000000E+00 0.  1.
          6    1    1    2  501    0 -0.13714117747E+03  0.39637741449E+02  0.12628542579E+03  0.25740214038E+03  0.17300000000E+03 0.  1.
         -6    1    1    2    0  502  0.13714117747E+03 -0.39637741449E+02  0.18364532248E+03  0.28988524898E+03  0.17300000000E+03 0.  1.
</event>
<event>
 4    1  0.5821292E+000  0.1000000E+03  0.7546771E-02  0.1280296E+00
         21   -1    0    0  501  502  0.00000000000E+00  0.00000000000E+00  0.89163410652E+02  0.89163410652E+02  0.00000000000E+00 0.  1.
         21   -1    0    0  502  503 -0.00000000000E+00 -0.00000000000E+00 -0.13390629558E+04  0.13390629558E+04  0.00000000000E+00 0.  1.
          6    1    1    2  501    0  0.19891846073E+03  0.51471687557E+02 -0.17572119674E+03  0.32097480840E+03  0.17300000000E+03 0.  1.
         -6    1    1    2    0  503 -0.19891846073E+03 -0.51471687557E+02 -0.10741783484E+04  0.11072515581E+04  0.17300000000E+03 0.  1.
</event>
<event>
 4    1  0.5821292E+000  0.1000000E+03  0.7546771E-02  0.1280296E+00
         21   -1    0    0  501  502  0.00000000000E+00  0.00000000000E+00  0.62095836199E+02  0.62095836199E+02  0.00000000000E+00 0.  1.
         21   -1    0    0  502  503 -0.00000000000E+00 -0.00000000000E+00 -0.68142760322E+03  0.68142760322E+03  0.00000000000E+00 0.  1.
          6    1    1    2  501    0  0.23022659775E+02  0.27402201702E+02 -0.11922455268E+03  0.21313004829E+03  0.17300000000E+03 0.  1.
         -6    1    1    2    0  503 -0.23022659775E+02 -0.27402201702E+02 -0.50010721434E+03  0.53039339113E+03  0.17300000000E+03 0.  1.
</event>
<event>
 4    1  0.5821292E+000  0.1000000E+03  0.7546771E-02  0.1280296E+00
         21   -1    0    0  501  502  0.00000000000E+00  0.00000000000E+00  0.41819406855E+03  0.41819406855E+03  0.00000000000E+00 0.  1.
         21   -1    0    0  502  503 -0.00000000000E+00 -0.00000000000E+00 -0.98717392943E+02  0.98717392943E+02  0.00000000000E+00 0.  1.
          6    1    1    2  501    0  0.26828973402E+02 -0.10159242802E+03  0.13722601818E+03  0.24454201134E+03  0.17300000000E+03 0.  1.
         -6    1    1    2    0  503 -0.26828973402E+02  0.10159242802E+03  0.18225065742E+03  0.27236945015E+03  0.17300000000E+03 0.  1.
</event>
<event>
 4    1  0.5821292E+000  0.1000000E+03  0.7546771E-02  0.1280296E+00
         21   -1    0    0  503  502  0.00000000000E+00  0.00000000000E+00  0.11431303152E+03  0.11431303152E+03  0.00000000000E+00 0.  1.
         21   -1    0    0  501  503 -0.00000000000E+00 -0.00000000000E+00 -0.77830969303E+03  0.77830969303E+03  0.00000000000E+00 0.  1.
          6    1    1    2  501    0 -0.71256924750E+02 -0.43381240942E+02 -0.67347386513E+03  0.70032530185E+03  0.17300000000E+03 0.  1.
         -6    1    1    2    0  502  0.71256924750E+02  0.43381240942E+02  0.94772036210E+01  0.19229742270E+03  0.17300000000E+03 0.  1.
</event>
<event>
 4    1  0.5821292E+000  0.1000000E+03  0.7546771E-02  0.1280296E+00
         21   -1    0    0  501  502  0.00000000000E+00  0.00000000000E+00  0.87753695272E+03  0.87753695272E+03  0.00000000000E+00 0.  1.
         21   -1    0    0  502  503 -0.00000000000E+00 -0.00000000000E+00 -0.60081355283E+02  0.60081355283E+02  0.00000000000E+00 0.  1.
          6    1    1    2  501    0 -0.97961871313E+02  0.54439062009E+02  0.61527826937E+03  0.64888865645E+03  0.17300000000E+03 0.  1.
         -6    1    1    2    0  503  0.97961871313E+02 -0.54439062009E+02  0.20217732806E+03  0.28872965155E+03  0.17300000000E+03 0.  1.
</event>
<event>
 4    1  0.5821292E+000  0.1000000E+03  0.7546771E-02  0.1280296E+00
         21   -1    0    0  501  502  0.00000000000E+00  0.00000000000E+00  0.12165050706E+04  0.12165050706E+04  0.00000000000E+00 0.  1.
         21   -1    0    0  502  503 -0.00000000000E+00 -0.00000000000E+00 -0.26913909605E+02  0.26913909605E+02  0.00000000000E+00 0.  1.
          6    1    1    2  501    0  0.85656352879E+00  0.51983728192E+02  0.63064547561E+03  0.65600743716E+03  0.17300000000E+03 0.  1.
         -6    1    1    2    0  503 -0.85656352879E+00 -0.51983728192E+02  0.55894568543E+03  0.58741154309E+03  0.17300000000E+03 0.  1.
</event>
<event>
 4    1  0.5821292E+000  0.1000000E+03  0.7546771E-02  0.1280296E+00
         21   -1    0    0  503  502  0.00000000000E+00  0.00000000000E+00  0.34131454155E+03  0.34131454155E+03  0.00000000000E+00 0.  1.
         21   -1    0    0  501  503 -0.00000000000E+00 -0.00000000000E+00 -0.11997274494E+03  0.11997274494E+03  0.00000000000E+00 0. -1.
          6    1    1    2  501    0  0.42137345463E+02 -0.75021091325E+02  0.42134648553E+02  0.19775755013E+03  0.17300000000E+03 0. -1.
         -6    1    1    2    0  502 -0.42137345463E+02  0.75021091325E+02  0.17920714807E+03  0.26352973636E+03  0.17300000000E+03 0.  1.
</event>
<event>
 4    1  0.5821292E+000  0.1000000E+03  0.7546771E-02  0.1280296E+00
         21   -1    0    0  503  502  0.00000000000E+00  0.00000000000E+00  0.35179224913E+03  0.35179224913E+03  0.00000000000E+00 0.  1.
         21   -1    0    0  501  503 -0.00000000000E+00 -0.00000000000E+00 -0.20401998984E+03  0.20401998984E+03  0.00000000000E+00 0. -1.
          6    1    1    2  501    0 -0.83650880021E+02 -0.10258511237E+03 -0.87893005144E+02  0.23489434936E+03  0.17300000000E+03 0. -1.
         -6    1    1    2    0  502  0.83650880021E+02  0.10258511237E+03  0.23566526443E+03  0.32091788960E+03  0.17300000000E+03 0.  1.
</event>
<event>
 4    1  0.5821292E+000  0.1000000E+03  0.7546771E-02  0.1280296E+00
         21   -1    0    0  503  502  0.00000000000E+00  0.00000000000E+00  0.11438175328E+04  0.11438175328E+04  0.00000000000E+00 0.  1.
         21   -1    0    0  501  503 -0.00000000000E+00 -0.00000000000E+00 -0.10090096511E+03  0.10090096511E+03  0.00000000000E+00 0.  1.
          6    1    1    2  501    0 -0.10040495702E+03  0.79357136887E+02  0.39878179254E+02  0.21885607085E+03  0.17300000000E+03 0.  1.
         -6    1    1    2    0  502  0.10040495702E+03 -0.79357136887E+02  0.10030383884E+04  0.10258624270E+04  0.17300000000E+03 0.  1.
</event>
<event>
 4    1  0.5821292E+000  0.1000000E+03  0.7546771E-02  0.1280296E+00
         21   -1    0    0  501  502  0.00000000000E+00  0.00000000000E+00  0.11422262108E+04  0.11422262108E+04  0.00000000000E+00 0.  1.
         21   -1    0    0  502  503 -0.00000000000E+00 -0.00000000000E+00 -0.13742850034E+03  0.13742850034E+03  0.00000000000E+00 0. -1.
          6    1    1    2  501    0 -0.22853306055E+03  0.23477469830E+03  0.72905604977E+03  0.81780085744E+03  0.17300000000E+03 0.  1.
         -6    1    1    2    0  503  0.22853306055E+03 -0.23477469830E+03  0.27574166067E+03  0.46185385367E+03  0.17300000000E+03 0. -1.
</event>
<event>
 4    1  0.5821292E+000  0.1000000E+03  0.7546771E-02  0.1280296E+00
         21   -1    0    0  501  502  0.00000000000E+00  0.00000000000E+00  0.79707689074E+03  0.79707689074E+03  0.00000000000E+00 0.  1.
         21   -1    0    0  502  503 -0.00000000000E+00 -0.00000000000E+00 -0.72807120927E+02  0.72807120927E+02  0.00000000000E+00 0. -1.
          6    1    1    2  501    0 -0.76815177654E+02 -0.23333761111E+02  0.62784732526E+03  0.65617550987E+03  0.17300000000E+03 0.  1.
         -6    1    1    2    0  503  0.76815177654E+02  0.23333761111E+02  0.96422444559E+02  0.21370850180E+03  0.17300000000E+03 0. -1.
</event>
<event>
 4    1  0.5821292E+000  0.1000000E+03  0.7546771E-02  0.1280296E+00
         21   -1    0    0  501  502  0.00000000000E+00  0.00000000000E+00  0.25362587130E+03  0.25362587130E+03  0.00000000000E+00 0.  1.
         21   -1    0    0  502  503 -0.00000000000E+00 -0.00000000000E+00 -0.14440091905E+03  0.14440091905E+03  0.00000000000E+00 0.  1.
          6    1    1    2  501    0  0.40760352809E+02 -0.64050239610E+02  0.22882609485E+02  0.19030620949E+03  0.17300000000E+03 0.  1.
         -6    1    1    2    0  503 -0.40760352809E+02  0.64050239610E+02  0.86342342767E+02  0.20772058085E+03  0.17300000000E+03 0.  1.
</event>
<event>
 4    1  0.5821292E+000  0.1000000E+03  0.7546771E-02  0.1280296E+00
         21   -1    0    0  501  502  0.00000000000E+00  0.00000000000E+00  0.43982121882E+03  0.43982121882E+03  0.00000000000E+00 0.  1.
         21   -1    0    0  502  503 -0.00000000000E+00 -0.00000000000E+00 -0.17819828127E+03  0.17819828127E+03  0.00000000000E+00 0.  1.
          6    1    1    2  501    0  0.16350865142E+03 -0.68787548644E+01 -0.31650439699E+02  0.24023560663E+03  0.17300000000E+03 0.  1.
         -6    1    1    2    0  503 -0.16350865142E+03  0.68787548644E+01  0.29327337724E+03  0.37778389346E+03  0.17300000000E+03 0.  1.
</event>
<event>
 4    1  0.5821292E+000  0.1000000E+03  0.7546771E-02  0.1280296E+00
         21   -1    0    0  503  502  0.00000000000E+00  0.00000000000E+00  0.61160816451E+02  0.61160816451E+02  0.00000000000E+00 0. -1.
         21   -1    0    0  501  503 -0.00000000000E+00 -0.00000000000E+00 -0.12935168370E+04  0.12935168370E+04  0.00000000000E+00 0.  1.
          6    1    1    2  501    0  0.86538119079E+01 -0.28115700267E+02 -0.11455226336E+04  0.11588858810E+04  0.17300000000E+03 0.  1.
         -6    1    1    2    0  502 -0.86538119079E+01  0.28115700267E+02 -0.86833386886E+02  0.19579177240E+03  0.17300000000E+03 0. -1.
</event>
<event>
 4    1  0.5821292E+000  0.1000000E+03  0.7546771E-02  0.1280296E+00
         21   -1    0    0  503  502  0.00000000000E+00  0.00000000000E+00  0.10380444287E+03  0.10380444287E+03  0.00000000000E+00 0. -1.
         21   -1    0    0  501  503 -0.00000000000E+00 -0.00000000000E+00 -0.71102858933E+03  0.71102858933E+03  0.00000000000E+00 0.  1.
          6    1    1    2  501    0 -0.49920243725E+02  0.12971455565E+03 -0.53863509995E+03  0.58255872458E+03  0.17300000000E+03 0.  1.
         -6    1    1    2    0  502  0.49920243725E+02 -0.12971455565E+03 -0.68589046517E+02  0.23227430762E+03  0.17300000000E+03 0. -1.
</event>
<event>
 4    1  0.5821292E+000  0.1000000E+03  0.7546771E-02  0.1280296E+00
         21   -1    0    0  501  502  0.00000000000E+00  0.00000000000E+00  0.11700978999E+03  0.11700978999E+03  0.00000000000E+00 0. -1.
         21   -1    0    0  502  503 -0.00000000000E+00 -0.00000000000E+00 -0.34863058643E+03  0.34863058643E+03  0.00000000000E+00 0. -1.
          6    1    1    2  501    0  0.13119540933E+02 -0.56391486497E+01  0.32071177687E+01  0.17361799433E+03  0.17300000000E+03 0. -1.
         -6    1    1    2    0  503 -0.13119540933E+02  0.56391486497E+01 -0.23482791421E+03  0.29202238209E+03  0.17300000000E+03 0. -1.
</event>
<event>
 4    1  0.5821292E+000  0.1000000E+03  0.7546771E-02  0.1280296E+00
         21   -1    0    0  501  502  0.00000000000E+00  0.00000000000E+00  0.88409859648E+03  0.88409859648E+03  0.00000000000E+00 0. -1.
         21   -1    0    0  502  503 -0.00000000000E+00 -0.00000000000E+00 -0.56081286855E+02  0.56081286855E+02  0.00000000000E+00 0. -1.
          6    1    1    2  501    0  0.30035625172E+02  0.90303426112E+02  0.63132037994E+03  0.66147658286E+03  0.17300000000E+03 0. -1.
         -6    1    1    2    0  503 -0.30035625172E+02 -0.90303426112E+02  0.19669692969E+03  0.27870330048E+03  0.17300000000E+03 0. -1.
</event>
<event>
 4    1  0.5821292E+000  0.1000000E+03  0.7546771E-02  0.1280296E+00
         21   -1    0    0  501  502  0.00000000000E+00  0.00000000000E+00  0.42812874030E+02  0.42812874030E+02  0.00000000000E+00 0. -1.
         21   -1    0    0  502  503 -0.00000000000E+00 -0.00000000000E+00 -0.97941418555E+03  0.97941418555E+03  0.00000000000E+00 0.  1.
          6    1    1    2  501    0  0.69345830913E+02 -0.60023453292E+02 -0.31872970583E+03  0.37407122930E+03  0.17300000000E+03 0. -1.
         -6    1    1    2    0  503 -0.69345830913E+02  0.60023453292E+02 -0.61787160569E+03  0.64815583028E+03  0.17300000000E+03 0.  1.
</event>
<event>
 4    1  0.5821292E+000  0.1000000E+03  0.7546771E-02  0.1280296E+00
         21   -1    0    0  501  502  0.00000000000E+00  0.00000000000E+00  0.15140474682E+03  0.15140474682E+03  0.00000000000E+00 0. -1.
         21   -1    0    0  502  503 -0.00000000000E+00 -0.00000000000E+00 -0.35525862226E+03  0.35525862226E+03  0.00000000000E+00 0.  1.
          6    1    1    2  501    0  0.10311259363E+03  0.12167087028E+02  0.22991926542E+02  0.20307110493E+03  0.17300000000E+03 0. -1.
         -6    1    1    2    0  503 -0.10311259363E+03 -0.12167087028E+02 -0.22684580199E+03  0.30359226415E+03  0.17300000000E+03 0.  1.
</event>
<event>
 4    1  0.5821292E+000  0.1000000E+03  0.7546771E-02  0.1280296E+00
         21   -1    0    0  501  502  0.00000000000E+00  0.00000000000E+00  0.35567171705E+02  0.35567171705E+02  0.00000000000E+00 0. -1.
         21   -1    0    0  502  503 -0.00000000000E+00 -0.00000000000E+00 -0.86070434561E+03  0.86070434561E+03  0.00000000000E+00 0.  1.
          6    1    1    2  501    0  0.14142927148E+02  0.21995272371E+02 -0.41239016211E+03  0.44797149485E+03  0.17300000000E+03 0. -1.
         -6    1    1    2    0  503 -0.14142927148E+02 -0.21995272371E+02 -0.41274701180E+03  0.44830002246E+03  0.17300000000E+03 0.  1.
</event>
<event>
 4    1  0.5821292E+000  0.1000000E+03  0.7546771E-02  0.1280296E+00
         21   -1    0    0  501  502  0.00000000000E+00  0.00000000000E+00  0.88168745401E+02  0.88168745401E+02  0.00000000000E+00 0.  1.
         21   -1    0    0  502  503 -0.00000000000E+00 -0.00000000000E+00 -0.10462503384E+04  0.10462503384E+04  0.00000000000E+00 0. -1.
          6    1    1    2  501    0 -0.74142993029E+02  0.14569883035E+03 -0.12671365848E+03  0.26964918658E+03  0.17300000000E+03 0.  1.
         -6    1    1    2    0  503  0.74142993029E+02 -0.14569883035E+03 -0.83136793448E+03  0.86476989717E+03  0.17300000000E+03 0. -1.
</event>
<event>
 4    1  0.5821292E+000  0.1000000E+03  0.7546771E-02  0.1280296E+00
         21   -1    0    0  501  502  0.00000000000E+00  0.00000000000E+00  0.22377572922E+03  0.22377572922E+03  0.00000000000E+00 0.  1.
         21   -1    0    0  502  503 -0.00000000000E+00 -0.00000000000E+00 -0.23980167936E+03  0.23980167936E+03  0.00000000000E+00 0. -1.
          6    1    1    2  501    0  0.11076997385E+03  0.68048667023E+02 -0.90719458317E+02  0.23464788153E+03  0.17300000000E+03 0.  1.
         -6    1    1    2    0  503 -0.11076997385E+03 -0.68048667023E+02  0.74693508170E+02  0.22892952705E+03  0.17300000000E+03 0. -1.
</event>
<event>
 4    1  0.5821292E+000  0.1000000E+03  0.7546771E-02  0.1280296E+00
         21   -1    0    0  503  502  0.00000000000E+00  0.00000000000E+00  0.43393246988E+03  0.43393246988E+03  0.00000000000E+00 0.  1.
         21   -1    0    0  501  503 -0.00000000000E+00 -0.00000000000E+00 -0.19466302006E+03  0.19466302006E+03  0.00000000000E+00 0.  1.
          6    1    1    2  501    0  0.91849154530E+02 -0.49641829169E+02 -0.10627552816E+03  0.22830695626E+03  0.17300000000E+03 0.  1.
         -6    1    1    2    0  502 -0.91849154530E+02  0.49641829169E+02  0.34554497798E+03  0.40028853368E+03  0.17300000000E+03 0.  1.
</event>
<event>
 4    1  0.5821292E+000  0.1000000E+03  0.7546771E-02  0.1280296E+00
         21   -1    0    0  501  502  0.00000000000E+00  0.00000000000E+00  0.33391297558E+03  0.33391297558E+03  0.00000000000E+00 0. -1.
         21   -1    0    0  502  503 -0.00000000000E+00 -0.00000000000E+00 -0.13433386561E+03  0.13433386561E+03  0.00000000000E+00 0. -1.
          6    1    1    2  501    0 -0.90306499712E+02  0.44653978761E+02  0.17619765467E+03  0.26669056080E+03  0.17300000000E+03 0. -1.
         -6    1    1    2    0  503  0.90306499712E+02 -0.44653978761E+02  0.23381455295E+02  0.20155628038E+03  0.17300000000E+03 0. -1.
</event>
<event>
 4    1  0.5821292E+000  0.1000000E+03  0.7546771E-02  0.1280296E+00
         21   -1    0    0  501  502  0.00000000000E+00  0.00000000000E+00  0.18604095032E+03  0.18604095032E+03  0.00000000000E+00 0. -1.
         21   -1    0    0  502  503 -0.00000000000E+00 -0.00000000000E+00 -0.48306597129E+03  0.48306597129E+03  0.00000000000E+00 0. -1.
          6    1    1    2  501    0 -0.16513454045E+03 -0.11278144371E+03  0.91219084480E+01  0.26457754952E+03  0.17300000000E+03 0. -1.
         -6    1    1    2    0  503  0.16513454045E+03  0.11278144371E+03 -0.30614692942E+03  0.40452937210E+03  0.17300000000E+03 0. -1.
</event>
<event>
 4    1  0.5821292E+000  0.1000000E+03  0.7546771E-02  0.1280296E+00
         21   -1    0    0  501  502  0.00000000000E+00  0.00000000000E+00  0.53117705946E+03  0.53117705946E+03  0.00000000000E+00 0. -1.
         21   -1    0    0  502  503 -0.00000000000E+00 -0.00000000000E+00 -0.12340029801E+03  0.12340029801E+03  0.00000000000E+00 0. -1.
          6    1    1    2  501    0 -0.92591250587E+02  0.10544858629E+02  0.41368778250E+03  0.45798571497E+03  0.17300000000E+03 0. -1.
         -6    1    1    2    0  503  0.92591250587E+02 -0.10544858629E+02 -0.59110210495E+01  0.19659164249E+03  0.17300000000E+03 0. -1.
</event>
<event>
 4    1  0.5821292E+000  0.1000000E+03  0.7546771E-02  0.1280296E+00
         21   -1    0    0  503  502  0.00000000000E+00  0.00000000000E+00  0.71913126233E+03  0.71913126233E+03  0.00000000000E+00 0. -1.
         21   -1    0    0  501  503 -0.00000000000E+00 -0.00000000000E+00 -0.25023738955E+03  0.25023738955E+03  0.00000000000E+00 0. -1.
          6    1    1    2  501    0 -0.17227952546E+03  0.51448145844E+02 -0.15753151621E+03  0.29508020131E+03  0.17300000000E+03 0. -1.
         -6    1    1    2    0  502  0.17227952546E+03 -0.51448145844E+02  0.62642538899E+03  0.67428845057E+03  0.17300000000E+03 0. -1.
</event>
<event>
 4    1  0.5821292E+000  0.1000000E+03  0.7546771E-02  0.1280296E+00
         21   -1    0    0  503  502  0.00000000000E+00  0.00000000000E+00  0.61666183324E+03  0.61666183324E+03  0.00000000000E+00 0. -1.
         21   -1    0    0  501  503 -0.00000000000E+00 -0.00000000000E+00 -0.15598325597E+03  0.15598325597E+03  0.00000000000E+00 0. -1.
          6    1    1    2  501    0 -0.12780441427E+03  0.17139824223E+03  0.40889699224E+03  0.49278502007E+03  0.17300000000E+03 0. -1.
         -6    1    1    2    0  502  0.12780441427E+03 -0.17139824223E+03  0.51781585031E+02  0.27986006913E+03  0.17300000000E+03 0. -1.
</event>
<event>
 4    1  0.5821292E+000  0.1000000E+03  0.7546771E-02  0.1280296E+00
         21   -1    0    0  503  502  0.00000000000E+00  0.00000000000E+00  0.94590741085E+02  0.94590741085E+02  0.00000000000E+00 0. -1.
         21   -1    0    0  501  503 -0.00000000000E+00 -0.00000000000E+00 -0.88629147561E+03  0.88629147561E+03  0.00000000000E+00 0. -1.
          6    1    1    2  501    0 -0.10028287263E+03 -0.10529575960E+03 -0.70244195652E+03  0.73790077505E+03  0.17300000000E+03 0. -1.
         -6    1    1    2    0  502  0.10028287263E+03  0.10529575960E+03 -0.89258778000E+02  0.24298144164E+03  0.17300000000E+03 0. -1.
</event>
<event>
 4    1  0.5821292E+000  0.1000000E+03  0.7546771E-02  0.1280296E+00
         21   -1    0    0  503  502  0.00000000000E+00  0.00000000000E+00  0.32498308322E+04  0.32498308322E+04  0.00000000000E+00 0. -1.
         21   -1    0    0  501  503 -0.00000000000E+00 -0.00000000000E+00 -0.90480911484E+02  0.90480911484E+02  0.00000000000E+00 0.  1.
          6    1    1    2  501    0 -0.23141214268E+03 -0.22161671416E+03  0.34210046975E+03  0.49962714016E+03  0.17300000000E+03 0.  1.
         -6    1    1    2    0  502  0.23141214268E+03  0.22161671416E+03  0.28172494510E+04  0.28406846035E+04  0.17300000000E+03 0. -1.
</event>
<event>
 4    1  0.5821292E+000  0.1000000E+03  0.7546771E-02  0.1280296E+00
         21   -1    0    0  503  502  0.00000000000E+00  0.00000000000E+00  0.39941670922E+02  0.39941670922E+02  0.00000000000E+00 0. -1.
         21   -1    0    0  501  503 -0.00000000000E+00 -0.00000000000E+00 -0.10600185458E+04  0.10600185458E+04  0.00000000000E+00 0.  1.
          6    1    1    2  501    0 -0.98689098329E+02  0.51428856124E+02 -0.49655527925E+03  0.53747614898E+03  0.17300000000E+03 0.  1.
         -6    1    1    2    0  502  0.98689098329E+02 -0.51428856124E+02 -0.52352159559E+03  0.56248406770E+03  0.17300000000E+03 0. -1.
</event>
<event>
 4    1  0.5821292E+000  0.1000000E+03  0.7546771E-02  0.1280296E+00
         21   -1    0    0  503  502  0.00000000000E+00  0.00000000000E+00  0.45120238862E+03  0.45120238862E+03  0.00000000000E+00 0. -1.
         21   -1    0    0  501  503 -0.00000000000E+00 -0.00000000000E+00 -0.13946636298E+03  0.13946636298E+03  0.00000000000E+00 0.  1.
          6    1    1    2  501    0 -0.12496350837E+03 -0.61656592126E+02  0.18665609854E+02  0.22292334729E+03  0.17300000000E+03 0.  1.
         -6    1    1    2    0  502  0.12496350837E+03  0.61656592126E+02  0.29307041579E+03  0.36774540430E+03  0.17300000000E+03 0. -1.
</event>
<event>
 4    1  0.5821292E+000  0.1000000E+03  0.7546771E-02  0.1280296E+00
         21   -1    0    0  503  502  0.00000000000E+00  0.00000000000E+00  0.10927306094E+04  0.10927306094E+04  0.00000000000E+00 0. -1.
         21   -1    0    0  501  503 -0.00000000000E+00 -0.00000000000E+00 -0.38100877670E+02  0.38100877670E+02  0.00000000000E+00 0.  1.
          6    1    1    2  501    0 -0.93926244797E+02  0.48611121323E+02  0.46413653770E+03  0.50649472475E+03  0.17300000000E+03 0.  1.
         -6    1    1    2    0  502  0.93926244797E+02 -0.48611121323E+02  0.59049319401E+03  0.62433676229E+03  0.17300000000E+03 0. -1.
</event>
<event>
 4    1  0.5821292E+000  0.1000000E+03  0.7546771E-02  0.1280296E+00
         21   -1    0    0  503  502  0.00000000000E+00  0.00000000000E+00  0.97369063760E+03  0.97369063760E+03  0.00000000000E+00 0. -1.
         21   -1    0    0  501  503 -0.00000000000E+00 -0.00000000000E+00 -0.10187828195E+03  0.10187828195E+03  0.00000000000E+00 0. -1.
          6    1    1    2  501    0 -0.12859496120E+03 -0.84670638872E+02  0.71434482412E+02  0.24235854929E+03  0.17300000000E+03 0. -1.
         -6    1    1    2    0  502  0.12859496120E+03  0.84670638872E+02  0.80037787324E+03  0.83321037026E+03  0.17300000000E+03 0. -1.
</event>
<event>
 4    1  0.5821292E+000  0.1000000E+03  0.7546771E-02  0.1280296E+00
         21   -1    0    0  501  502  0.00000000000E+00  0.00000000000E+00  0.15276600465E+03  0.15276600465E+03  0.00000000000E+00 0. -1.
         21   -1    0    0  502  503 -0.00000000000E+00 -0.00000000000E+00 -0.23484626823E+03  0.23484626823E+03  0.00000000000E+00 0. -1.
          6    1    1    2  501    0 -0.12569786424E+02  0.69271069918E+02 -0.88287676887E+01  0.18698510047E+03  0.17300000000E+03 0. -1.
         -6    1    1    2    0  503  0.12569786424E+02 -0.69271069918E+02 -0.73251495891E+02  0.20062717241E+03  0.17300000000E+03 0. -1.
</event>
<event>
 4    1  0.5821292E+000  0.1000000E+03  0.7546771E-02  0.1280296E+00
         21   -1    0    0  501  502  0.00000000000E+00  0.00000000000E+00  0.34403817672E+02  0.34403817672E+02  0.00000000000E+00 0.  1.
         21   -1    0    0  502  503 -0.00000000000E+00 -0.00000000000E+00 -0.10415079655E+04  0.10415079655E+04  0.00000000000E+00 0. -1.
          6    1    1    2  501    0 -0.59401652044E+02 -0.43304970848E+02 -0.44007005334E+03  0.47853372776E+03  0.17300000000E+03 0.  1.
         -6    1    1    2    0  503  0.59401652044E+02  0.43304970848E+02 -0.56703409448E+03  0.59737805540E+03  0.17300000000E+03 0. -1.
</event>
<event>
 4    1  0.5821292E+000  0.1000000E+03  0.7546771E-02  0.1280296E+00
         21   -1    0    0  501  502  0.00000000000E+00  0.00000000000E+00  0.14993175192E+03  0.14993175192E+03  0.00000000000E+00 0. -1.
         21   -1    0    0  502  503 -0.00000000000E+00 -0.00000000000E+00 -0.37164377930E+03  0.37164377930E+03  0.00000000000E+00 0.  1.
          6    1    1    2  501    0 -0.88963848328E+02  0.11218141338E+03 -0.30479980399E+02  0.22662141342E+03  0.17300000000E+03 0. -1.
         -6    1    1    2    0  503  0.88963848328E+02 -0.11218141338E+03 -0.19123204698E+03  0.29495411780E+03  0.17300000000E+03 0.  1.
</event>
<event>
 4    1  0.5821292E+000  0.1000000E+03  0.7546771E-02  0.1280296E+00
         21   -1    0    0  501  502  0.00000000000E+00  0.00000000000E+00  0.12173487525E+03  0.12173487525E+03  0.00000000000E+00 0.  1.
         21   -1    0    0  502  503 -0.00000000000E+00 -0.00000000000E+00 -0.37739878468E+03  0.37739878468E+03  0.00000000000E+00 0. -1.
          6    1    1    2  501    0  0.38560108130E+02  0.11988029724E+03 -0.14234777071E+03  0.25700205336E+03  0.17300000000E+03 0.  1.
         -6    1    1    2    0  503 -0.38560108130E+02 -0.11988029724E+03 -0.11331613872E+03  0.24213160657E+03  0.17300000000E+03 0.  1.
</event>
<event>
 4    1  0.5821292E+000  0.1000000E+03  0.7546771E-02  0.1280296E+00
         21   -1    0    0  501  502  0.00000000000E+00  0.00000000000E+00  0.28951376768E+03  0.28951376768E+03  0.00000000000E+00 0.  1.
         21   -1    0    0  502  503 -0.00000000000E+00 -0.00000000000E+00 -0.18452411190E+03  0.18452411190E+03  0.00000000000E+00 0.  1.
          6    1    1    2  501    0  0.84510849044E+02 -0.12708530010E+03  0.67015742255E+02  0.24023502413E+03  0.17300000000E+03 0.  1.
         -6    1    1    2    0  503 -0.84510849044E+02  0.12708530010E+03  0.37973913528E+02  0.23380285545E+03  0.17300000000E+03 0.  1.
</event>
<event>
 4    1  0.5821292E+000  0.1000000E+03  0.7546771E-02  0.1280296E+00
         21   -1    0    0  501  502  0.00000000000E+00  0.00000000000E+00  0.12790956194E+04  0.12790956194E+04  0.00000000000E+00 0.  1.
         21   -1    0    0  502  503 -0.00000000000E+00 -0.00000000000E+00 -0.92714091778E+02  0.92714091778E+02  0.00000000000E+00 0. -1.
          6    1    1    2  501    0  0.43745781765E+02  0.26913297440E+02  0.11773714812E+04  0.11911215822E+04  0.17300000000E+03 0.  1.
         -6    1    1    2    0  503 -0.43745781765E+02 -0.26913297440E+02  0.90100464489E+01  0.18068812894E+03  0.17300000000E+03 0. -1.
</event>
<event>
 4    1  0.5821292E+000  0.1000000E+03  0.7546771E-02  0.1280296E+00
         21   -1    0    0  501  502  0.00000000000E+00  0.00000000000E+00  0.24890353434E+03  0.24890353434E+03  0.00000000000E+00 0.  1.
         21   -1    0    0  502  503 -0.00000000000E+00 -0.00000000000E+00 -0.28979077251E+03  0.28979077251E+03  0.00000000000E+00 0. -1.
          6    1    1    2  501    0 -0.33343832549E+02  0.39973357186E+02  0.17885537928E+03  0.25422023356E+03  0.17300000000E+03 0.  1.
         -6    1    1    2    0  503  0.33343832549E+02 -0.39973357186E+02 -0.21974261744E+03  0.28447407329E+03  0.17300000000E+03 0. -1.
</event>
<event>
 4    1  0.5821292E+000  0.1000000E+03  0.7546771E-02  0.1280296E+00
         21   -1    0    0  501  502  0.00000000000E+00  0.00000000000E+00  0.93169595502E+02  0.93169595502E+02  0.00000000000E+00 0.  1.
         21   -1    0    0  502  503 -0.00000000000E+00 -0.00000000000E+00 -0.10932494735E+04  0.10932494735E+04  0.00000000000E+00 0. -1.
          6    1    1    2  501    0 -0.80921313159E+01  0.40167662907E+02 -0.73955081771E+01  0.17793992603E+03  0.17300000000E+03 0.  1.
         -6    1    1    2    0  503  0.80921313159E+01 -0.40167662907E+02 -0.99268436985E+03  0.10084791430E+04  0.17300000000E+03 0. -1.
</event>
<event>
 4    1  0.5821292E+000  0.1000000E+03  0.7546771E-02  0.1280296E+00
         21   -1    0    0  501  502  0.00000000000E+00  0.00000000000E+00  0.86271702755E+02  0.86271702755E+02  0.00000000000E+00 0. -1.
         21   -1    0    0  502  503 -0.00000000000E+00 -0.00000000000E+00 -0.48844983688E+03  0.48844983688E+03  0.00000000000E+00 0.  1.
          6    1    1    2  501    0 -0.93221110826E+02  0.57380690795E+02 -0.17996654802E+03  0.27257967199E+03  0.17300000000E+03 0. -1.
         -6    1    1    2    0  503  0.93221110826E+02 -0.57380690795E+02 -0.22221158611E+03  0.30214186764E+03  0.17300000000E+03 0.  1.
</event>
<event>
 4    1  0.5821292E+000  0.1000000E+03  0.7546771E-02  0.1280296E+00
         21   -1    0    0  501  502  0.00000000000E+00  0.00000000000E+00  0.24382896820E+03  0.24382896820E+03  0.00000000000E+00 0.  1.
         21   -1    0    0  502  503 -0.00000000000E+00 -0.00000000000E+00 -0.38512286926E+03  0.38512286926E+03  0.00000000000E+00 0.  1.
          6    1    1    2  501    0 -0.25150795782E+03  0.28012476445E+01 -0.43282700031E+02  0.30832854547E+03  0.17300000000E+03 0.  1.
         -6    1    1    2    0  503  0.25150795782E+03 -0.28012476445E+01 -0.98011201030E+02  0.32062329198E+03  0.17300000000E+03 0.  1.
</event>
<event>
 4    1  0.5821292E+000  0.1000000E+03  0.7546771E-02  0.1280296E+00
         21   -1    0    0  501  502  0.00000000000E+00  0.00000000000E+00  0.56493762325E+03  0.56493762325E+03  0.00000000000E+00 0.  1.
         21   -1    0    0  502  503 -0.00000000000E+00 -0.00000000000E+00 -0.49804323735E+03  0.49804323735E+03  0.00000000000E+00 0.  1.
          6    1    1    2  501    0 -0.18759390354E+03  0.69550751887E+02  0.49414898604E+03  0.56048282769E+03  0.17300000000E+03 0.  1.
         -6    1    1    2    0  503  0.18759390354E+03 -0.69550751887E+02 -0.42725460014E+03  0.50249803290E+03  0.17300000000E+03 0.  1.
</event>
<event>
 4    1  0.5821292E+000  0.1000000E+03  0.7546771E-02  0.1280296E+00
         21   -1    0    0  501  502  0.00000000000E+00  0.00000000000E+00  0.34384070897E+02  0.34384070897E+02  0.00000000000E+00 0.  1.
         21   -1    0    0  502  503 -0.00000000000E+00 -0.00000000000E+00 -0.17563271701E+04  0.17563271701E+04  0.00000000000E+00 0. -1.
          6    1    1    2  501    0  0.11689687514E+03  0.12268745888E+03 -0.70883418532E+03  0.74906074137E+03  0.17300000000E+03 0.  1.
         -6    1    1    2    0  503 -0.11689687514E+03 -0.12268745888E+03 -0.10131089139E+04  0.10416504997E+04  0.17300000000E+03 0. -1.
</event>
<event>
 4    1  0.5821292E+000  0.1000000E+03  0.7546771E-02  0.1280296E+00
         21   -1    0    0  503  502  0.00000000000E+00  0.00000000000E+00  0.45761496999E+03  0.45761496999E+03  0.00000000000E+00 0.  1.
         21   -1    0    0  501  503 -0.00000000000E+00 -0.00000000000E+00 -0.32382233368E+03  0.32382233368E+03  0.00000000000E+00 0. -1.
          6    1    1    2  501    0 -0.99038247307E+02  0.19211501116E+02 -0.26678498827E+03  0.33358789872E+03  0.17300000000E+03 0. -1.
         -6    1    1    2    0  502  0.99038247307E+02 -0.19211501116E+02  0.40057762457E+03  0.44784940495E+03  0.17300000000E+03 0.  1.
</event>
<event>
 4    1  0.5821292E+000  0.1000000E+03  0.7546771E-02  0.1280296E+00
         21   -1    0    0  503  502  0.00000000000E+00  0.00000000000E+00  0.64346728321E+03  0.64346728321E+03  0.00000000000E+00 0.  1.
         21   -1    0    0  501  503 -0.00000000000E+00 -0.00000000000E+00 -0.86225726795E+02  0.86225726795E+02  0.00000000000E+00 0. -1.
          6    1    1    2  501    0 -0.73351643444E+02  0.14083580102E+03  0.25009174919E+03  0.34305986279E+03  0.17300000000E+03 0. -1.
         -6    1    1    2    0  502  0.73351643444E+02 -0.14083580102E+03  0.30714980722E+03  0.38663314721E+03  0.17300000000E+03 0.  1.
</event>
<event>
 4    1  0.5821292E+000  0.1000000E+03  0.7546771E-02  0.1280296E+00
         21   -1    0    0  503  502  0.00000000000E+00  0.00000000000E+00  0.12379907031E+04  0.12379907031E+04  0.00000000000E+00 0.  1.
         21   -1    0    0  501  503 -0.00000000000E+00 -0.00000000000E+00 -0.41330028648E+02  0.41330028648E+02  0.00000000000E+00 0. -1.
          6    1    1    2  501    0 -0.11096933181E+03  0.91997657511E+02  0.65894356325E+03  0.69635722236E+03  0.17300000000E+03 0. -1.
         -6    1    1    2    0  502  0.11096933181E+03 -0.91997657511E+02  0.53771711117E+03  0.58296350935E+03  0.17300000000E+03 0.  1.
</event>
<event>
 4    1  0.5821292E+000  0.1000000E+03  0.7546771E-02  0.1280296E+00
         21   -1    0    0  503  502  0.00000000000E+00  0.00000000000E+00  0.13070061076E+03  0.13070061076E+03  0.00000000000E+00 0.  1.
         21   -1    0    0  501  503 -0.00000000000E+00 -0.00000000000E+00 -0.52210220884E+03  0.52210220884E+03  0.00000000000E+00 0. -1.
          6    1    1    2  501    0  0.14890816640E+03 -0.11779760217E+03 -0.13629824878E+03  0.29078536710E+03  0.17300000000E+03 0. -1.
         -6    1    1    2    0  502 -0.14890816640E+03  0.11779760217E+03 -0.25510334930E+03  0.36201745251E+03  0.17300000000E+03 0.  1.
</event>
<event>
 4    1  0.5821292E+000  0.1000000E+03  0.7546771E-02  0.1280296E+00
         21   -1    0    0  501  502  0.00000000000E+00  0.00000000000E+00  0.14443954569E+04  0.14443954569E+04  0.00000000000E+00 0.  1.
         21   -1    0    0  502  503 -0.00000000000E+00 -0.00000000000E+00 -0.23957480871E+02  0.23957480871E+02  0.00000000000E+00 0.  1.
          6    1    1    2  501    0 -0.54052738651E+02  0.31984269290E+02  0.60355628133E+03  0.63099435558E+03  0.17300000000E+03 0.  1.
         -6    1    1    2    0  503  0.54052738651E+02 -0.31984269290E+02  0.81688169465E+03  0.83735858215E+03  0.17300000000E+03 0.  1.
</event>
<event>
 4    1  0.5821292E+000  0.1000000E+03  0.7546771E-02  0.1280296E+00
         21   -1    0    0  501  502  0.00000000000E+00  0.00000000000E+00  0.77068376481E+02  0.77068376481E+02  0.00000000000E+00 0.  1.
         21   -1    0    0  502  503 -0.00000000000E+00 -0.00000000000E+00 -0.46609745632E+03  0.46609745632E+03  0.00000000000E+00 0.  1.
          6    1    1    2  501    0 -0.19970853457E+02 -0.65056434254E+02 -0.14164726987E+03  0.23371804314E+03  0.17300000000E+03 0.  1.
         -6    1    1    2    0  503  0.19970853457E+02  0.65056434254E+02 -0.24738180996E+03  0.30944778966E+03  0.17300000000E+03 0.  1.
</event>
<event>
 4    1  0.5821292E+000  0.1000000E+03  0.7546771E-02  0.1280296E+00
         21   -1    0    0  501  502  0.00000000000E+00  0.00000000000E+00  0.20973789298E+03  0.20973789298E+03  0.00000000000E+00 0.  1.
         21   -1    0    0  502  503 -0.00000000000E+00 -0.00000000000E+00 -0.36509175539E+03  0.36509175539E+03  0.00000000000E+00 0.  1.
          6    1    1    2  501    0  0.20351830334E+03  0.16842575491E+02 -0.46663062620E+01  0.26768292167E+03  0.17300000000E+03 0.  1.
         -6    1    1    2    0  503 -0.20351830334E+03 -0.16842575491E+02 -0.15068755614E+03  0.30714672669E+03  0.17300000000E+03 0.  1.
</event>
<event>
 4    1  0.5821292E+000  0.1000000E+03  0.7546771E-02  0.1280296E+00
         21   -1    0    0  503  502  0.00000000000E+00  0.00000000000E+00  0.15314796788E+04  0.15314796788E+04  0.00000000000E+00 0.  1.
         21   -1    0    0  501  503 -0.00000000000E+00 -0.00000000000E+00 -0.37018236209E+02  0.37018236209E+02  0.00000000000E+00 0.  1.
          6    1    1    2  501    0 -0.15978142981E+03 -0.52532272541E+01  0.63284822128E+03  0.67526555731E+03  0.17300000000E+03 0.  1.
         -6    1    1    2    0  502  0.15978142981E+03  0.52532272541E+01  0.86161322129E+03  0.89323235768E+03  0.17300000000E+03 0.  1.
</event>
<event>
 4    1  0.5821292E+000  0.1000000E+03  0.7546771E-02  0.1280296E+00
         21   -1    0    0  501  502  0.00000000000E+00  0.00000000000E+00  0.21731059529E+03  0.21731059529E+03  0.00000000000E+00 0. -1.
         21   -1    0    0  502  503 -0.00000000000E+00 -0.00000000000E+00 -0.40551048817E+03  0.40551048817E+03  0.00000000000E+00 0.  1.
          6    1    1    2  501    0 -0.12892695851E+03  0.45745851015E+02  0.11433413670E+03  0.24842733008E+03  0.17300000000E+03 0. -1.
         -6    1    1    2    0  503  0.12892695851E+03 -0.45745851015E+02 -0.30253402959E+03  0.37439375338E+03  0.17300000000E+03 0.  1.
</event>
<event>
 4    1  0.5821292E+000  0.1000000E+03  0.7546771E-02  0.1280296E+00
         21   -1    0    0  503  502  0.00000000000E+00  0.00000000000E+00  0.20077858072E+03  0.20077858072E+03  0.00000000000E+00 0.  1.
         21   -1    0    0  501  503 -0.00000000000E+00 -0.00000000000E+00 -0.16472424116E+03  0.16472424116E+03  0.00000000000E+00 0. -1.
          6    1    1    2  501    0 -0.49767953278E+02  0.16664124189E+02 -0.18067647693E+01  0.18079492971E+03  0.17300000000E+03 0. -1.
         -6    1    1    2    0  502  0.49767953278E+02 -0.16664124189E+02  0.37861104334E+02  0.18470789217E+03  0.17300000000E+03 0.  1.
</event>
<event>
 4    1  0.5821292E+000  0.1000000E+03  0.7546771E-02  0.1280296E+00
         21   -1    0    0  501  502  0.00000000000E+00  0.00000000000E+00  0.11117328788E+03  0.11117328788E+03  0.00000000000E+00 0.  1.
         21   -1    0    0  502  503 -0.00000000000E+00 -0.00000000000E+00 -0.36910141644E+03  0.36910141644E+03  0.00000000000E+00 0.  1.
          6    1    1    2  501    0  0.82040291917E+02  0.36109552092E+02 -0.63273052355E+02  0.20485845944E+03  0.17300000000E+03 0.  1.
         -6    1    1    2    0  503 -0.82040291917E+02 -0.36109552092E+02 -0.19465507620E+03  0.27541624487E+03  0.17300000000E+03 0.  1.
</event>
<event>
 4    1  0.5821292E+000  0.1000000E+03  0.7546771E-02  0.1280296E+00
         21   -1    0    0  501  502  0.00000000000E+00  0.00000000000E+00  0.48485477564E+03  0.48485477564E+03  0.00000000000E+00 0.  1.
         21   -1    0    0  502  503 -0.00000000000E+00 -0.00000000000E+00 -0.41836835511E+03  0.41836835511E+03  0.00000000000E+00 0.  1.
          6    1    1    2  501    0  0.82757727265E+02  0.90902071392E+02  0.43157296739E+03  0.48093269195E+03  0.17300000000E+03 0.  1.
         -6    1    1    2    0  503 -0.82757727265E+02 -0.90902071392E+02 -0.36508654686E+03  0.42229043880E+03  0.17300000000E+03 0.  1.
</event>
<event>
 4    1  0.5821292E+000  0.1000000E+03  0.7546771E-02  0.1280296E+00
         21   -1    0    0  501  502  0.00000000000E+00  0.00000000000E+00  0.49436370835E+02  0.49436370835E+02  0.00000000000E+00 0.  1.
         21   -1    0    0  502  503 -0.00000000000E+00 -0.00000000000E+00 -0.68940923559E+03  0.68940923559E+03  0.00000000000E+00 0.  1.
          6    1    1    2  501    0 -0.54482883550E+01  0.46373458336E+02 -0.23110861332E+03  0.29243866474E+03  0.17300000000E+03 0.  1.
         -6    1    1    2    0  503  0.54482883550E+01 -0.46373458336E+02 -0.40886425143E+03  0.44640694168E+03  0.17300000000E+03 0.  1.
</event>
<event>
 4    1  0.5821292E+000  0.1000000E+03  0.7546771E-02  0.1280296E+00
         21   -1    0    0  501  502  0.00000000000E+00  0.00000000000E+00  0.23431486754E+03  0.23431486754E+03  0.00000000000E+00 0.  1.
         21   -1    0    0  502  503 -0.00000000000E+00 -0.00000000000E+00 -0.48542841189E+03  0.48542841189E+03  0.00000000000E+00 0.  1.
          6    1    1    2  501    0  0.10803824333E+03  0.43853782226E+02  0.15719896629E+03  0.26122008200E+03  0.17300000000E+03 0.  1.
         -6    1    1    2    0  503 -0.10803824333E+03 -0.43853782226E+02 -0.40831251064E+03  0.45852319743E+03  0.17300000000E+03 0.  1.
</event>
<event>
 4    1  0.5821292E+000  0.1000000E+03  0.7546771E-02  0.1280296E+00
         21   -1    0    0  503  502  0.00000000000E+00  0.00000000000E+00  0.17773871615E+03  0.17773871615E+03  0.00000000000E+00 0.  1.
         21   -1    0    0  501  503 -0.00000000000E+00 -0.00000000000E+00 -0.19092218325E+03  0.19092218325E+03  0.00000000000E+00 0. -1.
          6    1    1    2  501    0  0.10514054551E+02 -0.59914319971E+02 -0.24066949738E+02  0.18495537070E+03  0.17300000000E+03 0. -1.
         -6    1    1    2    0  502 -0.10514054551E+02  0.59914319971E+02  0.10883482633E+02  0.18370552870E+03  0.17300000000E+03 0.  1.
</event>
<event>
 4    1  0.5821292E+000  0.1000000E+03  0.7546771E-02  0.1280296E+00
         21   -1    0    0  501  502  0.00000000000E+00  0.00000000000E+00  0.33277400182E+03  0.33277400182E+03  0.00000000000E+00 0. -1.
         21   -1    0    0  502  503 -0.00000000000E+00 -0.00000000000E+00 -0.11408765310E+03  0.11408765310E+03  0.00000000000E+00 0. -1.
          6    1    1    2  501    0  0.26711120924E+02 -0.71438698365E+02  0.16336510767E+03  0.24986822529E+03  0.17300000000E+03 0. -1.
         -6    1    1    2    0  503 -0.26711120924E+02  0.71438698365E+02  0.55321241050E+02  0.19699342963E+03  0.17300000000E+03 0. -1.
</event>
<event>
 4    1  0.5821292E+000  0.1000000E+03  0.7546771E-02  0.1280296E+00
         21   -1    0    0  501  502  0.00000000000E+00  0.00000000000E+00  0.12682343760E+03  0.12682343760E+03  0.00000000000E+00 0. -1.
         21   -1    0    0  502  503 -0.00000000000E+00 -0.00000000000E+00 -0.82125665792E+03  0.82125665792E+03  0.00000000000E+00 0. -1.
          6    1    1    2  501    0 -0.15003979686E+03  0.32678742235E+02 -0.16658869302E+02  0.23191886246E+03  0.17300000000E+03 0. -1.
         -6    1    1    2    0  503  0.15003979686E+03 -0.32678742235E+02 -0.67777435103E+03  0.71616123306E+03  0.17300000000E+03 0. -1.
</event>
<event>
 4    1  0.5821292E+000  0.1000000E+03  0.7546771E-02  0.1280296E+00
         21   -1    0    0  501  502  0.00000000000E+00  0.00000000000E+00  0.21581937794E+03  0.21581937794E+03  0.00000000000E+00 0. -1.
         21   -1    0    0  502  503 -0.00000000000E+00 -0.00000000000E+00 -0.14379355504E+04  0.14379355504E+04  0.00000000000E+00 0. -1.
          6    1    1    2  501    0  0.49287289382E+03 -0.82900194571E+02 -0.35136978291E+03  0.63496917726E+03  0.17300000000E+03 0. -1.
         -6    1    1    2    0  503 -0.49287289382E+03  0.82900194571E+02 -0.87074638959E+03  0.10187857511E+04  0.17300000000E+03 0. -1.
</event>
<event>
 4    1  0.5821292E+000  0.1000000E+03  0.7546771E-02  0.1280296E+00
         21   -1    0    0  503  502  0.00000000000E+00  0.00000000000E+00  0.15630144609E+03  0.15630144609E+03  0.00000000000E+00 0. -1.
         21   -1    0    0  501  503 -0.00000000000E+00 -0.00000000000E+00 -0.50164571291E+03  0.50164571291E+03  0.00000000000E+00 0.  1.
          6    1    1    2  501    0  0.68125690857E+02  0.89214805109E+02 -0.39520720551E+03  0.44577811352E+03  0.17300000000E+03 0.  1.
         -6    1    1    2    0  502 -0.68125690857E+02 -0.89214805109E+02  0.49862938698E+02  0.21216904548E+03  0.17300000000E+03 0. -1.
</event>
<event>
 4    1  0.5821292E+000  0.1000000E+03  0.7546771E-02  0.1280296E+00
         21   -1    0    0  503  502  0.00000000000E+00  0.00000000000E+00  0.16605109796E+03  0.16605109796E+03  0.00000000000E+00 0. -1.
         21   -1    0    0  501  503 -0.00000000000E+00 -0.00000000000E+00 -0.41106949204E+03  0.41106949204E+03  0.00000000000E+00 0.  1.
          6    1    1    2  501    0 -0.24994215887E+02 -0.28563786626E+02 -0.33464118451E+03  0.37862160940E+03  0.17300000000E+03 0.  1.
         -6    1    1    2    0  502  0.24994215887E+02  0.28563786626E+02  0.89622790438E+02  0.19849898060E+03  0.17300000000E+03 0. -1.
</event>
<event>
 4    1  0.5821292E+000  0.1000000E+03  0.7546771E-02  0.1280296E+00
         21   -1    0    0  503  502  0.00000000000E+00  0.00000000000E+00  0.15140372481E+04  0.15140372481E+04  0.00000000000E+00 0. -1.
         21   -1    0    0  501  503 -0.00000000000E+00 -0.00000000000E+00 -0.26208418629E+02  0.26208418629E+02  0.00000000000E+00 0.  1.
          6    1    1    2  501    0  0.21558069941E+02  0.12402170198E+02  0.37444623810E+03  0.41322820503E+03  0.17300000000E+03 0.  1.
         -6    1    1    2    0  502 -0.21558069941E+02 -0.12402170198E+02  0.11133825914E+04  0.11270174617E+04  0.17300000000E+03 0. -1.
</event>
<event>
 4    1  0.5821292E+000  0.1000000E+03  0.7546771E-02  0.1280296E+00
         21   -1    0    0  503  502  0.00000000000E+00  0.00000000000E+00  0.29916445891E+03  0.29916445891E+03  0.00000000000E+00 0. -1.
         21   -1    0    0  501  503 -0.00000000000E+00 -0.00000000000E+00 -0.38882822184E+03  0.38882822184E+03  0.00000000000E+00 0.  1.
          6    1    1    2  501    0 -0.25418523078E+02 -0.10108033176E+03 -0.32202552653E+03  0.38012205213E+03  0.17300000000E+03 0.  1.
         -6    1    1    2    0  502  0.25418523078E+02  0.10108033176E+03  0.23236176359E+03  0.30787062862E+03  0.17300000000E+03 0. -1.
</event>
<event>
 4    1  0.5821292E+000  0.1000000E+03  0.7546771E-02  0.1280296E+00
         21   -1    0    0  503  502  0.00000000000E+00  0.00000000000E+00  0.22660782191E+03  0.22660782191E+03  0.00000000000E+00 0. -1.
         21   -1    0    0  501  503 -0.00000000000E+00 -0.00000000000E+00 -0.19031061332E+03  0.19031061332E+03  0.00000000000E+00 0.  1.
          6    1    1    2  501    0  0.93774892250E+02  0.25387550810E+02 -0.43392614949E+02  0.20310139631E+03  0.17300000000E+03 0.  1.
         -6    1    1    2    0  502 -0.93774892250E+02 -0.25387550810E+02  0.79689823542E+02  0.21381703891E+03  0.17300000000E+03 0. -1.
</event>
<event>
 4    1  0.5821292E+000  0.1000000E+03  0.7546771E-02  0.1280296E+00
         21   -1    0    0  503  502  0.00000000000E+00  0.00000000000E+00  0.21331016172E+04  0.21331016172E+04  0.00000000000E+00 0. -1.
         21   -1    0    0  501  503 -0.00000000000E+00 -0.00000000000E+00 -0.24269209923E+02  0.24269209923E+02  0.00000000000E+00 0. -1.
          6    1    1    2  501    0 -0.63666089282E+02 -0.92113544621E+02  0.59718514519E+03  0.63174154023E+03  0.17300000000E+03 0. -1.
         -6    1    1    2    0  502  0.63666089282E+02  0.92113544621E+02  0.15116472621E+04  0.15256292869E+04  0.17300000000E+03 0. -1.
</event>
<event>
 4    1  0.5821292E+000  0.1000000E+03  0.7546771E-02  0.1280296E+00
         21   -1    0    0  503  502  0.00000000000E+00  0.00000000000E+00  0.48222011010E+03  0.48222011010E+03  0.00000000000E+00 0. -1.
         21   -1    0    0  501  503 -0.00000000000E+00 -0.00000000000E+00 -0.14464837786E+03  0.14464837786E+03  0.00000000000E+00 0. -1.
          6    1    1    2  501    0 -0.14429270083E+03 -0.68868099518E+02  0.27066510194E+02  0.23711768095E+03  0.17300000000E+03 0. -1.
         -6    1    1    2    0  502  0.14429270083E+03  0.68868099518E+02  0.31050522205E+03  0.38975080701E+03  0.17300000000E+03 0. -1.
</event>
<event>
 4    1  0.5821292E+000  0.1000000E+03  0.7546771E-02  0.1280296E+00
         21   -1    0    0  503  502  0.00000000000E+00  0.00000000000E+00  0.83321721375E+03  0.83321721375E+03  0.00000000000E+00 0. -1.
         21   -1    0    0  501  503 -0.00000000000E+00 -0.00000000000E+00 -0.53597400512E+02  0.53597400512E+02  0.00000000000E+00 0. -1.
          6    1    1    2  501    0  0.10450540262E+03 -0.47356590240E+02  0.30679733900E+03  0.37042898514E+03  0.17300000000E+03 0. -1.
         -6    1    1    2    0  502 -0.10450540262E+03  0.47356590240E+02  0.47282247424E+03  0.51638562912E+03  0.17300000000E+03 0. -1.
</event>
<event>
 4    1  0.5821292E+000  0.1000000E+03  0.7546771E-02  0.1280296E+00
         21   -1    0    0  503  502  0.00000000000E+00  0.00000000000E+00  0.15888565481E+04  0.15888565481E+04  0.00000000000E+00 0. -1.
         21   -1    0    0  501  503 -0.00000000000E+00 -0.00000000000E+00 -0.22110684772E+02  0.22110684772E+02  0.00000000000E+00 0. -1.
          6    1    1    2  501    0 -0.65209166208E+02 -0.18616622865E+02  0.67785333275E+03  0.70286055141E+03  0.17300000000E+03 0. -1.
         -6    1    1    2    0  502  0.65209166208E+02  0.18616622865E+02  0.88889253060E+03  0.90810668148E+03  0.17300000000E+03 0. -1.
</event>
<event>
 4    1  0.5821292E+000  0.1000000E+03  0.7546771E-02  0.1280296E+00
         21   -1    0    0  503  502  0.00000000000E+00  0.00000000000E+00  0.13402698397E+03  0.13402698397E+03  0.00000000000E+00 0. -1.
         21   -1    0    0  501  503 -0.00000000000E+00 -0.00000000000E+00 -0.10983879321E+04  0.10983879321E+04  0.00000000000E+00 0. -1.
          6    1    1    2  501    0 -0.56700146637E+02  0.26340898385E+03 -0.82167743056E+03  0.88186280072E+03  0.17300000000E+03 0. -1.
         -6    1    1    2    0  502  0.56700146637E+02 -0.26340898385E+03 -0.14268351759E+03  0.35055211537E+03  0.17300000000E+03 0. -1.
</event>
<event>
 4    1  0.5821292E+000  0.1000000E+03  0.7546771E-02  0.1280296E+00
         21   -1    0    0  503  502  0.00000000000E+00  0.00000000000E+00  0.34200521100E+03  0.34200521100E+03  0.00000000000E+00 0.  1.
         21   -1    0    0  501  503 -0.00000000000E+00 -0.00000000000E+00 -0.10610646182E+03  0.10610646182E+03  0.00000000000E+00 0. -1.
          6    1    1    2  501    0  0.57841332807E+02  0.43712304133E+02  0.15702180370E+03  0.24462467608E+03  0.17300000000E+03 0. -1.
         -6    1    1    2    0  502 -0.57841332807E+02 -0.43712304133E+02  0.78876945486E+02  0.20348699674E+03  0.17300000000E+03 0.  1.
</event>
<event>
 4    1  0.5821292E+000  0.1000000E+03  0.7546771E-02  0.1280296E+00
         21   -1    0    0  503  502  0.00000000000E+00  0.00000000000E+00  0.46154959295E+03  0.46154959295E+03  0.00000000000E+00 0.  1.
         21   -1    0    0  501  503 -0.00000000000E+00 -0.00000000000E+00 -0.28986251188E+03  0.28986251188E+03  0.00000000000E+00 0.  1.
          6    1    1    2  501    0  0.95050320978E+02 -0.30730616345E+03  0.65681579738E+02  0.37109932838E+03  0.17300000000E+03 0.  1.
         -6    1    1    2    0  502 -0.95050320978E+02  0.30730616345E+03  0.10600550133E+03  0.38031277644E+03  0.17300000000E+03 0.  1.
</event>
<event>
 4    1  0.5821292E+000  0.1000000E+03  0.7546771E-02  0.1280296E+00
         21   -1    0    0  503  502  0.00000000000E+00  0.00000000000E+00  0.50128442510E+03  0.50128442510E+03  0.00000000000E+00 0.  1.
         21   -1    0    0  501  503 -0.00000000000E+00 -0.00000000000E+00 -0.17384077366E+03  0.17384077366E+03  0.00000000000E+00 0.  1.
          6    1    1    2  501    0  0.46405491880E+02  0.10322420997E+03 -0.77244885509E+02  0.22069091403E+03  0.17300000000E+03 0.  1.
         -6    1    1    2    0  502 -0.46405491880E+02 -0.10322420997E+03  0.40468853695E+03  0.45443428473E+03  0.17300000000E+03 0.  1.
</event>
<event>
 4    1  0.5821292E+000  0.1000000E+03  0.7546771E-02  0.1280296E+00
         21   -1    0    0  501  502  0.00000000000E+00  0.00000000000E+00  0.28235997887E+02  0.28235997887E+02  0.00000000000E+00 0. -1.
         21   -1    0    0  502  503 -0.00000000000E+00 -0.00000000000E+00 -0.13659172559E+04  0.13659172559E+04  0.00000000000E+00 0.  1.
          6    1    1    2  501    0 -0.21912938423E+02  0.83609302332E+02 -0.54751509711E+03  0.58066554390E+03  0.17300000000E+03 0. -1.
         -6    1    1    2    0  503  0.21912938423E+02 -0.83609302332E+02 -0.79016616092E+03  0.81348770991E+03  0.17300000000E+03 0.  1.
</event>
<event>
 4    1  0.5821292E+000  0.1000000E+03  0.7546771E-02  0.1280296E+00
         21   -1    0    0  501  502  0.00000000000E+00  0.00000000000E+00  0.20992269247E+03  0.20992269247E+03  0.00000000000E+00 0. -1.
         21   -1    0    0  502  503 -0.00000000000E+00 -0.00000000000E+00 -0.12299232209E+04  0.12299232209E+04  0.00000000000E+00 0.  1.
          6    1    1    2  501    0 -0.19049266722E+02  0.39311135341E+03 -0.12625049804E+03  0.44807097541E+03  0.17300000000E+03 0. -1.
         -6    1    1    2    0  503  0.19049266722E+02 -0.39311135341E+03 -0.89375003041E+03  0.99177493797E+03  0.17300000000E+03 0.  1.
</event>
<event>
 4    1  0.5821292E+000  0.1000000E+03  0.7546771E-02  0.1280296E+00
         21   -1    0    0  501  502  0.00000000000E+00  0.00000000000E+00  0.70871351059E+03  0.70871351059E+03  0.00000000000E+00 0.  1.
         21   -1    0    0  502  503 -0.00000000000E+00 -0.00000000000E+00 -0.75250678076E+02  0.75250678076E+02  0.00000000000E+00 0.  1.
          6    1    1    2  501    0 -0.13753980576E+03 -0.36543117393E+02  0.41198945077E+03  0.46895298820E+03  0.17300000000E+03 0.  1.
         -6    1    1    2    0  503  0.13753980576E+03  0.36543117393E+02  0.22147338174E+03  0.31501120046E+03  0.17300000000E+03 0.  1.
</event>
<event>
 4    1  0.5821292E+000  0.1000000E+03  0.7546771E-02  0.1280296E+00
         21   -1    0    0  501  502  0.00000000000E+00  0.00000000000E+00  0.83467442331E+02  0.83467442331E+02  0.00000000000E+00 0.  1.
         21   -1    0    0  502  503 -0.00000000000E+00 -0.00000000000E+00 -0.63868147467E+03  0.63868147467E+03  0.00000000000E+00 0.  1.
          6    1    1    2  501    0 -0.92241035939E+02  0.47741823680E+02 -0.45309631314E+03  0.49599693489E+03  0.17300000000E+03 0.  1.
         -6    1    1    2    0  503  0.92241035939E+02 -0.47741823680E+02 -0.10211771920E+03  0.22615198212E+03  0.17300000000E+03 0.  1.
</event>
<event>
 4    1  0.5821292E+000  0.1000000E+03  0.7546771E-02  0.1280296E+00
         21   -1    0    0  501  502  0.00000000000E+00  0.00000000000E+00  0.73255181870E+03  0.73255181870E+03  0.00000000000E+00 0.  1.
         21   -1    0    0  502  503 -0.00000000000E+00 -0.00000000000E+00 -0.80643788325E+02  0.80643788325E+02  0.00000000000E+00 0.  1.
          6    1    1    2  501    0  0.13454703067E+03  0.92015093379E+02  0.24103132429E+03  0.33851850786E+03  0.17300000000E+03 0.  1.
         -6    1    1    2    0  503 -0.13454703067E+03 -0.92015093379E+02  0.41087670609E+03  0.47467709917E+03  0.17300000000E+03 0.  1.
</event>
<event>
 4    1  0.5821292E+000  0.1000000E+03  0.7546771E-02  0.1280296E+00
         21   -1    0    0  501  502  0.00000000000E+00  0.00000000000E+00  0.81043888066E+02  0.81043888066E+02  0.00000000000E+00 0.  1.
         21   -1    0    0  502  503 -0.00000000000E+00 -0.00000000000E+00 -0.59217897166E+03  0.59217897166E+03  0.00000000000E+00 0.  1.
          6    1    1    2  501    0  0.88523949423E+02 -0.38445380744E+01 -0.10029229287E+03  0.21872085887E+03  0.17300000000E+03 0.  1.
         -6    1    1    2    0  503 -0.88523949423E+02  0.38445380744E+01 -0.41084279073E+03  0.45450200086E+03  0.17300000000E+03 0.  1.
</event>
<event>
 4    1  0.5821292E+000  0.1000000E+03  0.7546771E-02  0.1280296E+00
         21   -1    0    0  503  502  0.00000000000E+00  0.00000000000E+00  0.27637592301E+03  0.27637592301E+03  0.00000000000E+00 0.  1.
         21   -1    0    0  501  503 -0.00000000000E+00 -0.00000000000E+00 -0.12751849205E+03  0.12751849205E+03  0.00000000000E+00 0.  1.
          6    1    1    2  501    0 -0.79287583251E+01  0.47753332354E+02  0.13306109311E+03  0.22355648158E+03  0.17300000000E+03 0.  1.
         -6    1    1    2    0  502  0.79287583251E+01 -0.47753332354E+02  0.15796337849E+02  0.18033793347E+03  0.17300000000E+03 0.  1.
</event>
<event>
 4    1  0.5821292E+000  0.1000000E+03  0.7546771E-02  0.1280296E+00
         21   -1    0    0  503  502  0.00000000000E+00  0.00000000000E+00  0.31021099498E+03  0.31021099498E+03  0.00000000000E+00 0.  1.
         21   -1    0    0  501  503 -0.00000000000E+00 -0.00000000000E+00 -0.71932004451E+03  0.71932004451E+03  0.00000000000E+00 0.  1.
          6    1    1    2  501    0  0.90154061645E+02 -0.85538642871E+02 -0.66401250715E+03  0.69734225737E+03  0.17300000000E+03 0.  1.
         -6    1    1    2    0  502 -0.90154061645E+02  0.85538642871E+02  0.25490345763E+03  0.33218878212E+03  0.17300000000E+03 0.  1.
</event>
<event>
 4    1  0.5821292E+000  0.1000000E+03  0.7546771E-02  0.1280296E+00
         21   -1    0    0  503  502  0.00000000000E+00  0.00000000000E+00  0.15569708637E+03  0.15569708637E+03  0.00000000000E+00 0.  1.
         21   -1    0    0  501  503 -0.00000000000E+00 -0.00000000000E+00 -0.32609673555E+03  0.32609673555E+03  0.00000000000E+00 0.  1.
          6    1    1    2  501    0 -0.75249109871E+01  0.29946494929E+02 -0.23597644523E+03  0.29422321382E+03  0.17300000000E+03 0. -1.
         -6    1    1    2    0  502  0.75249109871E+01 -0.29946494929E+02  0.65576796058E+02  0.18757060811E+03  0.17300000000E+03 0. -1.
</event>
<event>
 4    1  0.5821292E+000  0.1000000E+03  0.7546771E-02  0.1280296E+00
         21   -1    0    0  501  502  0.00000000000E+00  0.00000000000E+00  0.20611355960E+03  0.20611355960E+03  0.00000000000E+00 0. -1.
         21   -1    0    0  502  503 -0.00000000000E+00 -0.00000000000E+00 -0.63834251820E+03  0.63834251820E+03  0.00000000000E+00 0. -1.
          6    1    1    2  501    0 -0.77975109805E+02 -0.42298024294E+02  0.14034105563E+03  0.23977875741E+03  0.17300000000E+03 0. -1.
         -6    1    1    2    0  503  0.77975109805E+02  0.42298024294E+02 -0.57257001423E+03  0.60467732040E+03  0.17300000000E+03 0. -1.
</event>
<event>
 4    1  0.5821292E+000  0.1000000E+03  0.7546771E-02  0.1280296E+00
         21   -1    0    0  501  502  0.00000000000E+00  0.00000000000E+00  0.11981476447E+03  0.11981476447E+03  0.00000000000E+00 0. -1.
         21   -1    0    0  502  503 -0.00000000000E+00 -0.00000000000E+00 -0.49848791226E+03  0.49848791226E+03  0.00000000000E+00 0. -1.
          6    1    1    2  501    0  0.63479841801E+02  0.33061524321E+02  0.93700977101E+01  0.18745547054E+03  0.17300000000E+03 0. -1.
         -6    1    1    2    0  503 -0.63479841801E+02 -0.33061524321E+02 -0.38804324550E+03  0.43084720619E+03  0.17300000000E+03 0. -1.
</event>
<event>
 4    1  0.5821292E+000  0.1000000E+03  0.7546771E-02  0.1280296E+00
         21   -1    0    0  501  502  0.00000000000E+00  0.00000000000E+00  0.19961359779E+03  0.19961359779E+03  0.00000000000E+00 0. -1.
         21   -1    0    0  502  503 -0.00000000000E+00 -0.00000000000E+00 -0.30774263786E+03  0.30774263786E+03  0.00000000000E+00 0. -1.
          6    1    1    2  501    0  0.21209441427E+02 -0.50117318627E+02  0.11884293027E+03  0.21682764609E+03  0.17300000000E+03 0. -1.
         -6    1    1    2    0  503 -0.21209441427E+02  0.50117318627E+02 -0.22697197035E+03  0.29052858957E+03  0.17300000000E+03 0. -1.
</event>
<event>
 4    1  0.5821292E+000  0.1000000E+03  0.7546771E-02  0.1280296E+00
         21   -1    0    0  503  502  0.00000000000E+00  0.00000000000E+00  0.17594214007E+03  0.17594214007E+03  0.00000000000E+00 0.  1.
         21   -1    0    0  501  503 -0.00000000000E+00 -0.00000000000E+00 -0.57541483633E+03  0.57541483633E+03  0.00000000000E+00 0. -1.
          6    1    1    2  501    0 -0.15460185045E+02  0.36165085096E+02 -0.51159362948E+03  0.54148312294E+03  0.17300000000E+03 0. -1.
         -6    1    1    2    0  502  0.15460185045E+02 -0.36165085096E+02  0.11212093322E+03  0.20987385347E+03  0.17300000000E+03 0.  1.
</event>
<event>
 4    1  0.5821292E+000  0.1000000E+03  0.7546771E-02  0.1280296E+00
         21   -1    0    0  503  502  0.00000000000E+00  0.00000000000E+00  0.35181228831E+03  0.35181228831E+03  0.00000000000E+00 0.  1.
         21   -1    0    0  501  503 -0.00000000000E+00 -0.00000000000E+00 -0.22744109166E+03  0.22744109166E+03  0.00000000000E+00 0. -1.
          6    1    1    2  501    0 -0.13757726591E+02 -0.22231788160E+03  0.84454798122E+02  0.29440809847E+03  0.17300000000E+03 0. -1.
         -6    1    1    2    0  502  0.13757726591E+02  0.22231788160E+03  0.39916398531E+02  0.28484528149E+03  0.17300000000E+03 0.  1.
</event>
<event>
 4    1  0.5821292E+000  0.1000000E+03  0.7546771E-02  0.1280296E+00
         21   -1    0    0  503  502  0.00000000000E+00  0.00000000000E+00  0.96070800254E+02  0.96070800254E+02  0.00000000000E+00 0.  1.
         21   -1    0    0  501  503 -0.00000000000E+00 -0.00000000000E+00 -0.40266578449E+03  0.40266578449E+03  0.00000000000E+00 0. -1.
          6    1    1    2  501    0  0.29220575127E+02 -0.13433353317E+02 -0.26470475787E+03  0.31785516486E+03  0.17300000000E+03 0. -1.
         -6    1    1    2    0  502 -0.29220575127E+02  0.13433353317E+02 -0.41890226363E+02  0.18088141988E+03  0.17300000000E+03 0.  1.
</event>
<event>
 4    1  0.5821292E+000  0.1000000E+03  0.7546771E-02  0.1280296E+00
         21   -1    0    0  503  502  0.00000000000E+00  0.00000000000E+00  0.95225381362E+03  0.95225381362E+03  0.00000000000E+00 0.  1.
         21   -1    0    0  501  503 -0.00000000000E+00 -0.00000000000E+00 -0.94921806020E+02  0.94921806020E+02  0.00000000000E+00 0. -1.
          6    1    1    2  501    0 -0.55081954509E+02  0.12600762559E+03  0.73681877155E+02  0.23295914329E+03  0.17300000000E+03 0. -1.
         -6    1    1    2    0  502  0.55081954509E+02 -0.12600762559E+03  0.78365013044E+03  0.81421647635E+03  0.17300000000E+03 0.  1.
</event>
<event>
 4    1  0.5821292E+000  0.1000000E+03  0.7546771E-02  0.1280296E+00
         21   -1    0    0  501  502  0.00000000000E+00  0.00000000000E+00  0.44224820145E+03  0.44224820145E+03  0.00000000000E+00 0. -1.
         21   -1    0    0  502  503 -0.00000000000E+00 -0.00000000000E+00 -0.21383159757E+03  0.21383159757E+03  0.00000000000E+00 0. -1.
          6    1    1    2  501    0  0.45581177572E+02  0.18484063593E+03  0.29395895795E+03  0.39062075393E+03  0.17300000000E+03 0. -1.
         -6    1    1    2    0  503 -0.45581177572E+02 -0.18484063593E+03 -0.65542354074E+02  0.26545904509E+03  0.17300000000E+03 0. -1.
</event>
<event>
 4    1  0.5821292E+000  0.1000000E+03  0.7546771E-02  0.1280296E+00
         21   -1    0    0  501  502  0.00000000000E+00  0.00000000000E+00  0.73438780687E+03  0.73438780687E+03  0.00000000000E+00 0. -1.
         21   -1    0    0  502  503 -0.00000000000E+00 -0.00000000000E+00 -0.12347280286E+03  0.12347280286E+03  0.00000000000E+00 0. -1.
          6    1    1    2  501    0 -0.19321117239E+03 -0.12553395179E+03  0.43011338498E+03  0.51770247645E+03  0.17300000000E+03 0. -1.
         -6    1    1    2    0  503  0.19321117239E+03  0.12553395179E+03  0.18080161903E+03  0.34015813327E+03  0.17300000000E+03 0. -1.
</event>
<event>
 4    1  0.5821292E+000  0.1000000E+03  0.7546771E-02  0.1280296E+00
         21   -1    0    0  503  502  0.00000000000E+00  0.00000000000E+00  0.14723566583E+04  0.14723566583E+04  0.00000000000E+00 0. -1.
         21   -1    0    0  501  503 -0.00000000000E+00 -0.00000000000E+00 -0.31321921104E+02  0.31321921104E+02  0.00000000000E+00 0. -1.
          6    1    1    2  501    0  0.10115255132E+02  0.12656216855E+03  0.69170286679E+03  0.72422521140E+03  0.17300000000E+03 0. -1.
         -6    1    1    2    0  502 -0.10115255132E+02 -0.12656216855E+03  0.74933187045E+03  0.77945336805E+03  0.17300000000E+03 0. -1.
</event>
<event>
 4    1  0.5821292E+000  0.1000000E+03  0.7546771E-02  0.1280296E+00
         21   -1    0    0  503  502  0.00000000000E+00  0.00000000000E+00  0.85256827803E+03  0.85256827803E+03  0.00000000000E+00 0. -1.
         21   -1    0    0  501  503 -0.00000000000E+00 -0.00000000000E+00 -0.75638847731E+02  0.75638847731E+02  0.00000000000E+00 0. -1.
          6    1    1    2  501    0 -0.44794480593E+02  0.82541603488E+01  0.59075041933E+02  0.18839728563E+03  0.17300000000E+03 0. -1.
         -6    1    1    2    0  502  0.44794480593E+02 -0.82541603488E+01  0.71785438837E+03  0.73980984013E+03  0.17300000000E+03 0. -1.
</event>
<event>
 4    1  0.5821292E+000  0.1000000E+03  0.7546771E-02  0.1280296E+00
         21   -1    0    0  501  502  0.00000000000E+00  0.00000000000E+00  0.41208199853E+03  0.41208199853E+03  0.00000000000E+00 0.  1.
         21   -1    0    0  502  503 -0.00000000000E+00 -0.00000000000E+00 -0.15859884772E+03  0.15859884772E+03  0.00000000000E+00 0. -1.
          6    1    1    2  501    0 -0.15645102682E+02  0.45402795249E+02  0.32986977368E+03  0.37556524153E+03  0.17300000000E+03 0. -1.
         -6    1    1    2    0  503  0.15645102682E+02 -0.45402795249E+02 -0.76386622876E+02  0.19511560473E+03  0.17300000000E+03 0. -1.
</event>
<event>
 4    1  0.5821292E+000  0.1000000E+03  0.7546771E-02  0.1280296E+00
         21   -1    0    0  501  502  0.00000000000E+00  0.00000000000E+00  0.34334111360E+03  0.34334111360E+03  0.00000000000E+00 0.  1.
         21   -1    0    0  502  503 -0.00000000000E+00 -0.00000000000E+00 -0.14060344321E+03  0.14060344321E+03  0.00000000000E+00 0. -1.
          6    1    1    2  501    0  0.35012472621E+02  0.24926536649E+02  0.24282767238E+03  0.30123327164E+03  0.17300000000E+03 0. -1.
         -6    1    1    2    0  503 -0.35012472621E+02 -0.24926536649E+02 -0.40090001988E+02  0.18271128517E+03  0.17300000000E+03 0. -1.
</event>
<event>
 4    1  0.5821292E+000  0.1000000E+03  0.7546771E-02  0.1280296E+00
         21   -1    0    0  501  502  0.00000000000E+00  0.00000000000E+00  0.64780235641E+02  0.64780235641E+02  0.00000000000E+00 0.  1.
         21   -1    0    0  502  503 -0.00000000000E+00 -0.00000000000E+00 -0.67444605419E+03  0.67444605419E+03  0.00000000000E+00 0. -1.
          6    1    1    2  501    0  0.39920269940E+02 -0.53819447033E+02 -0.13456602202E+03  0.22918807804E+03  0.17300000000E+03 0. -1.
         -6    1    1    2    0  503 -0.39920269940E+02  0.53819447033E+02 -0.47509979653E+03  0.51003821180E+03  0.17300000000E+03 0. -1.
</event>
<event>
 4    1  0.5821292E+000  0.1000000E+03  0.7546771E-02  0.1280296E+00
         21   -1    0    0  503  502  0.00000000000E+00  0.00000000000E+00  0.39787000289E+03  0.39787000289E+03  0.00000000000E+00 0. -1.
         21   -1    0    0  501  503 -0.00000000000E+00 -0.00000000000E+00 -0.10834653414E+03  0.10834653414E+03  0.00000000000E+00 0. -1.
          6    1    1    2  501    0 -0.65135187626E+02 -0.41685185948E+02  0.41330455282E+02  0.19395219496E+03  0.17300000000E+03 0. -1.
         -6    1    1    2    0  502  0.65135187626E+02  0.41685185948E+02  0.24819301347E+03  0.31226434207E+03  0.17300000000E+03 0. -1.
</event>
<event>
 4    1  0.5821292E+000  0.1000000E+03  0.7546771E-02  0.1280296E+00
         21   -1    0    0  501  502  0.00000000000E+00  0.00000000000E+00  0.92026555025E+02  0.92026555025E+02  0.00000000000E+00 0.  1.
         21   -1    0    0  502  503 -0.00000000000E+00 -0.00000000000E+00 -0.73465003068E+03  0.73465003068E+03  0.00000000000E+00 0.  1.
          6    1    1    2  501    0  0.80173674318E+02  0.14153333644E+03 -0.15293497013E+03  0.28244930247E+03  0.17300000000E+03 0.  1.
         -6    1    1    2    0  503 -0.80173674318E+02 -0.14153333644E+03 -0.48968850552E+03  0.54422728323E+03  0.17300000000E+03 0.  1.
</event>
<event>
 4    1  0.5821292E+000  0.1000000E+03  0.7546771E-02  0.1280296E+00
         21   -1    0    0  501  502  0.00000000000E+00  0.00000000000E+00  0.31330298147E+03  0.31330298147E+03  0.00000000000E+00 0.  1.
         21   -1    0    0  502  503 -0.00000000000E+00 -0.00000000000E+00 -0.17239065548E+03  0.17239065548E+03  0.00000000000E+00 0.  1.
          6    1    1    2  501    0 -0.15425975747E+02  0.74834417679E+02  0.21159471414E+03  0.28379477417E+03  0.17300000000E+03 0.  1.
         -6    1    1    2    0  503  0.15425975747E+02 -0.74834417679E+02 -0.70682388153E+02  0.20189886278E+03  0.17300000000E+03 0.  1.
</event>
<event>
 4    1  0.5821292E+000  0.1000000E+03  0.7546771E-02  0.1280296E+00
         21   -1    0    0  503  502  0.00000000000E+00  0.00000000000E+00  0.71345823268E+02  0.71345823268E+02  0.00000000000E+00 0. -1.
         21   -1    0    0  501  503 -0.00000000000E+00 -0.00000000000E+00 -0.54293091963E+03  0.54293091963E+03  0.00000000000E+00 0.  1.
          6    1    1    2  501    0  0.76518076585E+02 -0.46077478628E+02 -0.28071640785E+03  0.34162677254E+03  0.17300000000E+03 0.  1.
         -6    1    1    2    0  502 -0.76518076585E+02  0.46077478628E+02 -0.19086868851E+03  0.27264997036E+03  0.17300000000E+03 0. -1.
</event>
<event>
 4    1  0.5821292E+000  0.1000000E+03  0.7546771E-02  0.1280296E+00
         21   -1    0    0  503  502  0.00000000000E+00  0.00000000000E+00  0.11481914133E+03  0.11481914133E+03  0.00000000000E+00 0. -1.
         21   -1    0    0  501  503 -0.00000000000E+00 -0.00000000000E+00 -0.10073234733E+04  0.10073234733E+04  0.00000000000E+00 0.  1.
          6    1    1    2  501    0 -0.24476579185E+02 -0.25104916565E+03 -0.69154438667E+03  0.75616626825E+03  0.17300000000E+03 0.  1.
         -6    1    1    2    0  502  0.24476579185E+02  0.25104916565E+03 -0.20095994533E+03  0.36597634641E+03  0.17300000000E+03 0. -1.
</event>
<event>
 4    1  0.5821292E+000  0.1000000E+03  0.7546771E-02  0.1280296E+00
         21   -1    0    0  503  502  0.00000000000E+00  0.00000000000E+00  0.31701258200E+03  0.31701258200E+03  0.00000000000E+00 0. -1.
         21   -1    0    0  501  503 -0.00000000000E+00 -0.00000000000E+00 -0.60636422540E+03  0.60636422540E+03  0.00000000000E+00 0.  1.
          6    1    1    2  501    0  0.38304076946E+02 -0.42171852541E+02  0.27528748180E+03  0.33008766274E+03  0.17300000000E+03 0.  1.
         -6    1    1    2    0  502 -0.38304076946E+02  0.42171852541E+02 -0.56463912520E+03  0.59328914466E+03  0.17300000000E+03 0. -1.
</event>
<event>
 4    1  0.5821292E+000  0.1000000E+03  0.7546771E-02  0.1280296E+00
         21   -1    0    0  503  502  0.00000000000E+00  0.00000000000E+00  0.30379308827E+03  0.30379308827E+03  0.00000000000E+00 0.  1.
         21   -1    0    0  501  503 -0.00000000000E+00 -0.00000000000E+00 -0.11633905065E+03  0.11633905065E+03  0.00000000000E+00 0.  1.
          6    1    1    2  501    0 -0.40221518015E+02  0.61094598271E+02  0.84810353938E+02  0.20608764297E+03  0.17300000000E+03 0.  1.
         -6    1    1    2    0  502  0.40221518015E+02 -0.61094598271E+02  0.10264368368E+03  0.21404449595E+03  0.17300000000E+03 0.  1.
</event>
<event>
 4    1  0.5821292E+000  0.1000000E+03  0.7546771E-02  0.1280296E+00
         21   -1    0    0  503  502  0.00000000000E+00  0.00000000000E+00  0.35903106575E+03  0.35903106575E+03  0.00000000000E+00 0.  1.
         21   -1    0    0  501  503 -0.00000000000E+00 -0.00000000000E+00 -0.12862573809E+03  0.12862573809E+03  0.00000000000E+00 0.  1.
          6    1    1    2  501    0  0.36993454948E+01 -0.47202388393E+02 -0.19095979820E+02  0.18037573859E+03  0.17300000000E+03 0.  1.
         -6    1    1    2    0  502 -0.36993454948E+01  0.47202388393E+02  0.24950130748E+03  0.30728106525E+03  0.17300000000E+03 0.  1.
</event>
<event>
 4    1  0.5821292E+000  0.1000000E+03  0.7546771E-02  0.1280296E+00
         21   -1    0    0  503  502  0.00000000000E+00  0.00000000000E+00  0.33747124471E+03  0.33747124471E+03  0.00000000000E+00 0. -1.
         21   -1    0    0  501  503 -0.00000000000E+00 -0.00000000000E+00 -0.11094963694E+03  0.11094963694E+03  0.00000000000E+00 0. -1.
          6    1    1    2  501    0 -0.22336159148E+02  0.27876159252E+02  0.20477190651E+03  0.27043764153E+03  0.17300000000E+03 0. -1.
         -6    1    1    2    0  502  0.22336159148E+02 -0.27876159252E+02  0.21749701256E+02  0.17798324012E+03  0.17300000000E+03 0. -1.
</event>
<event>
 4    1  0.5821292E+000  0.1000000E+03  0.7546771E-02  0.1280296E+00
         21   -1    0    0  503  502  0.00000000000E+00  0.00000000000E+00  0.26579463715E+04  0.26579463715E+04  0.00000000000E+00 0. -1.
         21   -1    0    0  501  503 -0.00000000000E+00 -0.00000000000E+00 -0.21652198830E+02  0.21652198830E+02  0.00000000000E+00 0. -1.
          6    1    1    2  501    0 -0.42455462416E+02 -0.32765291479E+02  0.43960523366E+03  0.47545535235E+03  0.17300000000E+03 0. -1.
         -6    1    1    2    0  502  0.42455462416E+02  0.32765291479E+02  0.21966889390E+04  0.22041432180E+04  0.17300000000E+03 0. -1.
</event>
<event>
 4    1  0.5821292E+000  0.1000000E+03  0.7546771E-02  0.1280296E+00
         21   -1    0    0  503  502  0.00000000000E+00  0.00000000000E+00  0.75027899017E+02  0.75027899017E+02  0.00000000000E+00 0. -1.
         21   -1    0    0  501  503 -0.00000000000E+00 -0.00000000000E+00 -0.10404308601E+04  0.10404308601E+04  0.00000000000E+00 0. -1.
          6    1    1    2  501    0  0.21296643694E+02  0.20928213427E+03 -0.60704101047E+03  0.66534227819E+03  0.17300000000E+03 0. -1.
         -6    1    1    2    0  502 -0.21296643694E+02 -0.20928213427E+03 -0.35836195062E+03  0.45011648094E+03  0.17300000000E+03 0. -1.
</event>
<event>
 4    1  0.5821292E+000  0.1000000E+03  0.7546771E-02  0.1280296E+00
         21   -1    0    0  503  502  0.00000000000E+00  0.00000000000E+00  0.73596984964E+02  0.73596984964E+02  0.00000000000E+00 0. -1.
         21   -1    0    0  501  503 -0.00000000000E+00 -0.00000000000E+00 -0.68435380306E+03  0.68435380306E+03  0.00000000000E+00 0. -1.
          6    1    1    2  501    0 -0.48980660226E+02  0.12602528654E+03 -0.38378540728E+03  0.44215576075E+03  0.17300000000E+03 0. -1.
         -6    1    1    2    0  502  0.48980660226E+02 -0.12602528654E+03 -0.22697141081E+03  0.31579502727E+03  0.17300000000E+03 0. -1.
</event>
<event>
 4    1  0.5821292E+000  0.1000000E+03  0.7546771E-02  0.1280296E+00
         21   -1    0    0  503  502  0.00000000000E+00  0.00000000000E+00  0.81439382989E+02  0.81439382989E+02  0.00000000000E+00 0. -1.
         21   -1    0    0  501  503 -0.00000000000E+00 -0.00000000000E+00 -0.58408112773E+03  0.58408112773E+03  0.00000000000E+00 0. -1.
          6    1    1    2  501    0 -0.41723535279E+02  0.74700945311E+02 -0.40629418211E+03  0.44980556582E+03  0.17300000000E+03 0. -1.
         -6    1    1    2    0  502  0.41723535279E+02 -0.74700945311E+02 -0.96347562624E+02  0.21571494489E+03  0.17300000000E+03 0. -1.
</event>
<event>
 4    1  0.5821292E+000  0.1000000E+03  0.7546771E-02  0.1280296E+00
         21   -1    0    0  501  502  0.00000000000E+00  0.00000000000E+00  0.30428783055E+03  0.30428783055E+03  0.00000000000E+00 0. -1.
         21   -1    0    0  502  503 -0.00000000000E+00 -0.00000000000E+00 -0.14165420112E+03  0.14165420112E+03  0.00000000000E+00 0. -1.
          6    1    1    2  501    0 -0.72858715997E+01  0.11024805994E+03  0.11471240397E+03  0.23515028018E+03  0.17300000000E+03 0. -1.
         -6    1    1    2    0  503  0.72858715997E+01 -0.11024805994E+03  0.47921225454E+02  0.21079175148E+03  0.17300000000E+03 0. -1.
</event>
<event>
 4    1  0.5821292E+000  0.1000000E+03  0.7546771E-02  0.1280296E+00
         21   -1    0    0  501  502  0.00000000000E+00  0.00000000000E+00  0.49652262376E+02  0.49652262376E+02  0.00000000000E+00 0. -1.
         21   -1    0    0  502  503 -0.00000000000E+00 -0.00000000000E+00 -0.99283067022E+03  0.99283067022E+03  0.00000000000E+00 0. -1.
          6    1    1    2  501    0  0.73843277264E+02  0.11732943624E+03 -0.44300356943E+03  0.49537883355E+03  0.17300000000E+03 0. -1.
         -6    1    1    2    0  503 -0.73843277264E+02 -0.11732943624E+03 -0.50017483842E+03  0.54710409905E+03  0.17300000000E+03 0. -1.
</event>
<event>
 4    1  0.5821292E+000  0.1000000E+03  0.7546771E-02  0.1280296E+00
         21   -1    0    0  503  502  0.00000000000E+00  0.00000000000E+00  0.68530747953E+03  0.68530747953E+03  0.00000000000E+00 0. -1.
         21   -1    0    0  501  503 -0.00000000000E+00 -0.00000000000E+00 -0.62248718609E+02  0.62248718609E+02  0.00000000000E+00 0.  1.
          6    1    1    2  501    0  0.15460189926E+02  0.10830608544E+03  0.26159725330E+03  0.33216163016E+03  0.17300000000E+03 0.  1.
         -6    1    1    2    0  502 -0.15460189926E+02 -0.10830608544E+03  0.36146150763E+03  0.41539456798E+03  0.17300000000E+03 0. -1.
</event>
<event>
 4    1  0.5821292E+000  0.1000000E+03  0.7546771E-02  0.1280296E+00
         21   -1    0    0  503  502  0.00000000000E+00  0.00000000000E+00  0.64161330598E+03  0.64161330598E+03  0.00000000000E+00 0. -1.
         21   -1    0    0  501  503 -0.00000000000E+00 -0.00000000000E+00 -0.24577590475E+03  0.24577590475E+03  0.00000000000E+00 0.  1.
          6    1    1    2  501    0 -0.17851811379E+03 -0.11279502130E+03 -0.12431288134E+03  0.29995687399E+03  0.17300000000E+03 0.  1.
         -6    1    1    2    0  502  0.17851811379E+03  0.11279502130E+03  0.52015028258E+03  0.58743233674E+03  0.17300000000E+03 0. -1.
</event>
<event>
 4    1  0.5821292E+000  0.1000000E+03  0.7546771E-02  0.1280296E+00
         21   -1    0    0  503  502  0.00000000000E+00  0.00000000000E+00  0.67165327649E+02  0.67165327649E+02  0.00000000000E+00 0. -1.
         21   -1    0    0  501  503 -0.00000000000E+00 -0.00000000000E+00 -0.67666963503E+03  0.67666963503E+03  0.00000000000E+00 0.  1.
          6    1    1    2  501    0 -0.77768212188E+02  0.97322608810E+02 -0.30543394879E+03  0.37247614969E+03  0.17300000000E+03 0.  1.
         -6    1    1    2    0  502  0.77768212188E+02 -0.97322608810E+02 -0.30407035859E+03  0.37135881299E+03  0.17300000000E+03 0. -1.
</event>
<event>
 4    1  0.5821292E+000  0.1000000E+03  0.7546771E-02  0.1280296E+00
         21   -1    0    0  501  502  0.00000000000E+00  0.00000000000E+00  0.55747455957E+03  0.55747455957E+03  0.00000000000E+00 0.  1.
         21   -1    0    0  502  503 -0.00000000000E+00 -0.00000000000E+00 -0.83204322948E+02  0.83204322948E+02  0.00000000000E+00 0. -1.
          6    1    1    2  501    0 -0.83230060826E+02  0.67124721871E+02  0.34254400285E+03  0.39836963388E+03  0.17300000000E+03 0. -1.
         -6    1    1    2    0  503  0.83230060826E+02 -0.67124721871E+02  0.13172623378E+03  0.24230924864E+03  0.17300000000E+03 0.  1.
</event>
<event>
 4    1  0.5821292E+000  0.1000000E+03  0.7546771E-02  0.1280296E+00
         21   -1    0    0  501  502  0.00000000000E+00  0.00000000000E+00  0.72999275088E+02  0.72999275088E+02  0.00000000000E+00 0. -1.
         21   -1    0    0  502  503 -0.00000000000E+00 -0.00000000000E+00 -0.69199088105E+03  0.69199088105E+03  0.00000000000E+00 0. -1.
          6    1    1    2  501    0  0.27955511941E+01  0.49484866321E+02 -0.80352854419E+02  0.19708411482E+03  0.17300000000E+03 0.  1.
         -6    1    1    2    0  503 -0.27955511941E+01 -0.49484866321E+02 -0.53863875154E+03  0.56790604132E+03  0.17300000000E+03 0.  1.
</event>
<event>
 4    1  0.5821292E+000  0.1000000E+03  0.7546771E-02  0.1280296E+00
         21   -1    0    0  501  502  0.00000000000E+00  0.00000000000E+00  0.52619042332E+03  0.52619042332E+03  0.00000000000E+00 0. -1.
         21   -1    0    0  502  503 -0.00000000000E+00 -0.00000000000E+00 -0.71946395355E+02  0.71946395355E+02  0.00000000000E+00 0. -1.
          6    1    1    2  501    0 -0.11226931600E+02  0.68171118314E+02  0.31346064666E+03  0.36463669915E+03  0.17300000000E+03 0.  1.
         -6    1    1    2    0  503  0.11226931600E+02 -0.68171118314E+02  0.14078338131E+03  0.23350011952E+03  0.17300000000E+03 0.  1.
</event>
<event>
 4    1  0.5821292E+000  0.1000000E+03  0.7546771E-02  0.1280296E+00
         21   -1    0    0  503  502  0.00000000000E+00  0.00000000000E+00  0.24835427963E+04  0.24835427963E+04  0.00000000000E+00 0.  1.
         21   -1    0    0  501  503 -0.00000000000E+00 -0.00000000000E+00 -0.39868930157E+02  0.39868930157E+02  0.00000000000E+00 0.  1.
          6    1    1    2  501    0  0.19198465493E+03 -0.17950049078E+03  0.12336366939E+04  0.12731327607E+04  0.17300000000E+03 0.  1.
         -6    1    1    2    0  502 -0.19198465493E+03  0.17950049078E+03  0.12100371722E+04  0.12502789657E+04  0.17300000000E+03 0.  1.
</event>
<event>
 4    1  0.5821292E+000  0.1000000E+03  0.7546771E-02  0.1280296E+00
         21   -1    0    0  501  502  0.00000000000E+00  0.00000000000E+00  0.72306044524E+02  0.72306044524E+02  0.00000000000E+00 0.  1.
         21   -1    0    0  502  503 -0.00000000000E+00 -0.00000000000E+00 -0.10124140817E+04  0.10124140817E+04  0.00000000000E+00 0.  1.
          6    1    1    2  501    0  0.11157591035E+03 -0.39151520758E+02 -0.12696998128E+03  0.24501510462E+03  0.17300000000E+03 0.  1.
         -6    1    1    2    0  503 -0.11157591035E+03  0.39151520758E+02 -0.81313805587E+03  0.83970502157E+03  0.17300000000E+03 0.  1.
</event>
<event>
 4    1  0.5821292E+000  0.1000000E+03  0.7546771E-02  0.1280296E+00
         21   -1    0    0  501  502  0.00000000000E+00  0.00000000000E+00  0.17018670143E+03  0.17018670143E+03  0.00000000000E+00 0.  1.
         21   -1    0    0  502  503 -0.00000000000E+00 -0.00000000000E+00 -0.20303833852E+03  0.20303833852E+03  0.00000000000E+00 0.  1.
          6    1    1    2  501    0  0.12267530647E+02 -0.64202979300E+02  0.24332860603E+01  0.18495252294E+03  0.17300000000E+03 0.  1.
         -6    1    1    2    0  503 -0.12267530647E+02  0.64202979300E+02 -0.35284923149E+02  0.18827251701E+03  0.17300000000E+03 0.  1.
</event>
<event>
 4    1  0.5821292E+000  0.1000000E+03  0.7546771E-02  0.1280296E+00
         21   -1    0    0  501  502  0.00000000000E+00  0.00000000000E+00  0.58764456909E+03  0.58764456909E+03  0.00000000000E+00 0. -1.
         21   -1    0    0  502  503 -0.00000000000E+00 -0.00000000000E+00 -0.48100555326E+03  0.48100555326E+03  0.00000000000E+00 0. -1.
          6    1    1    2  501    0  0.75388692222E+02 -0.42882414979E+02  0.55098931055E+03  0.58398679503E+03  0.17300000000E+03 0. -1.
         -6    1    1    2    0  503 -0.75388692222E+02  0.42882414979E+02 -0.44435029472E+03  0.48466332732E+03  0.17300000000E+03 0. -1.
</event>
<event>
 4    1  0.5821292E+000  0.1000000E+03  0.7546771E-02  0.1280296E+00
         21   -1    0    0  501  502  0.00000000000E+00  0.00000000000E+00  0.79210819138E+02  0.79210819138E+02  0.00000000000E+00 0. -1.
         21   -1    0    0  502  503 -0.00000000000E+00 -0.00000000000E+00 -0.38453406761E+03  0.38453406761E+03  0.00000000000E+00 0. -1.
          6    1    1    2  501    0 -0.71044080974E+01  0.14475647559E+02 -0.13082097758E+03  0.21749286232E+03  0.17300000000E+03 0. -1.
         -6    1    1    2    0  503  0.71044080974E+01 -0.14475647559E+02 -0.17450227089E+03  0.24625202442E+03  0.17300000000E+03 0. -1.
</event>
<event>
 4    1  0.5821292E+000  0.1000000E+03  0.7546771E-02  0.1280296E+00
         21   -1    0    0  501  502  0.00000000000E+00  0.00000000000E+00  0.94042557424E+03  0.94042557424E+03  0.00000000000E+00 0. -1.
         21   -1    0    0  502  503 -0.00000000000E+00 -0.00000000000E+00 -0.45115200617E+02  0.45115200617E+02  0.00000000000E+00 0. -1.
          6    1    1    2  501    0 -0.67305830126E+02 -0.52607648297E+02  0.62018258090E+03  0.64950217327E+03  0.17300000000E+03 0. -1.
         -6    1    1    2    0  503  0.67305830126E+02  0.52607648297E+02  0.27512779272E+03  0.33603860158E+03  0.17300000000E+03 0. -1.
</event>
<event>
 4    1  0.5821292E+000  0.1000000E+03  0.7546771E-02  0.1280296E+00
         21   -1    0    0  501  502  0.00000000000E+00  0.00000000000E+00  0.24719376826E+03  0.24719376826E+03  0.00000000000E+00 0. -1.
         21   -1    0    0  502  503 -0.00000000000E+00 -0.00000000000E+00 -0.70533907923E+03  0.70533907923E+03  0.00000000000E+00 0. -1.
          6    1    1    2  501    0  0.16954913831E+03  0.28797027606E+03 -0.43549435708E+03  0.57555028038E+03  0.17300000000E+03 0. -1.
         -6    1    1    2    0  503 -0.16954913831E+03 -0.28797027606E+03 -0.22650953894E+02  0.37698256712E+03  0.17300000000E+03 0. -1.
</event>
<event>
 4    1  0.5821292E+000  0.1000000E+03  0.7546771E-02  0.1280296E+00
         21   -1    0    0  503  502  0.00000000000E+00  0.00000000000E+00  0.34963878817E+03  0.34963878817E+03  0.00000000000E+00 0. -1.
         21   -1    0    0  501  503 -0.00000000000E+00 -0.00000000000E+00 -0.13191289745E+03  0.13191289745E+03  0.00000000000E+00 0.  1.
          6    1    1    2  501    0 -0.11275761923E+03 -0.19776220105E+02  0.46566684629E+02  0.21260958514E+03  0.17300000000E+03 0.  1.
         -6    1    1    2    0  502  0.11275761923E+03  0.19776220105E+02  0.17115920609E+03  0.26894210047E+03  0.17300000000E+03 0. -1.
</event>
<event>
 4    1  0.5821292E+000  0.1000000E+03  0.7546771E-02  0.1280296E+00
         21   -1    0    0  503  502  0.00000000000E+00  0.00000000000E+00  0.40814206729E+03  0.40814206729E+03  0.00000000000E+00 0. -1.
         21   -1    0    0  501  503 -0.00000000000E+00 -0.00000000000E+00 -0.15556110069E+03  0.15556110069E+03  0.00000000000E+00 0.  1.
          6    1    1    2  501    0 -0.17473375274E+03 -0.22636069562E+02  0.18241736023E+03  0.30700060148E+03  0.17300000000E+03 0.  1.
         -6    1    1    2    0  502  0.17473375274E+03  0.22636069562E+02  0.70163606371E+02  0.25670256651E+03  0.17300000000E+03 0. -1.
</event>
<event>
 4    1  0.5821292E+000  0.1000000E+03  0.7546771E-02  0.1280296E+00
         21   -1    0    0  503  502  0.00000000000E+00  0.00000000000E+00  0.54022257097E+03  0.54022257097E+03  0.00000000000E+00 0. -1.
         21   -1    0    0  501  503 -0.00000000000E+00 -0.00000000000E+00 -0.13478513182E+03  0.13478513182E+03  0.00000000000E+00 0. -1.
          6    1    1    2  501    0 -0.18052553763E+03 -0.36010439449E+02  0.84070166982E+02  0.26623864194E+03  0.17300000000E+03 0. -1.
         -6    1    1    2    0  502  0.18052553763E+03  0.36010439449E+02  0.32136727217E+03  0.40876906085E+03  0.17300000000E+03 0. -1.
</event>
<event>
 4    1  0.5821292E+000  0.1000000E+03  0.7546771E-02  0.1280296E+00
         21   -1    0    0  503  502  0.00000000000E+00  0.00000000000E+00  0.11314830122E+03  0.11314830122E+03  0.00000000000E+00 0. -1.
         21   -1    0    0  501  503 -0.00000000000E+00 -0.00000000000E+00 -0.34348976576E+03  0.34348976576E+03  0.00000000000E+00 0. -1.
          6    1    1    2  501    0  0.51733476070E+02  0.61127687880E+02 -0.17334739445E+03  0.25766502661E+03  0.17300000000E+03 0. -1.
         -6    1    1    2    0  502 -0.51733476070E+02 -0.61127687880E+02 -0.56994070092E+02  0.19897304038E+03  0.17300000000E+03 0. -1.
</event>
<event>
 4    1  0.5821292E+000  0.1000000E+03  0.7546771E-02  0.1280296E+00
         21   -1    0    0  503  502  0.00000000000E+00  0.00000000000E+00  0.13713104584E+04  0.13713104584E+04  0.00000000000E+00 0. -1.
         21   -1    0    0  501  503 -0.00000000000E+00 -0.00000000000E+00 -0.58731609458E+02  0.58731609458E+02  0.00000000000E+00 0. -1.
          6    1    1    2  501    0  0.10594030115E+03  0.19746682967E+03  0.60629304851E+03  0.66913134503E+03  0.17300000000E+03 0. -1.
         -6    1    1    2    0  502 -0.10594030115E+03 -0.19746682967E+03  0.70628580042E+03  0.76091072282E+03  0.17300000000E+03 0. -1.
</event>
<event>
 4    1  0.5821292E+000  0.1000000E+03  0.7546771E-02  0.1280296E+00
         21   -1    0    0  501  502  0.00000000000E+00  0.00000000000E+00  0.13666132962E+03  0.13666132962E+03  0.00000000000E+00 0.  1.
         21   -1    0    0  502  503 -0.00000000000E+00 -0.00000000000E+00 -0.54188632101E+03  0.54188632101E+03  0.00000000000E+00 0. -1.
          6    1    1    2  501    0 -0.16879002798E+02  0.25005611201E+02  0.56563237699E+02  0.18449547741E+03  0.17300000000E+03 0.  1.
         -6    1    1    2    0  503  0.16879002798E+02 -0.25005611201E+02 -0.46178822910E+03  0.49405217321E+03  0.17300000000E+03 0. -1.
</event>
<event>
 4    1  0.5821292E+000  0.1000000E+03  0.7546771E-02  0.1280296E+00
         21   -1    0    0  501  502  0.00000000000E+00  0.00000000000E+00  0.41896163616E+03  0.41896163616E+03  0.00000000000E+00 0.  1.
         21   -1    0    0  502  503 -0.00000000000E+00 -0.00000000000E+00 -0.12598932812E+03  0.12598932812E+03  0.00000000000E+00 0. -1.
          6    1    1    2  501    0  0.87590765872E+02 -0.60498533431E+02  0.27379695541E+03  0.34091932712E+03  0.17300000000E+03 0.  1.
         -6    1    1    2    0  503 -0.87590765872E+02  0.60498533431E+02  0.19175352631E+02  0.20403163716E+03  0.17300000000E+03 0. -1.
</event>
<event>
 4    1  0.5821292E+000  0.1000000E+03  0.7546771E-02  0.1280296E+00
         21   -1    0    0  501  502  0.00000000000E+00  0.00000000000E+00  0.52174374174E+03  0.52174374174E+03  0.00000000000E+00 0.  1.
         21   -1    0    0  502  503 -0.00000000000E+00 -0.00000000000E+00 -0.15245097089E+03  0.15245097089E+03  0.00000000000E+00 0. -1.
          6    1    1    2  501    0  0.64443870380E+02  0.80820394747E+02  0.42046804826E+03  0.46626958752E+03  0.17300000000E+03 0.  1.
         -6    1    1    2    0  503 -0.64443870380E+02 -0.80820394747E+02 -0.51175277402E+02  0.20792512511E+03  0.17300000000E+03 0. -1.
</event>
<event>
 4    1  0.5821292E+000  0.1000000E+03  0.7546771E-02  0.1280296E+00
         21   -1    0    0  503  502  0.00000000000E+00  0.00000000000E+00  0.24451533883E+03  0.24451533883E+03  0.00000000000E+00 0. -1.
         21   -1    0    0  501  503 -0.00000000000E+00 -0.00000000000E+00 -0.21799199887E+03  0.21799199887E+03  0.00000000000E+00 0.  1.
          6    1    1    2  501    0  0.17979357327E+02 -0.80576860532E+02 -0.11562638764E+03  0.22386234445E+03  0.17300000000E+03 0. -1.
         -6    1    1    2    0  502 -0.17979357327E+02  0.80576860532E+02  0.14214972761E+03  0.23864499325E+03  0.17300000000E+03 0.  1.
</event>
<event>
 4    1  0.5821292E+000  0.1000000E+03  0.7546771E-02  0.1280296E+00
         21   -1    0    0  501  502  0.00000000000E+00  0.00000000000E+00  0.52662416742E+03  0.52662416742E+03  0.00000000000E+00 0. -1.
         21   -1    0    0  502  503 -0.00000000000E+00 -0.00000000000E+00 -0.52810094255E+03  0.52810094255E+03  0.00000000000E+00 0. -1.
          6    1    1    2  501    0  0.11481539821E+03  0.13711675071E+03  0.46423318580E+03  0.52671152426E+03  0.17300000000E+03 0. -1.
         -6    1    1    2    0  503 -0.11481539821E+03 -0.13711675071E+03 -0.46570996092E+03  0.52801358571E+03  0.17300000000E+03 0. -1.
</event>
<event>
 4    1  0.5821292E+000  0.1000000E+03  0.7546771E-02  0.1280296E+00
         21   -1    0    0  501  502  0.00000000000E+00  0.00000000000E+00  0.33899543781E+03  0.33899543781E+03  0.00000000000E+00 0.  1.
         21   -1    0    0  502  503 -0.00000000000E+00 -0.00000000000E+00 -0.21771359549E+03  0.21771359549E+03  0.00000000000E+00 0.  1.
          6    1    1    2  501    0  0.12186632501E+02 -0.76534010902E+02  0.26002945696E+03  0.32179230464E+03  0.17300000000E+03 0.  1.
         -6    1    1    2    0  503 -0.12186632501E+02  0.76534010902E+02 -0.13874761464E+03  0.23491672866E+03  0.17300000000E+03 0.  1.
</event>
<event>
 4    1  0.5821292E+000  0.1000000E+03  0.7546771E-02  0.1280296E+00
         21   -1    0    0  503  502  0.00000000000E+00  0.00000000000E+00  0.20258424494E+02  0.20258424494E+02  0.00000000000E+00 0.  1.
         21   -1    0    0  501  503 -0.00000000000E+00 -0.00000000000E+00 -0.18073391367E+04  0.18073391367E+04  0.00000000000E+00 0.  1.
          6    1    1    2  501    0 -0.79025958165E+02  0.18814019663E+02 -0.93776922522E+03  0.95704711962E+03  0.17300000000E+03 0.  1.
         -6    1    1    2    0  502  0.79025958165E+02 -0.18814019663E+02 -0.84931148697E+03  0.87055044156E+03  0.17300000000E+03 0.  1.
</event>
<event>
 4    1  0.5821292E+000  0.1000000E+03  0.7546771E-02  0.1280296E+00
         21   -1    0    0  503  502  0.00000000000E+00  0.00000000000E+00  0.28797994374E+03  0.28797994374E+03  0.00000000000E+00 0.  1.
         21   -1    0    0  501  503 -0.00000000000E+00 -0.00000000000E+00 -0.51196752948E+03  0.51196752948E+03  0.00000000000E+00 0.  1.
          6    1    1    2  501    0  0.11560059364E+03  0.14557702452E+03 -0.41200709827E+03  0.48397832218E+03  0.17300000000E+03 0.  1.
         -6    1    1    2    0  502 -0.11560059364E+03 -0.14557702452E+03  0.18801951254E+03  0.31596915104E+03  0.17300000000E+03 0.  1.
</event>
<event>
 4    1  0.5821292E+000  0.1000000E+03  0.7546771E-02  0.1280296E+00
         21   -1    0    0  503  502  0.00000000000E+00  0.00000000000E+00  0.77624606494E+03  0.77624606494E+03  0.00000000000E+00 0. -1.
         21   -1    0    0  501  503 -0.00000000000E+00 -0.00000000000E+00 -0.49525823615E+02  0.49525823615E+02  0.00000000000E+00 0. -1.
          6    1    1    2  501    0 -0.38713824103E+02  0.82491875134E+02  0.33273151205E+03  0.38593124874E+03  0.17300000000E+03 0.  1.
         -6    1    1    2    0  502  0.38713824103E+02 -0.82491875134E+02  0.39398872927E+03  0.43984063982E+03  0.17300000000E+03 0.  1.
</event>
<event>
 4    1  0.5821292E+000  0.1000000E+03  0.7546771E-02  0.1280296E+00
         21   -1    0    0  503  502  0.00000000000E+00  0.00000000000E+00  0.10006767566E+04  0.10006767566E+04  0.00000000000E+00 0. -1.
         21   -1    0    0  501  503 -0.00000000000E+00 -0.00000000000E+00 -0.81676697309E+02  0.81676697309E+02  0.00000000000E+00 0. -1.
          6    1    1    2  501    0  0.20744192836E+03  0.36870939955E+02  0.29653595979E+03  0.40280788882E+03  0.17300000000E+03 0.  1.
         -6    1    1    2    0  502 -0.20744192836E+03 -0.36870939955E+02  0.62246409951E+03  0.67954556509E+03  0.17300000000E+03 0.  1.
</event>
<event>
 4    1  0.5821292E+000  0.1000000E+03  0.7546771E-02  0.1280296E+00
         21   -1    0    0  503  502  0.00000000000E+00  0.00000000000E+00  0.49274135380E+03  0.49274135380E+03  0.00000000000E+00 0. -1.
         21   -1    0    0  501  503 -0.00000000000E+00 -0.00000000000E+00 -0.95626150683E+02  0.95626150683E+02  0.00000000000E+00 0. -1.
          6    1    1    2  501    0  0.67274455306E+02  0.86759975912E+02  0.10142439504E+03  0.22862426307E+03  0.17300000000E+03 0.  1.
         -6    1    1    2    0  502 -0.67274455306E+02 -0.86759975912E+02  0.29569080808E+03  0.35974324141E+03  0.17300000000E+03 0.  1.
</event>
<event>
 4    1  0.5821292E+000  0.1000000E+03  0.7546771E-02  0.1280296E+00
         21   -1    0    0  501  502  0.00000000000E+00  0.00000000000E+00  0.16524621986E+04  0.16524621986E+04  0.00000000000E+00 0.  1.
         21   -1    0    0  502  503 -0.00000000000E+00 -0.00000000000E+00 -0.85247617121E+02  0.85247617121E+02  0.00000000000E+00 0.  1.
          6    1    1    2  501    0  0.63890418345E+02  0.65129312104E+02  0.15251687872E+04  0.15376581682E+04  0.17300000000E+03 0.  1.
         -6    1    1    2    0  503 -0.63890418345E+02 -0.65129312104E+02  0.42045794283E+02  0.20005164750E+03  0.17300000000E+03 0.  1.
</event>
<event>
 4    1  0.5821292E+000  0.1000000E+03  0.7546771E-02  0.1280296E+00
         21   -1    0    0  503  502  0.00000000000E+00  0.00000000000E+00  0.40814192653E+03  0.40814192653E+03  0.00000000000E+00 0.  1.
         21   -1    0    0  501  503 -0.00000000000E+00 -0.00000000000E+00 -0.27665392497E+03  0.27665392497E+03  0.00000000000E+00 0.  1.
          6    1    1    2  501    0  0.78082252432E+02 -0.71356561292E+02 -0.20728491515E+03  0.28997350402E+03  0.17300000000E+03 0.  1.
         -6    1    1    2    0  502 -0.78082252432E+02  0.71356561292E+02  0.33877291670E+03  0.39482234749E+03  0.17300000000E+03 0.  1.
</event>
<event>
 4    1  0.5821292E+000  0.1000000E+03  0.7546771E-02  0.1280296E+00
         21   -1    0    0  503  502  0.00000000000E+00  0.00000000000E+00  0.54875617724E+02  0.54875617724E+02  0.00000000000E+00 0.  1.
         21   -1    0    0  501  503 -0.00000000000E+00 -0.00000000000E+00 -0.71737260659E+03  0.71737260659E+03  0.00000000000E+00 0.  1.
          6    1    1    2  501    0 -0.40067760835E+02 -0.32333799535E+00 -0.50347254808E+03  0.53387183544E+03  0.17300000000E+03 0.  1.
         -6    1    1    2    0  502  0.40067760835E+02  0.32333799535E+00 -0.15902444079E+03  0.23837638887E+03  0.17300000000E+03 0.  1.
</event>
<event>
 4    1  0.5821292E+000  0.1000000E+03  0.7546771E-02  0.1280296E+00
         21   -1    0    0  503  502  0.00000000000E+00  0.00000000000E+00  0.73717490696E+03  0.73717490696E+03  0.00000000000E+00 0.  1.
         21   -1    0    0  501  503 -0.00000000000E+00 -0.00000000000E+00 -0.14142959527E+03  0.14142959527E+03  0.00000000000E+00 0. -1.
          6    1    1    2  501    0 -0.30470996979E+02  0.10390039629E+03 -0.42546908055E+02  0.20847784868E+03  0.17300000000E+03 0. -1.
         -6    1    1    2    0  502  0.30470996979E+02 -0.10390039629E+03  0.63829221974E+03  0.67012665355E+03  0.17300000000E+03 0.  1.
</event>
<event>
 4    1  0.5821292E+000  0.1000000E+03  0.7546771E-02  0.1280296E+00
         21   -1    0    0  501  502  0.00000000000E+00  0.00000000000E+00  0.17048399026E+03  0.17048399026E+03  0.00000000000E+00 0.  1.
         21   -1    0    0  502  503 -0.00000000000E+00 -0.00000000000E+00 -0.79624345646E+03  0.79624345646E+03  0.00000000000E+00 0.  1.
          6    1    1    2  501    0 -0.31417920383E+02  0.25047081497E+02  0.11061702652E+03  0.20923567709E+03  0.17300000000E+03 0.  1.
         -6    1    1    2    0  503  0.31417920383E+02 -0.25047081497E+02 -0.73637649272E+03  0.75749176962E+03  0.17300000000E+03 0.  1.
</event>
<event>
 4    1  0.5821292E+000  0.1000000E+03  0.7546771E-02  0.1280296E+00
         21   -1    0    0  501  502  0.00000000000E+00  0.00000000000E+00  0.92747773024E+03  0.92747773024E+03  0.00000000000E+00 0.  1.
         21   -1    0    0  502  503 -0.00000000000E+00 -0.00000000000E+00 -0.18882601082E+03  0.18882601082E+03  0.00000000000E+00 0.  1.
          6    1    1    2  501    0  0.18147416948E+03  0.35592020185E+02  0.81368854737E+03  0.85218408704E+03  0.17300000000E+03 0.  1.
         -6    1    1    2    0  503 -0.18147416948E+03 -0.35592020185E+02 -0.75036827952E+02  0.26411965402E+03  0.17300000000E+03 0.  1.
</event>
<event>
 4    1  0.5821292E+000  0.1000000E+03  0.7546771E-02  0.1280296E+00
         21   -1    0    0  501  502  0.00000000000E+00  0.00000000000E+00  0.54209792991E+03  0.54209792991E+03  0.00000000000E+00 0.  1.
         21   -1    0    0  502  503 -0.00000000000E+00 -0.00000000000E+00 -0.11836579672E+03  0.11836579672E+03  0.00000000000E+00 0.  1.
          6    1    1    2  501    0 -0.26519917997E+02  0.12529259525E+03  0.38596950741E+03  0.44193099136E+03  0.17300000000E+03 0.  1.
         -6    1    1    2    0  503  0.26519917997E+02 -0.12529259525E+03  0.37762625774E+02  0.21853273526E+03  0.17300000000E+03 0.  1.
</event>
<event>
 4    1  0.5821292E+000  0.1000000E+03  0.7546771E-02  0.1280296E+00
         21   -1    0    0  501  502  0.00000000000E+00  0.00000000000E+00  0.50774851738E+03  0.50774851738E+03  0.00000000000E+00 0. -1.
         21   -1    0    0  502  503 -0.00000000000E+00 -0.00000000000E+00 -0.69967814304E+02  0.69967814304E+02  0.00000000000E+00 0. -1.
          6    1    1    2  501    0 -0.44629337333E+01 -0.27632151532E+02  0.32521799310E+03  0.36943090912E+03  0.17300000000E+03 0. -1.
         -6    1    1    2    0  503  0.44629337333E+01  0.27632151532E+02  0.11256270997E+03  0.20828542256E+03  0.17300000000E+03 0. -1.
</event>
<event>
 4    1  0.5821292E+000  0.1000000E+03  0.7546771E-02  0.1280296E+00
         21   -1    0    0  501  502  0.00000000000E+00  0.00000000000E+00  0.93919556540E+02  0.93919556540E+02  0.00000000000E+00 0. -1.
         21   -1    0    0  502  503 -0.00000000000E+00 -0.00000000000E+00 -0.43079561333E+03  0.43079561333E+03  0.00000000000E+00 0. -1.
          6    1    1    2  501    0  0.73355045574E+02  0.62929404101E+02 -0.12344300677E+03  0.23347001635E+03  0.17300000000E+03 0. -1.
         -6    1    1    2    0  503 -0.73355045574E+02 -0.62929404101E+02 -0.21343305002E+03  0.29124515353E+03  0.17300000000E+03 0. -1.
</event>
<event>
 4    1  0.5821292E+000  0.1000000E+03  0.7546771E-02  0.1280296E+00
         21   -1    0    0  503  502  0.00000000000E+00  0.00000000000E+00  0.33572286851E+03  0.33572286851E+03  0.00000000000E+00 0. -1.
         21   -1    0    0  501  503 -0.00000000000E+00 -0.00000000000E+00 -0.24479114605E+03  0.24479114605E+03  0.00000000000E+00 0. -1.
          6    1    1    2  501    0 -0.85792501099E+01  0.34331822895E+02 -0.18319008560E+03  0.25444033693E+03  0.17300000000E+03 0. -1.
         -6    1    1    2    0  502  0.85792501099E+01 -0.34331822895E+02  0.27412180806E+03  0.32607367764E+03  0.17300000000E+03 0. -1.
</event>
<event>
 4    1  0.5821292E+000  0.1000000E+03  0.7546771E-02  0.1280296E+00
         21   -1    0    0  503  502  0.00000000000E+00  0.00000000000E+00  0.74044629632E+03  0.74044629632E+03  0.00000000000E+00 0. -1.
         21   -1    0    0  501  503 -0.00000000000E+00 -0.00000000000E+00 -0.73031066093E+02  0.73031066093E+02  0.00000000000E+00 0. -1.
          6    1    1    2  501    0 -0.28958023660E+02 -0.15164241296E+03  0.30278294357E+03  0.38136662080E+03  0.17300000000E+03 0. -1.
         -6    1    1    2    0  502  0.28958023660E+02  0.15164241296E+03  0.36463228665E+03  0.43211074161E+03  0.17300000000E+03 0. -1.
</event>
<event>
 4    1  0.5821292E+000  0.1000000E+03  0.7546771E-02  0.1280296E+00
         21   -1    0    0  501  502  0.00000000000E+00  0.00000000000E+00  0.13747842798E+04  0.13747842798E+04  0.00000000000E+00 0. -1.
         21   -1    0    0  502  503 -0.00000000000E+00 -0.00000000000E+00 -0.44128632430E+02  0.44128632430E+02  0.00000000000E+00 0.  1.
          6    1    1    2  501    0  0.91813701103E+02 -0.10467803963E+03  0.97220688292E+03  0.99724744717E+03  0.17300000000E+03 0.  1.
         -6    1    1    2    0  503 -0.91813701103E+02  0.10467803963E+03  0.35844876446E+03  0.42166546507E+03  0.17300000000E+03 0. -1.
</event>
<event>
 4    1  0.5821292E+000  0.1000000E+03  0.7546771E-02  0.1280296E+00
         21   -1    0    0  503  502  0.00000000000E+00  0.00000000000E+00  0.36968779643E+03  0.36968779643E+03  0.00000000000E+00 0.  1.
         21   -1    0    0  501  503 -0.00000000000E+00 -0.00000000000E+00 -0.27373116206E+03  0.27373116206E+03  0.00000000000E+00 0.  1.
          6    1    1    2  501    0 -0.11260946525E+03  0.11737335572E+03 -0.16609632417E+03  0.28978334182E+03  0.17300000000E+03 0.  1.
         -6    1    1    2    0  502  0.11260946525E+03 -0.11737335572E+03  0.26205295854E+03  0.35363561667E+03  0.17300000000E+03 0.  1.
</event>
<event>
 4    1  0.5821292E+000  0.1000000E+03  0.7546771E-02  0.1280296E+00
         21   -1    0    0  503  502  0.00000000000E+00  0.00000000000E+00  0.53042950934E+02  0.53042950934E+02  0.00000000000E+00 0.  1.
         21   -1    0    0  501  503 -0.00000000000E+00 -0.00000000000E+00 -0.11319758990E+04  0.11319758990E+04  0.00000000000E+00 0.  1.
          6    1    1    2  501    0 -0.57960625373E+02 -0.90644856000E+02 -0.86869629826E+03  0.89226575785E+03  0.17300000000E+03 0.  1.
         -6    1    1    2    0  502  0.57960625373E+02  0.90644856000E+02 -0.21023664985E+03  0.29275309213E+03  0.17300000000E+03 0.  1.
</event>
<event>
 4    1  0.5821292E+000  0.1000000E+03  0.7546771E-02  0.1280296E+00
         21   -1    0    0  503  502  0.00000000000E+00  0.00000000000E+00  0.77851391193E+03  0.77851391193E+03  0.00000000000E+00 0.  1.
         21   -1    0    0  501  503 -0.00000000000E+00 -0.00000000000E+00 -0.15147144626E+03  0.15147144626E+03  0.00000000000E+00 0.  1.
          6    1    1    2  501    0 -0.92421054957E+01 -0.60227945997E+02 -0.79586766192E+02  0.19993967927E+03  0.17300000000E+03 0.  1.
         -6    1    1    2    0  502  0.92421054957E+01  0.60227945997E+02  0.70662923186E+03  0.73004567893E+03  0.17300000000E+03 0.  1.
</event>
<event>
 4    1  0.5821292E+000  0.1000000E+03  0.7546771E-02  0.1280296E+00
         21   -1    0    0  503  502  0.00000000000E+00  0.00000000000E+00  0.11369119155E+03  0.11369119155E+03  0.00000000000E+00 0.  1.
         21   -1    0    0  501  503 -0.00000000000E+00 -0.00000000000E+00 -0.38023100624E+03  0.38023100624E+03  0.00000000000E+00 0.  1.
          6    1    1    2  501    0  0.94772817813E+02  0.84183707206E+01 -0.21067877185E+03  0.28873396210E+03  0.17300000000E+03 0.  1.
         -6    1    1    2    0  502 -0.94772817813E+02 -0.84183707206E+01 -0.55861042840E+02  0.20518823570E+03  0.17300000000E+03 0.  1.
</event>
<event>
 4    1  0.5821292E+000  0.1000000E+03  0.7546771E-02  0.1280296E+00
         21   -1    0    0  503  502  0.00000000000E+00  0.00000000000E+00  0.11051650324E+03  0.11051650324E+03  0.00000000000E+00 0.  1.
         21   -1    0    0  501  503 -0.00000000000E+00 -0.00000000000E+00 -0.44229559820E+03  0.44229559820E+03  0.00000000000E+00 0.  1.
          6    1    1    2  501    0 -0.41483931682E+02 -0.10002060976E+03 -0.27217024885E+03  0.34019212707E+03  0.17300000000E+03 0.  1.
         -6    1    1    2    0  502  0.41483931682E+02  0.10002060976E+03 -0.59608846114E+02  0.21261997437E+03  0.17300000000E+03 0.  1.
</event>
<event>
 4    1  0.5821292E+000  0.1000000E+03  0.7546771E-02  0.1280296E+00
         21   -1    0    0  503  502  0.00000000000E+00  0.00000000000E+00  0.63611011163E+03  0.63611011163E+03  0.00000000000E+00 0.  1.
         21   -1    0    0  501  503 -0.00000000000E+00 -0.00000000000E+00 -0.37233267997E+03  0.37233267997E+03  0.00000000000E+00 0.  1.
          6    1    1    2  501    0 -0.17604101662E+03 -0.18517768446E+02 -0.30225131166E+03  0.39066379750E+03  0.17300000000E+03 0.  1.
         -6    1    1    2    0  502  0.17604101662E+03  0.18517768446E+02  0.56602874332E+03  0.61777899409E+03  0.17300000000E+03 0.  1.
</event>
<event>
 4    1  0.5821292E+000  0.1000000E+03  0.7546771E-02  0.1280296E+00
         21   -1    0    0  503  502  0.00000000000E+00  0.00000000000E+00  0.46780525828E+03  0.46780525828E+03  0.00000000000E+00 0.  1.
         21   -1    0    0  501  503 -0.00000000000E+00 -0.00000000000E+00 -0.74723560272E+02  0.74723560272E+02  0.00000000000E+00 0.  1.
          6    1    1    2  501    0  0.47092452604E+02 -0.42510782036E+02  0.15060935413E+03  0.23798538450E+03  0.17300000000E+03 0.  1.
         -6    1    1    2    0  502 -0.47092452604E+02  0.42510782036E+02  0.24247234387E+03  0.30454343405E+03  0.17300000000E+03 0.  1.
</event>
<event>
 4    1  0.5821292E+000  0.1000000E+03  0.7546771E-02  0.1280296E+00
         21   -1    0    0  503  502  0.00000000000E+00  0.00000000000E+00  0.14434500619E+04  0.14434500619E+04  0.00000000000E+00 0.  1.
         21   -1    0    0  501  503 -0.00000000000E+00 -0.00000000000E+00 -0.66203897133E+02  0.66203897133E+02  0.00000000000E+00 0.  1.
          6    1    1    2  501    0 -0.24633860756E+03  0.70344225144E+02  0.69207611948E+03  0.75797715978E+03  0.17300000000E+03 0.  1.
         -6    1    1    2    0  502  0.24633860756E+03 -0.70344225144E+02  0.68517004528E+03  0.75167679925E+03  0.17300000000E+03 0.  1.
</event>
<event>
 4    1  0.5821292E+000  0.1000000E+03  0.7546771E-02  0.1280296E+00
         21   -1    0    0  501  502  0.00000000000E+00  0.00000000000E+00  0.45293694293E+02  0.45293694293E+02  0.00000000000E+00 0. -1.
         21   -1    0    0  502  503 -0.00000000000E+00 -0.00000000000E+00 -0.11800394795E+04  0.11800394795E+04  0.00000000000E+00 0. -1.
          6    1    1    2  501    0 -0.36003475586E+02 -0.11994889517E+02 -0.17359718880E+03  0.24800224109E+03  0.17300000000E+03 0. -1.
         -6    1    1    2    0  503  0.36003475586E+02  0.11994889517E+02 -0.96114859638E+03  0.97733093267E+03  0.17300000000E+03 0. -1.
</event>
<event>
 4    1  0.5821292E+000  0.1000000E+03  0.7546771E-02  0.1280296E+00
         21   -1    0    0  501  502  0.00000000000E+00  0.00000000000E+00  0.13858751189E+03  0.13858751189E+03  0.00000000000E+00 0. -1.
         21   -1    0    0  502  503 -0.00000000000E+00 -0.00000000000E+00 -0.36216277598E+03  0.36216277598E+03  0.00000000000E+00 0. -1.
          6    1    1    2  501    0 -0.71931767499E+02 -0.39379328461E+02  0.18242416028E+02  0.19231925652E+03  0.17300000000E+03 0. -1.
         -6    1    1    2    0  503  0.71931767499E+02  0.39379328461E+02 -0.24181768012E+03  0.30843103136E+03  0.17300000000E+03 0. -1.
</event>
<event>
 4    1  0.5821292E+000  0.1000000E+03  0.7546771E-02  0.1280296E+00
         21   -1    0    0  501  502  0.00000000000E+00  0.00000000000E+00  0.37154848709E+03  0.37154848709E+03  0.00000000000E+00 0. -1.
         21   -1    0    0  502  503 -0.00000000000E+00 -0.00000000000E+00 -0.19148178521E+03  0.19148178521E+03  0.00000000000E+00 0. -1.
          6    1    1    2  501    0  0.11000780078E+03  0.73487094856E+01  0.26995293164E+03  0.33905649244E+03  0.17300000000E+03 0. -1.
         -6    1    1    2    0  503 -0.11000780078E+03 -0.73487094856E+01 -0.89886229761E+02  0.22397377986E+03  0.17300000000E+03 0. -1.
</event>
<event>
 4    1  0.5821292E+000  0.1000000E+03  0.7546771E-02  0.1280296E+00
         21   -1    0    0  501  502  0.00000000000E+00  0.00000000000E+00  0.34706425367E+03  0.34706425367E+03  0.00000000000E+00 0. -1.
         21   -1    0    0  502  503 -0.00000000000E+00 -0.00000000000E+00 -0.12968570030E+03  0.12968570030E+03  0.00000000000E+00 0. -1.
          6    1    1    2  501    0  0.10619304835E+03 -0.61203304735E+02  0.10017195762E+03  0.23449142654E+03  0.17300000000E+03 0. -1.
         -6    1    1    2    0  503 -0.10619304835E+03  0.61203304735E+02  0.11720659574E+03  0.24225852743E+03  0.17300000000E+03 0. -1.
</event>
<event>
 4    1  0.5821292E+000  0.1000000E+03  0.7546771E-02  0.1280296E+00
         21   -1    0    0  503  502  0.00000000000E+00  0.00000000000E+00  0.55651681897E+03  0.55651681897E+03  0.00000000000E+00 0. -1.
         21   -1    0    0  501  503 -0.00000000000E+00 -0.00000000000E+00 -0.11218827019E+03  0.11218827019E+03  0.00000000000E+00 0. -1.
          6    1    1    2  501    0 -0.56516887851E+02 -0.53118733522E+02  0.43772878623E+01  0.18964155429E+03  0.17300000000E+03 0. -1.
         -6    1    1    2    0  502  0.56516887851E+02  0.53118733522E+02  0.43995126092E+03  0.47906353488E+03  0.17300000000E+03 0. -1.
</event>
<event>
 4    1  0.5821292E+000  0.1000000E+03  0.7546771E-02  0.1280296E+00
         21   -1    0    0  503  502  0.00000000000E+00  0.00000000000E+00  0.10704367595E+04  0.10704367595E+04  0.00000000000E+00 0. -1.
         21   -1    0    0  501  503 -0.00000000000E+00 -0.00000000000E+00 -0.39337284972E+03  0.39337284972E+03  0.00000000000E+00 0. -1.
          6    1    1    2  501    0 -0.35672113481E+03  0.12616927753E+03 -0.22314026663E+03  0.47211146269E+03  0.17300000000E+03 0. -1.
         -6    1    1    2    0  502  0.35672113481E+03 -0.12616927753E+03  0.90020417644E+03  0.99169814656E+03  0.17300000000E+03 0. -1.
</event>
<event>
 4    1  0.5821292E+000  0.1000000E+03  0.7546771E-02  0.1280296E+00
         21   -1    0    0  503  502  0.00000000000E+00  0.00000000000E+00  0.28406771687E+03  0.28406771687E+03  0.00000000000E+00 0. -1.
         21   -1    0    0  501  503 -0.00000000000E+00 -0.00000000000E+00 -0.29027691891E+03  0.29027691891E+03  0.00000000000E+00 0. -1.
          6    1    1    2  501    0  0.30024632646E+01 -0.29129174348E+02 -0.23043215752E+03  0.28962994114E+03  0.17300000000E+03 0. -1.
         -6    1    1    2    0  502 -0.30024632646E+01  0.29129174348E+02  0.22422295548E+03  0.28471469465E+03  0.17300000000E+03 0. -1.
</event>
<event>
 4    1  0.5821292E+000  0.1000000E+03  0.7546771E-02  0.1280296E+00
         21   -1    0    0  501  502  0.00000000000E+00  0.00000000000E+00  0.69280677412E+03  0.69280677412E+03  0.00000000000E+00 0.  1.
         21   -1    0    0  502  503 -0.00000000000E+00 -0.00000000000E+00 -0.72453942355E+02  0.72453942355E+02  0.00000000000E+00 0.  1.
          6    1    1    2  501    0  0.11717824159E+03 -0.80850239863E+02  0.31066092771E+03  0.38302312410E+03  0.17300000000E+03 0.  1.
         -6    1    1    2    0  503 -0.11717824159E+03  0.80850239863E+02  0.30969190405E+03  0.38223759237E+03  0.17300000000E+03 0.  1.
</event>
<event>
 4    1  0.5821292E+000  0.1000000E+03  0.7546771E-02  0.1280296E+00
         21   -1    0    0  501  502  0.00000000000E+00  0.00000000000E+00  0.10990749570E+03  0.10990749570E+03  0.00000000000E+00 0.  1.
         21   -1    0    0  502  503 -0.00000000000E+00 -0.00000000000E+00 -0.52978520477E+03  0.52978520477E+03  0.00000000000E+00 0.  1.
          6    1    1    2  501    0 -0.27180700835E+02 -0.87101424265E+02 -0.22612632843E+02  0.19689027343E+03  0.17300000000E+03 0.  1.
         -6    1    1    2    0  503  0.27180700835E+02  0.87101424265E+02 -0.39726507622E+03  0.44280242704E+03  0.17300000000E+03 0.  1.
</event>
<event>
 4    1  0.5821292E+000  0.1000000E+03  0.7546771E-02  0.1280296E+00
         21   -1    0    0  501  502  0.00000000000E+00  0.00000000000E+00  0.12344784377E+04  0.12344784377E+04  0.00000000000E+00 0.  1.
         21   -1    0    0  502  503 -0.00000000000E+00 -0.00000000000E+00 -0.34026059834E+02  0.34026059834E+02  0.00000000000E+00 0.  1.
          6    1    1    2  501    0 -0.25105415840E+02  0.74625815685E+02  0.83745127101E+03  0.85875079365E+03  0.17300000000E+03 0.  1.
         -6    1    1    2    0  503  0.25105415840E+02 -0.74625815685E+02  0.36300110685E+03  0.40975370388E+03  0.17300000000E+03 0.  1.
</event>
<event>
 4    1  0.5821292E+000  0.1000000E+03  0.7546771E-02  0.1280296E+00
         21   -1    0    0  501  502  0.00000000000E+00  0.00000000000E+00  0.82520583281E+03  0.82520583281E+03  0.00000000000E+00 0. -1.
         21   -1    0    0  502  503 -0.00000000000E+00 -0.00000000000E+00 -0.67608082434E+02  0.67608082434E+02  0.00000000000E+00 0. -1.
          6    1    1    2  501    0  0.76758652181E+02  0.10056426142E+03  0.56643323181E+03  0.60562419656E+03  0.17300000000E+03 0. -1.
         -6    1    1    2    0  503 -0.76758652181E+02 -0.10056426142E+03  0.19116451857E+03  0.28718971868E+03  0.17300000000E+03 0. -1.
</event>
<event>
 4    1  0.5821292E+000  0.1000000E+03  0.7546771E-02  0.1280296E+00
         21   -1    0    0  501  502  0.00000000000E+00  0.00000000000E+00  0.60066926433E+03  0.60066926433E+03  0.00000000000E+00 0.  1.
         21   -1    0    0  502  503 -0.00000000000E+00 -0.00000000000E+00 -0.13468876901E+03  0.13468876901E+03  0.00000000000E+00 0. -1.
          6    1    1    2  501    0 -0.10400674651E+03  0.42512120936E+02  0.48613361196E+03  0.52809049644E+03  0.17300000000E+03 0.  1.
         -6    1    1    2    0  503  0.10400674651E+03 -0.42512120936E+02 -0.20153116643E+02  0.20726753691E+03  0.17300000000E+03 0. -1.
</event>
<event>
 4    1  0.5821292E+000  0.1000000E+03  0.7546771E-02  0.1280296E+00
         21   -1    0    0  501  502  0.00000000000E+00  0.00000000000E+00  0.95245673479E+02  0.95245673479E+02  0.00000000000E+00 0.  1.
         21   -1    0    0  502  503 -0.00000000000E+00 -0.00000000000E+00 -0.46119759579E+03  0.46119759579E+03  0.00000000000E+00 0. -1.
          6    1    1    2  501    0  0.28113012724E+02  0.10222440821E+03 -0.11326286623E+03  0.23237393998E+03  0.17300000000E+03 0.  1.
         -6    1    1    2    0  503 -0.28113012724E+02 -0.10222440821E+03 -0.25268905608E+03  0.32406932928E+03  0.17300000000E+03 0. -1.
</event>
<event>
 4    1  0.5821292E+000  0.1000000E+03  0.7546771E-02  0.1280296E+00
         21   -1    0    0  503  502  0.00000000000E+00  0.00000000000E+00  0.70376789859E+03  0.70376789859E+03  0.00000000000E+00 0. -1.
         21   -1    0    0  501  503 -0.00000000000E+00 -0.00000000000E+00 -0.49380014275E+02  0.49380014275E+02  0.00000000000E+00 0.  1.
          6    1    1    2  501    0 -0.60070540862E+02 -0.80658139170E+01  0.25870470898E+03  0.31706569301E+03  0.17300000000E+03 0. -1.
         -6    1    1    2    0  502  0.60070540862E+02  0.80658139170E+01  0.39568317534E+03  0.43608221986E+03  0.17300000000E+03 0.  1.
</event>
<event>
 4    1  0.5821292E+000  0.1000000E+03  0.7546771E-02  0.1280296E+00
         21   -1    0    0  501  502  0.00000000000E+00  0.00000000000E+00  0.32167210154E+03  0.32167210154E+03  0.00000000000E+00 0.  1.
         21   -1    0    0  502  503 -0.00000000000E+00 -0.00000000000E+00 -0.11383538385E+03  0.11383538385E+03  0.00000000000E+00 0. -1.
          6    1    1    2  501    0 -0.76879792744E+02  0.57828145583E+01  0.13497238197E+03  0.23257361710E+03  0.17300000000E+03 0.  1.
         -6    1    1    2    0  503  0.76879792744E+02 -0.57828145583E+01  0.72864335722E+02  0.20293386828E+03  0.17300000000E+03 0. -1.
</event>
<event>
 4    1  0.5821292E+000  0.1000000E+03  0.7546771E-02  0.1280296E+00
         21   -1    0    0  503  502  0.00000000000E+00  0.00000000000E+00  0.86854258255E+03  0.86854258255E+03  0.00000000000E+00 0. -1.
         21   -1    0    0  501  503 -0.00000000000E+00 -0.00000000000E+00 -0.48911195051E+03  0.48911195051E+03  0.00000000000E+00 0. -1.
          6    1    1    2  501    0 -0.32628438339E+03  0.31437260706E+03 -0.26377893773E+03  0.55208691607E+03  0.17300000000E+03 0. -1.
         -6    1    1    2    0  502  0.32628438339E+03 -0.31437260706E+03  0.64320956976E+03  0.80556761699E+03  0.17300000000E+03 0. -1.
</event>
<event>
 4    1  0.5821292E+000  0.1000000E+03  0.7546771E-02  0.1280296E+00
         21   -1    0    0  503  502  0.00000000000E+00  0.00000000000E+00  0.75062732289E+02  0.75062732289E+02  0.00000000000E+00 0. -1.
         21   -1    0    0  501  503 -0.00000000000E+00 -0.00000000000E+00 -0.13606681481E+04  0.13606681481E+04  0.00000000000E+00 0. -1.
          6    1    1    2  501    0  0.31442750822E+02 -0.77924369743E+02 -0.12161230432E+04  0.12312372275E+04  0.17300000000E+03 0. -1.
         -6    1    1    2    0  502 -0.31442750822E+02  0.77924369743E+02 -0.69482372526E+02  0.20449365289E+03  0.17300000000E+03 0. -1.
</event>
<event>
 4    1  0.5821292E+000  0.1000000E+03  0.7546771E-02  0.1280296E+00
         21   -1    0    0  503  502  0.00000000000E+00  0.00000000000E+00  0.93845661069E+02  0.93845661069E+02  0.00000000000E+00 0. -1.
         21   -1    0    0  501  503 -0.00000000000E+00 -0.00000000000E+00 -0.45791741736E+03  0.45791741736E+03  0.00000000000E+00 0. -1.
          6    1    1    2  501    0 -0.84438244830E+02  0.33590392432E+02 -0.27410793933E+03  0.33663376844E+03  0.17300000000E+03 0. -1.
         -6    1    1    2    0  502  0.84438244830E+02 -0.33590392432E+02 -0.89963816968E+02  0.21512930999E+03  0.17300000000E+03 0. -1.
</event>
<event>
 4    1  0.5821292E+000  0.1000000E+03  0.7546771E-02  0.1280296E+00
         21   -1    0    0  503  502  0.00000000000E+00  0.00000000000E+00  0.17399185287E+04  0.17399185287E+04  0.00000000000E+00 0. -1.
         21   -1    0    0  501  503 -0.00000000000E+00 -0.00000000000E+00 -0.28022723902E+02  0.28022723902E+02  0.00000000000E+00 0. -1.
          6    1    1    2  501    0  0.11300322585E+03  0.38789535609E+02  0.58579482411E+03  0.62238166191E+03  0.17300000000E+03 0. -1.
         -6    1    1    2    0  502 -0.11300322585E+03 -0.38789535609E+02  0.11261009807E+04  0.11455595907E+04  0.17300000000E+03 0. -1.
</event>
<event>
 4    1  0.5821292E+000  0.1000000E+03  0.7546771E-02  0.1280296E+00
         21   -1    0    0  503  502  0.00000000000E+00  0.00000000000E+00  0.25688730668E+02  0.25688730668E+02  0.00000000000E+00 0.  1.
         21   -1    0    0  501  503 -0.00000000000E+00 -0.00000000000E+00 -0.13946922658E+04  0.13946922658E+04  0.00000000000E+00 0. -1.
          6    1    1    2  501    0  0.37200656328E+02 -0.44555432181E+02 -0.49578637994E+03  0.52830124920E+03  0.17300000000E+03 0.  1.
         -6    1    1    2    0  502 -0.37200656328E+02  0.44555432181E+02 -0.87321715514E+03  0.89207974722E+03  0.17300000000E+03 0. -1.
</event>
<event>
 4    1  0.5821292E+000  0.1000000E+03  0.7546771E-02  0.1280296E+00
         21   -1    0    0  503  502  0.00000000000E+00  0.00000000000E+00  0.14952843597E+03  0.14952843597E+03  0.00000000000E+00 0.  1.
         21   -1    0    0  501  503 -0.00000000000E+00 -0.00000000000E+00 -0.61457851047E+03  0.61457851047E+03  0.00000000000E+00 0.  1.
          6    1    1    2  501    0  0.52959715746E+02 -0.22608623742E+03 -0.34558899182E+03  0.45086635438E+03  0.17300000000E+03 0.  1.
         -6    1    1    2    0  502 -0.52959715746E+02  0.22608623742E+03 -0.11946108267E+03  0.31324059206E+03  0.17300000000E+03 0.  1.
</event>
<event>
 4    1  0.5821292E+000  0.1000000E+03  0.7546771E-02  0.1280296E+00
         21   -1    0    0  503  502  0.00000000000E+00  0.00000000000E+00  0.42609892656E+02  0.42609892656E+02  0.00000000000E+00 0.  1.
         21   -1    0    0  501  503 -0.00000000000E+00 -0.00000000000E+00 -0.78574128842E+03  0.78574128842E+03  0.00000000000E+00 0.  1.
          6    1    1    2  501    0 -0.43952999125E+02 -0.19024519424E+02 -0.45183559845E+03  0.48618741911E+03  0.17300000000E+03 0.  1.
         -6    1    1    2    0  502  0.43952999125E+02  0.19024519424E+02 -0.29129579731E+03  0.34216376196E+03  0.17300000000E+03 0.  1.
</event>
<event>
 4    1  0.5821292E+000  0.1000000E+03  0.7546771E-02  0.1280296E+00
         21   -1    0    0  503  502  0.00000000000E+00  0.00000000000E+00  0.67726719820E+02  0.67726719820E+02  0.00000000000E+00 0.  1.
         21   -1    0    0  501  503 -0.00000000000E+00 -0.00000000000E+00 -0.47320442638E+03  0.47320442638E+03  0.00000000000E+00 0.  1.
          6    1    1    2  501    0 -0.30818665829E+02 -0.18576733232E+01 -0.25433539824E+03  0.30914193489E+03  0.17300000000E+03 0.  1.
         -6    1    1    2    0  502  0.30818665829E+02  0.18576733232E+01 -0.15114230833E+03  0.23178921131E+03  0.17300000000E+03 0.  1.
</event>
<event>
 4    1  0.5821292E+000  0.1000000E+03  0.7546771E-02  0.1280296E+00
         21   -1    0    0  501  502  0.00000000000E+00  0.00000000000E+00  0.16561831889E+03  0.16561831889E+03  0.00000000000E+00 0.  1.
         21   -1    0    0  502  503 -0.00000000000E+00 -0.00000000000E+00 -0.32988869920E+03  0.32988869920E+03  0.00000000000E+00 0.  1.
          6    1    1    2  501    0 -0.12351752203E+03  0.42588192768E+02  0.10488656523E+02  0.21704687127E+03  0.17300000000E+03 0.  1.
         -6    1    1    2    0  503  0.12351752203E+03 -0.42588192768E+02 -0.17475903684E+03  0.27846014682E+03  0.17300000000E+03 0.  1.
</event>
<event>
 4    1  0.5821292E+000  0.1000000E+03  0.7546771E-02  0.1280296E+00
         21   -1    0    0  501  502  0.00000000000E+00  0.00000000000E+00  0.25646577779E+03  0.25646577779E+03  0.00000000000E+00 0.  1.
         21   -1    0    0  502  503 -0.00000000000E+00 -0.00000000000E+00 -0.52313289710E+03  0.52313289710E+03  0.00000000000E+00 0.  1.
          6    1    1    2  501    0 -0.11268050178E+03  0.10763664599E+03  0.16757937369E+03  0.28686998715E+03  0.17300000000E+03 0.  1.
         -6    1    1    2    0  503  0.11268050178E+03 -0.10763664599E+03 -0.43424649299E+03  0.49272868774E+03  0.17300000000E+03 0.  1.
</event>
<event>
 4    1  0.5821292E+000  0.1000000E+03  0.7546771E-02  0.1280296E+00
         21   -1    0    0  501  502  0.00000000000E+00  0.00000000000E+00  0.20407440650E+03  0.20407440650E+03  0.00000000000E+00 0.  1.
         21   -1    0    0  502  503 -0.00000000000E+00 -0.00000000000E+00 -0.65305825177E+03  0.65305825177E+03  0.00000000000E+00 0.  1.
          6    1    1    2  501    0  0.71338447187E+02 -0.76011135615E+01  0.14337934862E+03  0.23586773536E+03  0.17300000000E+03 0.  1.
         -6    1    1    2    0  503 -0.71338447187E+02  0.76011135615E+01 -0.59236319389E+03  0.62126492292E+03  0.17300000000E+03 0.  1.
</event>
<event>
 4    1  0.5821292E+000  0.1000000E+03  0.7546771E-02  0.1280296E+00
         21   -1    0    0  501  502  0.00000000000E+00  0.00000000000E+00  0.95322647407E+02  0.95322647407E+02  0.00000000000E+00 0. -1.
         21   -1    0    0  502  503 -0.00000000000E+00 -0.00000000000E+00 -0.51848203152E+03  0.51848203152E+03  0.00000000000E+00 0. -1.
          6    1    1    2  501    0 -0.38022191261E+01  0.17269022607E+02 -0.20385149815E+02  0.17509206248E+03  0.17300000000E+03 0. -1.
         -6    1    1    2    0  503  0.38022191261E+01 -0.17269022607E+02 -0.40277423430E+03  0.43871261644E+03  0.17300000000E+03 0. -1.
</event>
<event>
 4    1  0.5821292E+000  0.1000000E+03  0.7546771E-02  0.1280296E+00
         21   -1    0    0  501  502  0.00000000000E+00  0.00000000000E+00  0.27593913959E+03  0.27593913959E+03  0.00000000000E+00 0. -1.
         21   -1    0    0  502  503 -0.00000000000E+00 -0.00000000000E+00 -0.30750780714E+03  0.30750780714E+03  0.00000000000E+00 0. -1.
          6    1    1    2  501    0 -0.21926566507E+01 -0.15806110672E+03  0.15749064139E+03  0.28234805352E+03  0.17300000000E+03 0. -1.
         -6    1    1    2    0  503  0.21926566507E+01  0.15806110672E+03 -0.18905930894E+03  0.30109889322E+03  0.17300000000E+03 0. -1.
</event>
<event>
 4    1  0.5821292E+000  0.1000000E+03  0.7546771E-02  0.1280296E+00
         21   -1    0    0  503  502  0.00000000000E+00  0.00000000000E+00  0.40244108348E+03  0.40244108348E+03  0.00000000000E+00 0. -1.
         21   -1    0    0  501  503 -0.00000000000E+00 -0.00000000000E+00 -0.11895730659E+03  0.11895730659E+03  0.00000000000E+00 0. -1.
          6    1    1    2  501    0 -0.11170267216E+02  0.13282563129E+03  0.12589523950E+03  0.25208338804E+03  0.17300000000E+03 0. -1.
         -6    1    1    2    0  502  0.11170267216E+02 -0.13282563129E+03  0.15758853739E+03  0.26931500203E+03  0.17300000000E+03 0. -1.
</event>
<event>
 4    1  0.5821292E+000  0.1000000E+03  0.7546771E-02  0.1280296E+00
         21   -1    0    0  501  502  0.00000000000E+00  0.00000000000E+00  0.27794799803E+03  0.27794799803E+03  0.00000000000E+00 0.  1.
         21   -1    0    0  502  503 -0.00000000000E+00 -0.00000000000E+00 -0.14077934172E+03  0.14077934172E+03  0.00000000000E+00 0. -1.
          6    1    1    2  501    0  0.18341310432E+02 -0.77409111380E+02  0.12530277171E+03  0.22794376235E+03  0.17300000000E+03 0.  1.
         -6    1    1    2    0  503 -0.18341310432E+02  0.77409111380E+02  0.11865884594E+02  0.19078357741E+03  0.17300000000E+03 0. -1.
</event>
<event>
 4    1  0.5821292E+000  0.1000000E+03  0.7546771E-02  0.1280296E+00
         21   -1    0    0  501  502  0.00000000000E+00  0.00000000000E+00  0.32305656446E+03  0.32305656446E+03  0.00000000000E+00 0.  1.
         21   -1    0    0  502  503 -0.00000000000E+00 -0.00000000000E+00 -0.17661704885E+03  0.17661704885E+03  0.00000000000E+00 0. -1.
          6    1    1    2  501    0  0.15233009860E+03 -0.48740118435E+02  0.32065022158E+02  0.23777557430E+03  0.17300000000E+03 0.  1.
         -6    1    1    2    0  503 -0.15233009860E+03  0.48740118435E+02  0.11437449345E+03  0.26189803901E+03  0.17300000000E+03 0. -1.
</event>
<event>
 4    1  0.5821292E+000  0.1000000E+03  0.7546771E-02  0.1280296E+00
         21   -1    0    0  501  502  0.00000000000E+00  0.00000000000E+00  0.41653349078E+03  0.41653349078E+03  0.00000000000E+00 0. -1.
         21   -1    0    0  502  503 -0.00000000000E+00 -0.00000000000E+00 -0.13739843538E+03  0.13739843538E+03  0.00000000000E+00 0.  1.
          6    1    1    2  501    0  0.93223712568E+02  0.12376346750E+03  0.20601399707E+03  0.31044938953E+03  0.17300000000E+03 0. -1.
         -6    1    1    2    0  503 -0.93223712568E+02 -0.12376346750E+03  0.73121058325E+02  0.24348253663E+03  0.17300000000E+03 0.  1.
</event>
<event>
 4    1  0.5821292E+000  0.1000000E+03  0.7546771E-02  0.1280296E+00
         21   -1    0    0  501  502  0.00000000000E+00  0.00000000000E+00  0.41686767003E+03  0.41686767003E+03  0.00000000000E+00 0. -1.
         21   -1    0    0  502  503 -0.00000000000E+00 -0.00000000000E+00 -0.15114700409E+03  0.15114700409E+03  0.00000000000E+00 0. -1.
          6    1    1    2  501    0 -0.25143236666E+02 -0.10861946945E+01  0.33666345971E+03  0.37934766017E+03  0.17300000000E+03 0. -1.
         -6    1    1    2    0  503  0.25143236666E+02  0.10861946945E+01 -0.70942793773E+02  0.18866701396E+03  0.17300000000E+03 0. -1.
</event>
<event>
 4    1  0.5821292E+000  0.1000000E+03  0.7546771E-02  0.1280296E+00
         21   -1    0    0  501  502  0.00000000000E+00  0.00000000000E+00  0.47207238594E+03  0.47207238594E+03  0.00000000000E+00 0. -1.
         21   -1    0    0  502  503 -0.00000000000E+00 -0.00000000000E+00 -0.12538500817E+03  0.12538500817E+03  0.00000000000E+00 0. -1.
          6    1    1    2  501    0  0.13874165224E+03 -0.68561756640E+02  0.26283323574E+03  0.35065691260E+03  0.17300000000E+03 0. -1.
         -6    1    1    2    0  503 -0.13874165224E+03  0.68561756640E+02  0.83854142021E+02  0.24680048151E+03  0.17300000000E+03 0. -1.
</event>
<event>
 4    1  0.5821292E+000  0.1000000E+03  0.7546771E-02  0.1280296E+00
         21   -1    0    0  503  502  0.00000000000E+00  0.00000000000E+00  0.82742569003E+03  0.82742569003E+03  0.00000000000E+00 0. -1.
         21   -1    0    0  501  503 -0.00000000000E+00 -0.00000000000E+00 -0.62806058142E+02  0.62806058142E+02  0.00000000000E+00 0.  1.
          6    1    1    2  501    0 -0.11354255824E+03  0.59022657688E+02  0.23537596312E+03  0.31891445666E+03  0.17300000000E+03 0.  1.
         -6    1    1    2    0  502  0.11354255824E+03 -0.59022657688E+02  0.52924366877E+03  0.57131729152E+03  0.17300000000E+03 0. -1.
</event>
<event>
 4    1  0.5821292E+000  0.1000000E+03  0.7546771E-02  0.1280296E+00
         21   -1    0    0  503  502  0.00000000000E+00  0.00000000000E+00  0.82783763538E+02  0.82783763538E+02  0.00000000000E+00 0. -1.
         21   -1    0    0  501  503 -0.00000000000E+00 -0.00000000000E+00 -0.54839351543E+03  0.54839351543E+03  0.00000000000E+00 0.  1.
          6    1    1    2  501    0  0.92362852471E+02 -0.55180953821E+02 -0.14038646741E+03  0.24741300373E+03  0.17300000000E+03 0.  1.
         -6    1    1    2    0  502 -0.92362852471E+02  0.55180953821E+02 -0.32522328448E+03  0.38376427524E+03  0.17300000000E+03 0. -1.
</event>
<event>
 4    1  0.5821292E+000  0.1000000E+03  0.7546771E-02  0.1280296E+00
         21   -1    0    0  503  502  0.00000000000E+00  0.00000000000E+00  0.30773117362E+04  0.30773117362E+04  0.00000000000E+00 0. -1.
         21   -1    0    0  501  503 -0.00000000000E+00 -0.00000000000E+00 -0.36225153877E+02  0.36225153877E+02  0.00000000000E+00 0.  1.
          6    1    1    2  501    0 -0.72182409262E+02 -0.26153047315E+03  0.11051062806E+04  0.11509984275E+04  0.17300000000E+03 0.  1.
         -6    1    1    2    0  502  0.72182409262E+02  0.26153047315E+03  0.19359803016E+04  0.19625384625E+04  0.17300000000E+03 0. -1.
</event>
<event>
 4    1  0.5821292E+000  0.1000000E+03  0.7546771E-02  0.1280296E+00
         21   -1    0    0  501  502  0.00000000000E+00  0.00000000000E+00  0.23184062643E+03  0.23184062643E+03  0.00000000000E+00 0. -1.
         21   -1    0    0  502  503 -0.00000000000E+00 -0.00000000000E+00 -0.42431784223E+03  0.42431784223E+03  0.00000000000E+00 0. -1.
          6    1    1    2  501    0  0.11839606343E+03  0.48820814419E+02  0.14239066610E+03  0.25807983561E+03  0.17300000000E+03 0.  1.
         -6    1    1    2    0  503 -0.11839606343E+03 -0.48820814419E+02 -0.33486788190E+03  0.39807863304E+03  0.17300000000E+03 0.  1.
</event>
<event>
 4    1  0.5821292E+000  0.1000000E+03  0.7546771E-02  0.1280296E+00
         21   -1    0    0  501  502  0.00000000000E+00  0.00000000000E+00  0.45756839552E+02  0.45756839552E+02  0.00000000000E+00 0. -1.
         21   -1    0    0  502  503 -0.00000000000E+00 -0.00000000000E+00 -0.12776724914E+04  0.12776724914E+04  0.00000000000E+00 0. -1.
          6    1    1    2  501    0  0.77339581337E+02 -0.37507289218E+02 -0.21799976012E+03  0.29127496116E+03  0.17300000000E+03 0.  1.
         -6    1    1    2    0  503 -0.77339581337E+02  0.37507289218E+02 -0.10139158918E+04  0.10321543698E+04  0.17300000000E+03 0.  1.
</event>
<event>
 4    1  0.5821292E+000  0.1000000E+03  0.7546771E-02  0.1280296E+00
         21   -1    0    0  501  502  0.00000000000E+00  0.00000000000E+00  0.27528735350E+03  0.27528735350E+03  0.00000000000E+00 0. -1.
         21   -1    0    0  502  503 -0.00000000000E+00 -0.00000000000E+00 -0.17406431399E+03  0.17406431399E+03  0.00000000000E+00 0. -1.
          6    1    1    2  501    0 -0.20304134975E+02  0.13116743021E+03  0.30827343069E+02  0.22021915840E+03  0.17300000000E+03 0.  1.
         -6    1    1    2    0  503  0.20304134975E+02 -0.13116743021E+03  0.70395696442E+02  0.22913250909E+03  0.17300000000E+03 0.  1.
</event>
<event>
 4    1  0.5821292E+000  0.1000000E+03  0.7546771E-02  0.1280296E+00
         21   -1    0    0  501  502  0.00000000000E+00  0.00000000000E+00  0.21268492038E+03  0.21268492038E+03  0.00000000000E+00 0. -1.
         21   -1    0    0  502  503 -0.00000000000E+00 -0.00000000000E+00 -0.17071032270E+03  0.17071032270E+03  0.00000000000E+00 0. -1.
          6    1    1    2  501    0 -0.65648139691E+02 -0.15714311045E+02 -0.21954475501E+02  0.18699630160E+03  0.17300000000E+03 0.  1.
         -6    1    1    2    0  503  0.65648139691E+02  0.15714311045E+02  0.63929073181E+02  0.19639894148E+03  0.17300000000E+03 0.  1.
</event>
<event>
 4    1  0.5821292E+000  0.1000000E+03  0.7546771E-02  0.1280296E+00
         21   -1    0    0  501  502  0.00000000000E+00  0.00000000000E+00  0.37541185530E+03  0.37541185530E+03  0.00000000000E+00 0.  1.
         21   -1    0    0  502  503 -0.00000000000E+00 -0.00000000000E+00 -0.99556990821E+03  0.99556990821E+03  0.00000000000E+00 0.  1.
          6    1    1    2  501    0 -0.13967392865E+03 -0.36235960338E+02  0.32717363229E+03  0.39723222028E+03  0.17300000000E+03 0. -1.
         -6    1    1    2    0  503  0.13967392865E+03  0.36235960338E+02 -0.94733168520E+03  0.97374954323E+03  0.17300000000E+03 0. -1.
</event>
<event>
 4    1  0.5821292E+000  0.1000000E+03  0.7546771E-02  0.1280296E+00
         21   -1    0    0  501  502  0.00000000000E+00  0.00000000000E+00  0.27180083818E+03  0.27180083818E+03  0.00000000000E+00 0.  1.
         21   -1    0    0  502  503 -0.00000000000E+00 -0.00000000000E+00 -0.38904720862E+03  0.38904720862E+03  0.00000000000E+00 0.  1.
          6    1    1    2  501    0  0.35523164721E+02  0.18370215877E+03  0.14663806435E+03  0.29400697319E+03  0.17300000000E+03 0.  1.
         -6    1    1    2    0  503 -0.35523164721E+02 -0.18370215877E+03 -0.26388443478E+03  0.36684107361E+03  0.17300000000E+03 0.  1.
</event>
<event>
 4    1  0.5821292E+000  0.1000000E+03  0.7546771E-02  0.1280296E+00
         21   -1    0    0  501  502  0.00000000000E+00  0.00000000000E+00  0.67290195123E+02  0.67290195123E+02  0.00000000000E+00 0.  1.
         21   -1    0    0  502  503 -0.00000000000E+00 -0.00000000000E+00 -0.76484904154E+03  0.76484904154E+03  0.00000000000E+00 0.  1.
          6    1    1    2  501    0 -0.10941238288E+03 -0.44864578030E+02 -0.18937915356E+03  0.28244886916E+03  0.17300000000E+03 0.  1.
         -6    1    1    2    0  503  0.10941238288E+03  0.44864578030E+02 -0.50817969286E+03  0.54969036750E+03  0.17300000000E+03 0.  1.
</event>
<event>
 4    1  0.5821292E+000  0.1000000E+03  0.7546771E-02  0.1280296E+00
         21   -1    0    0  501  502  0.00000000000E+00  0.00000000000E+00  0.24597250402E+03  0.24597250402E+03  0.00000000000E+00 0.  1.
         21   -1    0    0  502  503 -0.00000000000E+00 -0.00000000000E+00 -0.18202407853E+03  0.18202407853E+03  0.00000000000E+00 0.  1.
          6    1    1    2  501    0  0.54466272838E+02 -0.52103726059E+02  0.12878208390E+03  0.22846268465E+03  0.17300000000E+03 0.  1.
         -6    1    1    2    0  503 -0.54466272838E+02  0.52103726059E+02 -0.64833658409E+02  0.19953389789E+03  0.17300000000E+03 0.  1.
</event>
<event>
 4    1  0.5821292E+000  0.1000000E+03  0.7546771E-02  0.1280296E+00
         21   -1    0    0  501  502  0.00000000000E+00  0.00000000000E+00  0.59300636667E+03  0.59300636667E+03  0.00000000000E+00 0. -1.
         21   -1    0    0  502  503 -0.00000000000E+00 -0.00000000000E+00 -0.54283196574E+02  0.54283196574E+02  0.00000000000E+00 0. -1.
          6    1    1    2  501    0 -0.41132112924E+02  0.18595041559E+02  0.29633869490E+03  0.34609716610E+03  0.17300000000E+03 0. -1.
         -6    1    1    2    0  503  0.41132112924E+02 -0.18595041559E+02  0.24238447520E+03  0.30119239715E+03  0.17300000000E+03 0. -1.
</event>
<event>
 4    1  0.5821292E+000  0.1000000E+03  0.7546771E-02  0.1280296E+00
         21   -1    0    0  503  502  0.00000000000E+00  0.00000000000E+00  0.20130403147E+04  0.20130403147E+04  0.00000000000E+00 0.  1.
         21   -1    0    0  501  503 -0.00000000000E+00 -0.00000000000E+00 -0.35813271227E+02  0.35813271227E+02  0.00000000000E+00 0.  1.
          6    1    1    2  501    0  0.20180674810E+03  0.34727540664E+02  0.93042582984E+03  0.96827330361E+03  0.17300000000E+03 0.  1.
         -6    1    1    2    0  502 -0.20180674810E+03 -0.34727540664E+02  0.10468012136E+04  0.10805802823E+04  0.17300000000E+03 0.  1.
</event>
<event>
 4    1  0.5821292E+000  0.1000000E+03  0.7546771E-02  0.1280296E+00
         21   -1    0    0  503  502  0.00000000000E+00  0.00000000000E+00  0.53656809473E+02  0.53656809473E+02  0.00000000000E+00 0.  1.
         21   -1    0    0  501  503 -0.00000000000E+00 -0.00000000000E+00 -0.11631566960E+04  0.11631566960E+04  0.00000000000E+00 0.  1.
          6    1    1    2  501    0 -0.69415463669E+01  0.59983066357E+02 -0.96830271124E+03  0.98548733828E+03  0.17300000000E+03 0.  1.
         -6    1    1    2    0  502  0.69415463669E+01 -0.59983066357E+02 -0.14119717527E+03  0.23132616717E+03  0.17300000000E+03 0.  1.
</event>
<event>
 4    1  0.5821292E+000  0.1000000E+03  0.7546771E-02  0.1280296E+00
         21   -1    0    0  501  502  0.00000000000E+00  0.00000000000E+00  0.36941098055E+03  0.36941098055E+03  0.00000000000E+00 0. -1.
         21   -1    0    0  502  503 -0.00000000000E+00 -0.00000000000E+00 -0.26981785096E+03  0.26981785096E+03  0.00000000000E+00 0. -1.
          6    1    1    2  501    0  0.14221172957E+03  0.17892415484E+03  0.18374499105E+03  0.34048384829E+03  0.17300000000E+03 0. -1.
         -6    1    1    2    0  503 -0.14221172957E+03 -0.17892415484E+03 -0.84151861464E+02  0.29874498322E+03  0.17300000000E+03 0. -1.
</event>
<event>
 4    1  0.5821292E+000  0.1000000E+03  0.7546771E-02  0.1280296E+00
         21   -1    0    0  501  502  0.00000000000E+00  0.00000000000E+00  0.13012041020E+03  0.13012041020E+03  0.00000000000E+00 0. -1.
         21   -1    0    0  502  503 -0.00000000000E+00 -0.00000000000E+00 -0.10841255021E+04  0.10841255021E+04  0.00000000000E+00 0. -1.
          6    1    1    2  501    0  0.26733880371E+03  0.13509150569E+03 -0.24043526645E+03  0.42125748448E+03  0.17300000000E+03 0. -1.
         -6    1    1    2    0  503 -0.26733880371E+03 -0.13509150569E+03 -0.71356982549E+03  0.79298842786E+03  0.17300000000E+03 0. -1.
</event>
<event>
 4    1  0.5821292E+000  0.1000000E+03  0.7546771E-02  0.1280296E+00
         21   -1    0    0  501  502  0.00000000000E+00  0.00000000000E+00  0.11502856859E+03  0.11502856859E+03  0.00000000000E+00 0. -1.
         21   -1    0    0  502  503 -0.00000000000E+00 -0.00000000000E+00 -0.36387073039E+03  0.36387073039E+03  0.00000000000E+00 0. -1.
          6    1    1    2  501    0 -0.91218179087E+02 -0.53656833464E+02 -0.92869542839E+02  0.22305506935E+03  0.17300000000E+03 0. -1.
         -6    1    1    2    0  503  0.91218179087E+02  0.53656833464E+02 -0.15597261896E+03  0.25584422964E+03  0.17300000000E+03 0. -1.
</event>
<event>
 4    1  0.5821292E+000  0.1000000E+03  0.7546771E-02  0.1280296E+00
         21   -1    0    0  503  502  0.00000000000E+00  0.00000000000E+00  0.48030392948E+03  0.48030392948E+03  0.00000000000E+00 0.  1.
         21   -1    0    0  501  503 -0.00000000000E+00 -0.00000000000E+00 -0.11990202347E+03  0.11990202347E+03  0.00000000000E+00 0. -1.
          6    1    1    2  501    0  0.79071268021E+02 -0.10950989769E+03  0.58854811098E+02  0.22723901934E+03  0.17300000000E+03 0. -1.
         -6    1    1    2    0  502 -0.79071268021E+02  0.10950989769E+03  0.30154709491E+03  0.37296693361E+03  0.17300000000E+03 0. -1.
</event>
<event>
 4    1  0.5821292E+000  0.1000000E+03  0.7546771E-02  0.1280296E+00
         21   -1    0    0  503  502  0.00000000000E+00  0.00000000000E+00  0.25659176417E+03  0.25659176417E+03  0.00000000000E+00 0.  1.
         21   -1    0    0  501  503 -0.00000000000E+00 -0.00000000000E+00 -0.82494124235E+03  0.82494124235E+03  0.00000000000E+00 0. -1.
          6    1    1    2  501    0  0.30771223453E+03  0.58971035913E+02 -0.62397788098E+03  0.71933427439E+03  0.17300000000E+03 0. -1.
         -6    1    1    2    0  502 -0.30771223453E+03 -0.58971035913E+02  0.55628402793E+02  0.36219873213E+03  0.17300000000E+03 0. -1.
</event>
<event>
 4    1  0.5821292E+000  0.1000000E+03  0.7546771E-02  0.1280296E+00
         21   -1    0    0  503  502  0.00000000000E+00  0.00000000000E+00  0.11580698198E+04  0.11580698198E+04  0.00000000000E+00 0.  1.
         21   -1    0    0  501  503 -0.00000000000E+00 -0.00000000000E+00 -0.43199104760E+02  0.43199104760E+02  0.00000000000E+00 0. -1.
          6    1    1    2  501    0  0.64273906906E+00  0.30761109524E+02  0.18580458624E+03  0.25573228823E+03  0.17300000000E+03 0. -1.
         -6    1    1    2    0  502 -0.64273906906E+00 -0.30761109524E+02  0.92906612884E+03  0.94553663637E+03  0.17300000000E+03 0. -1.
</event>
<event>
 4    1  0.5821292E+000  0.1000000E+03  0.7546771E-02  0.1280296E+00
         21   -1    0    0  503  502  0.00000000000E+00  0.00000000000E+00  0.59937779383E+02  0.59937779383E+02  0.00000000000E+00 0.  1.
         21   -1    0    0  501  503 -0.00000000000E+00 -0.00000000000E+00 -0.51357824157E+03  0.51357824157E+03  0.00000000000E+00 0. -1.
          6    1    1    2  501    0  0.23573771930E+01 -0.21358017438E+02 -0.19445978580E+03  0.26116150258E+03  0.17300000000E+03 0. -1.
         -6    1    1    2    0  502 -0.23573771930E+01  0.21358017438E+02 -0.25918067639E+03  0.31235451837E+03  0.17300000000E+03 0. -1.
</event>
<event>
 4    1  0.5821292E+000  0.1000000E+03  0.7546771E-02  0.1280296E+00
         21   -1    0    0  503  502  0.00000000000E+00  0.00000000000E+00  0.63666765304E+03  0.63666765304E+03  0.00000000000E+00 0.  1.
         21   -1    0    0  501  503 -0.00000000000E+00 -0.00000000000E+00 -0.67929145278E+02  0.67929145278E+02  0.00000000000E+00 0. -1.
          6    1    1    2  501    0 -0.44955780333E+02 -0.91876398789E+02  0.19382082563E+03  0.27920925359E+03  0.17300000000E+03 0. -1.
         -6    1    1    2    0  502  0.44955780333E+02  0.91876398789E+02  0.37491768213E+03  0.42538754473E+03  0.17300000000E+03 0. -1.
</event>
<event>
 4    1  0.5821292E+000  0.1000000E+03  0.7546771E-02  0.1280296E+00
         21   -1    0    0  501  502  0.00000000000E+00  0.00000000000E+00  0.75992493810E+03  0.75992493810E+03  0.00000000000E+00 0.  1.
         21   -1    0    0  502  503 -0.00000000000E+00 -0.00000000000E+00 -0.63105603846E+02  0.63105603846E+02  0.00000000000E+00 0.  1.
          6    1    1    2  501    0 -0.10235986458E+03 -0.37848983131E+02  0.49537530906E+03  0.53594382563E+03  0.17300000000E+03 0.  1.
         -6    1    1    2    0  503  0.10235986458E+03  0.37848983131E+02  0.20144402519E+03  0.28708671631E+03  0.17300000000E+03 0.  1.
</event>
<event>
 4    1  0.5821292E+000  0.1000000E+03  0.7546771E-02  0.1280296E+00
         21   -1    0    0  501  502  0.00000000000E+00  0.00000000000E+00  0.81790433043E+03  0.81790433043E+03  0.00000000000E+00 0.  1.
         21   -1    0    0  502  503 -0.00000000000E+00 -0.00000000000E+00 -0.35488085644E+03  0.35488085644E+03  0.00000000000E+00 0.  1.
          6    1    1    2  501    0  0.11811562368E+03 -0.25346162449E+02  0.77105988412E+03  0.79940982819E+03  0.17300000000E+03 0.  1.
         -6    1    1    2    0  503 -0.11811562368E+03  0.25346162449E+02 -0.30803641012E+03  0.37337535868E+03  0.17300000000E+03 0.  1.
</event>
<event>
 4    1  0.5821292E+000  0.1000000E+03  0.7546771E-02  0.1280296E+00
         21   -1    0    0  503  502  0.00000000000E+00  0.00000000000E+00  0.36029117207E+03  0.36029117207E+03  0.00000000000E+00 0. -1.
         21   -1    0    0  501  503 -0.00000000000E+00 -0.00000000000E+00 -0.88447368358E+02  0.88447368358E+02  0.00000000000E+00 0.  1.
          6    1    1    2  501    0 -0.19686539798E+02 -0.17735821098E+02  0.91739602583E+02  0.19760383063E+03  0.17300000000E+03 0.  1.
         -6    1    1    2    0  502  0.19686539798E+02  0.17735821098E+02  0.18010420113E+03  0.25113470980E+03  0.17300000000E+03 0.  1.
</event>
<event>
 4    1  0.5821292E+000  0.1000000E+03  0.7546771E-02  0.1280296E+00
         21   -1    0    0  503  502  0.00000000000E+00  0.00000000000E+00  0.99552067667E+02  0.99552067667E+02  0.00000000000E+00 0. -1.
         21   -1    0    0  501  503 -0.00000000000E+00 -0.00000000000E+00 -0.13460131177E+04  0.13460131177E+04  0.00000000000E+00 0.  1.
          6    1    1    2  501    0  0.14077892894E+03 -0.11825108842E+03 -0.11466317340E+04  0.11740934206E+04  0.17300000000E+03 0.  1.
         -6    1    1    2    0  502 -0.14077892894E+03  0.11825108842E+03 -0.99829315993E+02  0.27147176479E+03  0.17300000000E+03 0.  1.
</event>
<event>
 4    1  0.5821292E+000  0.1000000E+03  0.7546771E-02  0.1280296E+00
         21   -1    0    0  503  502  0.00000000000E+00  0.00000000000E+00  0.79528942437E+02  0.79528942437E+02  0.00000000000E+00 0.  1.
         21   -1    0    0  501  503 -0.00000000000E+00 -0.00000000000E+00 -0.44296100456E+03  0.44296100456E+03  0.00000000000E+00 0. -1.
          6    1    1    2  501    0  0.28678650633E+02  0.65521169865E+02 -0.20058266568E+03  0.27436817322E+03  0.17300000000E+03 0. -1.
         -6    1    1    2    0  502 -0.28678650633E+02 -0.65521169865E+02 -0.16284939645E+03  0.24812177378E+03  0.17300000000E+03 0.  1.
</event>
<event>
 4    1  0.5821292E+000  0.1000000E+03  0.7546771E-02  0.1280296E+00
         21   -1    0    0  501  502  0.00000000000E+00  0.00000000000E+00  0.18689366474E+03  0.18689366474E+03  0.00000000000E+00 0.  1.
         21   -1    0    0  502  503 -0.00000000000E+00 -0.00000000000E+00 -0.42009400189E+03  0.42009400189E+03  0.00000000000E+00 0. -1.
          6    1    1    2  501    0  0.12468759686E+03  0.13604937100E+03  0.13949109545E+02  0.25333773074E+03  0.17300000000E+03 0.  1.
         -6    1    1    2    0  503 -0.12468759686E+03 -0.13604937100E+03 -0.24714944670E+03  0.35364993590E+03  0.17300000000E+03 0. -1.
</event>
<event>
 4    1  0.5821292E+000  0.1000000E+03  0.7546771E-02  0.1280296E+00
         21   -1    0    0  501  502  0.00000000000E+00  0.00000000000E+00  0.96788899938E+03  0.96788899938E+03  0.00000000000E+00 0.  1.
         21   -1    0    0  502  503 -0.00000000000E+00 -0.00000000000E+00 -0.40225974421E+02  0.40225974421E+02  0.00000000000E+00 0. -1.
          6    1    1    2  501    0  0.30981978809E+02 -0.82483686236E+02  0.37381001386E+03  0.42122009445E+03  0.17300000000E+03 0.  1.
         -6    1    1    2    0  503 -0.30981978809E+02  0.82483686236E+02  0.55385301110E+03  0.58689487935E+03  0.17300000000E+03 0. -1.
</event>
<event>
 4    1  0.5821292E+000  0.1000000E+03  0.7546771E-02  0.1280296E+00
         21   -1    0    0  503  502  0.00000000000E+00  0.00000000000E+00  0.19824066874E+03  0.19824066874E+03  0.00000000000E+00 0.  1.
         21   -1    0    0  501  503 -0.00000000000E+00 -0.00000000000E+00 -0.21504213499E+03  0.21504213499E+03  0.00000000000E+00 0.  1.
          6    1    1    2  501    0 -0.93824314709E+02 -0.61542871857E+02  0.21231722689E+01  0.20621356640E+03  0.17300000000E+03 0.  1.
         -6    1    1    2    0  502  0.93824314709E+02  0.61542871857E+02 -0.18924638514E+02  0.20706923733E+03  0.17300000000E+03 0.  1.
</event>
<event>
 4    1  0.5821292E+000  0.1000000E+03  0.7546771E-02  0.1280296E+00
         21   -1    0    0  503  502  0.00000000000E+00  0.00000000000E+00  0.12116634128E+04  0.12116634128E+04  0.00000000000E+00 0.  1.
         21   -1    0    0  501  503 -0.00000000000E+00 -0.00000000000E+00 -0.27491971114E+03  0.27491971114E+03  0.00000000000E+00 0.  1.
          6    1    1    2  501    0  0.46468209033E+03 -0.61315212646E+02  0.96247490088E+02  0.50880406811E+03  0.17300000000E+03 0.  1.
         -6    1    1    2    0  502 -0.46468209033E+03  0.61315212646E+02  0.84049621159E+03  0.97777905586E+03  0.17300000000E+03 0.  1.
</event>
<event>
 4    1  0.5821292E+000  0.1000000E+03  0.7546771E-02  0.1280296E+00
         21   -1    0    0  503  502  0.00000000000E+00  0.00000000000E+00  0.16662608937E+04  0.16662608937E+04  0.00000000000E+00 0.  1.
         21   -1    0    0  501  503 -0.00000000000E+00 -0.00000000000E+00 -0.23500534094E+02  0.23500534094E+02  0.00000000000E+00 0.  1.
          6    1    1    2  501    0 -0.50515484953E+02 -0.67948581478E+02  0.62758659146E+03  0.65647753482E+03  0.17300000000E+03 0.  1.
         -6    1    1    2    0  502  0.50515484953E+02  0.67948581478E+02  0.10151737682E+04  0.10332838930E+04  0.17300000000E+03 0.  1.
</event>
<event>
 4    1  0.5821292E+000  0.1000000E+03  0.7546771E-02  0.1280296E+00
         21   -1    0    0  501  502  0.00000000000E+00  0.00000000000E+00  0.17443348614E+03  0.17443348614E+03  0.00000000000E+00 0.  1.
         21   -1    0    0  502  503 -0.00000000000E+00 -0.00000000000E+00 -0.28937411539E+03  0.28937411539E+03  0.00000000000E+00 0.  1.
          6    1    1    2  501    0  0.81764382405E+02 -0.24531229995E+02  0.61390972872E+02  0.20244764021E+03  0.17300000000E+03 0.  1.
         -6    1    1    2    0  503 -0.81764382405E+02  0.24531229995E+02 -0.17633160212E+03  0.26135996132E+03  0.17300000000E+03 0.  1.
</event>
<event>
 4    1  0.5821292E+000  0.1000000E+03  0.7546771E-02  0.1280296E+00
         21   -1    0    0  503  502  0.00000000000E+00  0.00000000000E+00  0.43641391638E+02  0.43641391638E+02  0.00000000000E+00 0. -1.
         21   -1    0    0  501  503 -0.00000000000E+00 -0.00000000000E+00 -0.74381573851E+03  0.74381573851E+03  0.00000000000E+00 0. -1.
          6    1    1    2  501    0 -0.35554705804E+02 -0.35093216212E+02 -0.36328676058E+03  0.40546509263E+03  0.17300000000E+03 0. -1.
         -6    1    1    2    0  502  0.35554705804E+02  0.35093216212E+02 -0.33688758629E+03  0.38199203751E+03  0.17300000000E+03 0. -1.
</event>
<event>
 4    1  0.5821292E+000  0.1000000E+03  0.7546771E-02  0.1280296E+00
         21   -1    0    0  503  502  0.00000000000E+00  0.00000000000E+00  0.67283235285E+03  0.67283235285E+03  0.00000000000E+00 0.  1.
         21   -1    0    0  501  503 -0.00000000000E+00 -0.00000000000E+00 -0.11923899615E+03  0.11923899615E+03  0.00000000000E+00 0.  1.
          6    1    1    2  501    0  0.13745754580E+02  0.22379815283E+03  0.26990486829E+03  0.39121886062E+03  0.17300000000E+03 0.  1.
         -6    1    1    2    0  502 -0.13745754580E+02 -0.22379815283E+03  0.28368848841E+03  0.40085248837E+03  0.17300000000E+03 0.  1.
</event>
<event>
 4    1  0.5821292E+000  0.1000000E+03  0.7546771E-02  0.1280296E+00
         21   -1    0    0  503  502  0.00000000000E+00  0.00000000000E+00  0.30425089730E+03  0.30425089730E+03  0.00000000000E+00 0.  1.
         21   -1    0    0  501  503 -0.00000000000E+00 -0.00000000000E+00 -0.11929834783E+03  0.11929834783E+03  0.00000000000E+00 0.  1.
          6    1    1    2  501    0 -0.78933619302E+02  0.10682369711E+02  0.87145312867E+02  0.20944673507E+03  0.17300000000E+03 0.  1.
         -6    1    1    2    0  502  0.78933619302E+02 -0.10682369711E+02  0.97807236601E+02  0.21410251005E+03  0.17300000000E+03 0.  1.
</event>
<event>
 4    1  0.5821292E+000  0.1000000E+03  0.7546771E-02  0.1280296E+00
         21   -1    0    0  503  502  0.00000000000E+00  0.00000000000E+00  0.39893581019E+02  0.39893581019E+02  0.00000000000E+00 0.  1.
         21   -1    0    0  501  503 -0.00000000000E+00 -0.00000000000E+00 -0.11819824641E+04  0.11819824641E+04  0.00000000000E+00 0.  1.
          6    1    1    2  501    0  0.32388591052E+02  0.88489156192E+02 -0.31403001435E+03  0.37070635482E+03  0.17300000000E+03 0.  1.
         -6    1    1    2    0  502 -0.32388591052E+02 -0.88489156192E+02 -0.82805886871E+03  0.85116969028E+03  0.17300000000E+03 0.  1.
</event>
<event>
 4    1  0.5821292E+000  0.1000000E+03  0.7546771E-02  0.1280296E+00
         21   -1    0    0  503  502  0.00000000000E+00  0.00000000000E+00  0.14173889664E+03  0.14173889664E+03  0.00000000000E+00 0.  1.
         21   -1    0    0  501  503 -0.00000000000E+00 -0.00000000000E+00 -0.42969148022E+03  0.42969148022E+03  0.00000000000E+00 0.  1.
          6    1    1    2  501    0  0.14769190560E+03 -0.22365701737E+02 -0.25172605668E+03  0.34001195745E+03  0.17300000000E+03 0.  1.
         -6    1    1    2    0  502 -0.14769190560E+03  0.22365701737E+02 -0.36226526890E+02  0.23141841941E+03  0.17300000000E+03 0.  1.
</event>
<event>
 4    1  0.5821292E+000  0.1000000E+03  0.7546771E-02  0.1280296E+00
         21   -1    0    0  503  502  0.00000000000E+00  0.00000000000E+00  0.55240805216E+02  0.55240805216E+02  0.00000000000E+00 0.  1.
         21   -1    0    0  501  503 -0.00000000000E+00 -0.00000000000E+00 -0.97684670637E+03  0.97684670637E+03  0.00000000000E+00 0.  1.
          6    1    1    2  501    0  0.12333340903E+03 -0.92765768978E+02 -0.42814025421E+03  0.48687749481E+03  0.17300000000E+03 0.  1.
         -6    1    1    2    0  502 -0.12333340903E+03  0.92765768978E+02 -0.49346564695E+03  0.54521001678E+03  0.17300000000E+03 0.  1.
</event>
<event>
 4    1  0.5821292E+000  0.1000000E+03  0.7546771E-02  0.1280296E+00
         21   -1    0    0  503  502  0.00000000000E+00  0.00000000000E+00  0.25882964327E+03  0.25882964327E+03  0.00000000000E+00 0. -1.
         21   -1    0    0  501  503 -0.00000000000E+00 -0.00000000000E+00 -0.17291798977E+03  0.17291798977E+03  0.00000000000E+00 0.  1.
          6    1    1    2  501    0 -0.71663704513E+02 -0.66587040822E+02 -0.31034359826E+02  0.20115081914E+03  0.17300000000E+03 0.  1.
         -6    1    1    2    0  502  0.71663704513E+02  0.66587040822E+02  0.11694601332E+03  0.23059681390E+03  0.17300000000E+03 0. -1.
</event>
<event>
 4    1  0.5821292E+000  0.1000000E+03  0.7546771E-02  0.1280296E+00
         21   -1    0    0  503  502  0.00000000000E+00  0.00000000000E+00  0.23364267806E+03  0.23364267806E+03  0.00000000000E+00 0. -1.
         21   -1    0    0  501  503 -0.00000000000E+00 -0.00000000000E+00 -0.50705572219E+03  0.50705572219E+03  0.00000000000E+00 0.  1.
          6    1    1    2  501    0 -0.15263332154E+03  0.10774718691E+02 -0.41130036056E+03  0.47170966919E+03  0.17300000000E+03 0.  1.
         -6    1    1    2    0  502  0.15263332154E+03 -0.10774718691E+02  0.13788731643E+03  0.26898873106E+03  0.17300000000E+03 0. -1.
</event>
<event>
 4    1  0.5821292E+000  0.1000000E+03  0.7546771E-02  0.1280296E+00
         21   -1    0    0  503  502  0.00000000000E+00  0.00000000000E+00  0.27401126902E+03  0.27401126902E+03  0.00000000000E+00 0.  1.
         21   -1    0    0  501  503 -0.00000000000E+00 -0.00000000000E+00 -0.24461789183E+03  0.24461789183E+03  0.00000000000E+00 0. -1.
          6    1    1    2  501    0  0.43057666412E+02  0.17269761174E+03 -0.59046777448E+02  0.25513515960E+03  0.17300000000E+03 0. -1.
         -6    1    1    2    0  502 -0.43057666412E+02 -0.17269761174E+03  0.88440154637E+02  0.26349400124E+03  0.17300000000E+03 0.  1.
</event>
<event>
 4    1  0.5821292E+000  0.1000000E+03  0.7546771E-02  0.1280296E+00
         21   -1    0    0  503  502  0.00000000000E+00  0.00000000000E+00  0.52684515197E+03  0.52684515197E+03  0.00000000000E+00 0.  1.
         21   -1    0    0  501  503 -0.00000000000E+00 -0.00000000000E+00 -0.21969805816E+03  0.21969805816E+03  0.00000000000E+00 0. -1.
          6    1    1    2  501    0  0.97313095735E+02  0.70272484687E+02 -0.13961651665E+03  0.25264566576E+03  0.17300000000E+03 0. -1.
         -6    1    1    2    0  502 -0.97313095735E+02 -0.70272484687E+02  0.44676361046E+03  0.49389754437E+03  0.17300000000E+03 0.  1.
</event>
<event>
 4    1  0.5821292E+000  0.1000000E+03  0.7546771E-02  0.1280296E+00
         21   -1    0    0  501  502  0.00000000000E+00  0.00000000000E+00  0.91534279746E+02  0.91534279746E+02  0.00000000000E+00 0.  1.
         21   -1    0    0  502  503 -0.00000000000E+00 -0.00000000000E+00 -0.13641686125E+04  0.13641686125E+04  0.00000000000E+00 0.  1.
          6    1    1    2  501    0 -0.79481405980E+02  0.26886159102E+03 -0.37305954122E+03  0.49770098484E+03  0.17300000000E+03 0.  1.
         -6    1    1    2    0  503  0.79481405980E+02 -0.26886159102E+03 -0.89957479156E+03  0.95800190743E+03  0.17300000000E+03 0.  1.
</event>
<event>
 4    1  0.5821292E+000  0.1000000E+03  0.7546771E-02  0.1280296E+00
         21   -1    0    0  501  502  0.00000000000E+00  0.00000000000E+00  0.59512388860E+03  0.59512388860E+03  0.00000000000E+00 0. -1.
         21   -1    0    0  502  503 -0.00000000000E+00 -0.00000000000E+00 -0.91706815176E+02  0.91706815176E+02  0.00000000000E+00 0. -1.
          6    1    1    2  501    0 -0.12158795742E+00  0.24602326912E+02  0.47964099235E+03  0.51047994164E+03  0.17300000000E+03 0. -1.
         -6    1    1    2    0  503  0.12158795742E+00 -0.24602326912E+02  0.23776081066E+02  0.17635076213E+03  0.17300000000E+03 0. -1.
</event>
<event>
 4    1  0.5821292E+000  0.1000000E+03  0.7546771E-02  0.1280296E+00
         21   -1    0    0  503  502  0.00000000000E+00  0.00000000000E+00  0.68574593293E+03  0.68574593293E+03  0.00000000000E+00 0. -1.
         21   -1    0    0  501  503 -0.00000000000E+00 -0.00000000000E+00 -0.83741155106E+02  0.83741155106E+02  0.00000000000E+00 0. -1.
          6    1    1    2  501    0 -0.81508878985E+02 -0.13854404831E+03  0.36637762607E+03  0.43588956808E+03  0.17300000000E+03 0. -1.
         -6    1    1    2    0  502  0.81508878985E+02  0.13854404831E+03  0.23562715176E+03  0.33359751996E+03  0.17300000000E+03 0. -1.
</event>
<event>
 4    1  0.5821292E+000  0.1000000E+03  0.7546771E-02  0.1280296E+00
         21   -1    0    0  501  502  0.00000000000E+00  0.00000000000E+00  0.27646020825E+02  0.27646020825E+02  0.00000000000E+00 0. -1.
         21   -1    0    0  502  503 -0.00000000000E+00 -0.00000000000E+00 -0.14430624634E+04  0.14430624634E+04  0.00000000000E+00 0. -1.
          6    1    1    2  501    0 -0.54054987750E+02 -0.73549770576E+02 -0.55886805431E+03  0.59210979774E+03  0.17300000000E+03 0.  1.
         -6    1    1    2    0  503  0.54054987750E+02  0.73549770576E+02 -0.85654838824E+03  0.87859868646E+03  0.17300000000E+03 0.  1.
</event>
<event>
 4    1  0.5821292E+000  0.1000000E+03  0.7546771E-02  0.1280296E+00
         21   -1    0    0  503  502  0.00000000000E+00  0.00000000000E+00  0.23702794329E+03  0.23702794329E+03  0.00000000000E+00 0. -1.
         21   -1    0    0  501  503 -0.00000000000E+00 -0.00000000000E+00 -0.21863350854E+03  0.21863350854E+03  0.00000000000E+00 0. -1.
          6    1    1    2  501    0 -0.10512581140E+03  0.37188391904E+02 -0.88138683972E+02  0.22390140761E+03  0.17300000000E+03 0. -1.
         -6    1    1    2    0  502  0.10512581140E+03 -0.37188391904E+02  0.10653311871E+03  0.23176004422E+03  0.17300000000E+03 0. -1.
</event>
<event>
 4    1  0.5821292E+000  0.1000000E+03  0.7546771E-02  0.1280296E+00
         21   -1    0    0  503  502  0.00000000000E+00  0.00000000000E+00  0.19180305444E+03  0.19180305444E+03  0.00000000000E+00 0. -1.
         21   -1    0    0  501  503 -0.00000000000E+00 -0.00000000000E+00 -0.41863361476E+03  0.41863361476E+03  0.00000000000E+00 0. -1.
          6    1    1    2  501    0 -0.55140311580E+01 -0.60446288605E+00 -0.35507414314E+03  0.39501571746E+03  0.17300000000E+03 0. -1.
         -6    1    1    2    0  502  0.55140311580E+01  0.60446288605E+00  0.12824358282E+03  0.21542095174E+03  0.17300000000E+03 0. -1.
</event>
<event>
 4    1  0.5821292E+000  0.1000000E+03  0.7546771E-02  0.1280296E+00
         21   -1    0    0  501  502  0.00000000000E+00  0.00000000000E+00  0.84267260345E+03  0.84267260345E+03  0.00000000000E+00 0.  1.
         21   -1    0    0  502  503 -0.00000000000E+00 -0.00000000000E+00 -0.80556370376E+02  0.80556370376E+02  0.00000000000E+00 0. -1.
          6    1    1    2  501    0 -0.11987583377E+03 -0.12586482465E+03  0.53694585418E+03  0.59029824659E+03  0.17300000000E+03 0.  1.
         -6    1    1    2    0  503  0.11987583377E+03  0.12586482465E+03  0.22517037889E+03  0.33293072723E+03  0.17300000000E+03 0. -1.
</event>
<event>
 4    1  0.5821292E+000  0.1000000E+03  0.7546771E-02  0.1280296E+00
         21   -1    0    0  503  502  0.00000000000E+00  0.00000000000E+00  0.18821485837E+03  0.18821485837E+03  0.00000000000E+00 0. -1.
         21   -1    0    0  501  503 -0.00000000000E+00 -0.00000000000E+00 -0.30763247910E+03  0.30763247910E+03  0.00000000000E+00 0. -1.
          6    1    1    2  501    0  0.31784139787E+02  0.93648809578E+01 -0.22861348692E+03  0.28860190391E+03  0.17300000000E+03 0. -1.
         -6    1    1    2    0  502 -0.31784139787E+02 -0.93648809578E+01  0.10919586619E+03  0.20724543356E+03  0.17300000000E+03 0. -1.
</event>
<event>
 4    1  0.5821292E+000  0.1000000E+03  0.7546771E-02  0.1280296E+00
         21   -1    0    0  501  502  0.00000000000E+00  0.00000000000E+00  0.15609195315E+03  0.15609195315E+03  0.00000000000E+00 0. -1.
         21   -1    0    0  502  503 -0.00000000000E+00 -0.00000000000E+00 -0.19194556402E+03  0.19194556402E+03  0.00000000000E+00 0. -1.
          6    1    1    2  501    0  0.53728051546E+01  0.15890978817E+01 -0.18806540478E+02  0.17410938582E+03  0.17300000000E+03 0. -1.
         -6    1    1    2    0  503 -0.53728051546E+01 -0.15890978817E+01 -0.17047070391E+02  0.17392813135E+03  0.17300000000E+03 0. -1.
</event>
<event>
 4    1  0.5821292E+000  0.1000000E+03  0.7546771E-02  0.1280296E+00
         21   -1    0    0  501  502  0.00000000000E+00  0.00000000000E+00  0.25612280527E+04  0.25612280527E+04  0.00000000000E+00 0. -1.
         21   -1    0    0  502  503 -0.00000000000E+00 -0.00000000000E+00 -0.16265185696E+02  0.16265185696E+02  0.00000000000E+00 0. -1.
          6    1    1    2  501    0 -0.34303476584E+02 -0.96297031894E+02  0.14983830820E+04  0.15117971780E+04  0.17300000000E+03 0. -1.
         -6    1    1    2    0  503  0.34303476584E+02  0.96297031894E+02  0.10465797850E+04  0.10656960605E+04  0.17300000000E+03 0. -1.
</event>
<event>
 4    1  0.5821292E+000  0.1000000E+03  0.7546771E-02  0.1280296E+00
         21   -1    0    0  503  502  0.00000000000E+00  0.00000000000E+00  0.10649410780E+04  0.10649410780E+04  0.00000000000E+00 0.  1.
         21   -1    0    0  501  503 -0.00000000000E+00 -0.00000000000E+00 -0.10456948787E+03  0.10456948787E+03  0.00000000000E+00 0. -1.
          6    1    1    2  501    0 -0.40667161878E+02  0.27027829147E+02 -0.12479113035E+02  0.18019170310E+03  0.17300000000E+03 0. -1.
         -6    1    1    2    0  502  0.40667161878E+02 -0.27027829147E+02  0.97285070312E+03  0.98931886274E+03  0.17300000000E+03 0.  1.
</event>
<event>
 4    1  0.5821292E+000  0.1000000E+03  0.7546771E-02  0.1280296E+00
         21   -1    0    0  503  502  0.00000000000E+00  0.00000000000E+00  0.16032790129E+03  0.16032790129E+03  0.00000000000E+00 0.  1.
         21   -1    0    0  501  503 -0.00000000000E+00 -0.00000000000E+00 -0.31896171009E+03  0.31896171009E+03  0.00000000000E+00 0. -1.
          6    1    1    2  501    0  0.40072702745E+00 -0.12993616861E+03 -0.14901679251E+03  0.26271386135E+03  0.17300000000E+03 0. -1.
         -6    1    1    2    0  502 -0.40072702745E+00  0.12993616861E+03 -0.96170162844E+01  0.21657575002E+03  0.17300000000E+03 0.  1.
</event>
<event>
 4    1  0.5821292E+000  0.1000000E+03  0.7546771E-02  0.1280296E+00
         21   -1    0    0  503  502  0.00000000000E+00  0.00000000000E+00  0.25340118239E+03  0.25340118239E+03  0.00000000000E+00 0.  1.
         21   -1    0    0  501  503 -0.00000000000E+00 -0.00000000000E+00 -0.23671575438E+03  0.23671575438E+03  0.00000000000E+00 0. -1.
          6    1    1    2  501    0 -0.94615141431E+02 -0.48014888836E+02 -0.12884113634E+03  0.24038821300E+03  0.17300000000E+03 0. -1.
         -6    1    1    2    0  502  0.94615141431E+02  0.48014888836E+02  0.14552656435E+03  0.24972872376E+03  0.17300000000E+03 0.  1.
</event>
<event>
 4    1  0.5821292E+000  0.1000000E+03  0.7546771E-02  0.1280296E+00
         21   -1    0    0  503  502  0.00000000000E+00  0.00000000000E+00  0.31149216595E+03  0.31149216595E+03  0.00000000000E+00 0.  1.
         21   -1    0    0  501  503 -0.00000000000E+00 -0.00000000000E+00 -0.22646013020E+03  0.22646013020E+03  0.00000000000E+00 0. -1.
          6    1    1    2  501    0 -0.56726871700E+02  0.33414544161E+02 -0.15037434534E+03  0.23848671550E+03  0.17300000000E+03 0. -1.
         -6    1    1    2    0  502  0.56726871700E+02 -0.33414544161E+02  0.23540638109E+03  0.29946558064E+03  0.17300000000E+03 0.  1.
</event>
<event>
 4    1  0.5821292E+000  0.1000000E+03  0.7546771E-02  0.1280296E+00
         21   -1    0    0  501  502  0.00000000000E+00  0.00000000000E+00  0.15144637716E+04  0.15144637716E+04  0.00000000000E+00 0. -1.
         21   -1    0    0  502  503 -0.00000000000E+00 -0.00000000000E+00 -0.54325442482E+02  0.54325442482E+02  0.00000000000E+00 0. -1.
          6    1    1    2  501    0  0.31854399568E+02  0.12160647539E+02  0.13487455600E+04  0.13602228382E+04  0.17300000000E+03 0. -1.
         -6    1    1    2    0  503 -0.31854399568E+02 -0.12160647539E+02  0.11139276918E+03  0.20856637587E+03  0.17300000000E+03 0. -1.
</event>
<event>
 4    1  0.5821292E+000  0.1000000E+03  0.7546771E-02  0.1280296E+00
         21   -1    0    0  501  502  0.00000000000E+00  0.00000000000E+00  0.17085400506E+03  0.17085400506E+03  0.00000000000E+00 0. -1.
         21   -1    0    0  502  503 -0.00000000000E+00 -0.00000000000E+00 -0.32985802216E+03  0.32985802216E+03  0.00000000000E+00 0. -1.
          6    1    1    2  501    0 -0.16036934302E+03 -0.26647166630E+02 -0.79932348640E+02  0.25049267061E+03  0.17300000000E+03 0. -1.
         -6    1    1    2    0  503  0.16036934302E+03  0.26647166630E+02 -0.79071668460E+02  0.25021935661E+03  0.17300000000E+03 0. -1.
</event>
<event>
 4    1  0.5821292E+000  0.1000000E+03  0.7546771E-02  0.1280296E+00
         21   -1    0    0  501  502  0.00000000000E+00  0.00000000000E+00  0.60839511875E+03  0.60839511875E+03  0.00000000000E+00 0. -1.
         21   -1    0    0  502  503 -0.00000000000E+00 -0.00000000000E+00 -0.14891456414E+03  0.14891456414E+03  0.00000000000E+00 0. -1.
          6    1    1    2  501    0 -0.86898098422E+02 -0.12219329208E+02  0.51927069239E+03  0.55432088495E+03  0.17300000000E+03 0. -1.
         -6    1    1    2    0  503  0.86898098422E+02  0.12219329208E+02 -0.59790137774E+02  0.20298879794E+03  0.17300000000E+03 0. -1.
</event>
<event>
 4    1  0.5821292E+000  0.1000000E+03  0.7546771E-02  0.1280296E+00
         21   -1    0    0  503  502  0.00000000000E+00  0.00000000000E+00  0.32989901659E+03  0.32989901659E+03  0.00000000000E+00 0.  1.
         21   -1    0    0  501  503 -0.00000000000E+00 -0.00000000000E+00 -0.11365205297E+03  0.11365205297E+03  0.00000000000E+00 0.  1.
          6    1    1    2  501    0 -0.80632203588E+00  0.96152949545E+00  0.85175632994E+01  0.17321409752E+03  0.17300000000E+03 0.  1.
         -6    1    1    2    0  502  0.80632203588E+00 -0.96152949545E+00  0.20772940033E+03  0.27033697204E+03  0.17300000000E+03 0.  1.
</event>
<event>
 4    1  0.5821292E+000  0.1000000E+03  0.7546771E-02  0.1280296E+00
         21   -1    0    0  503  502  0.00000000000E+00  0.00000000000E+00  0.54431225481E+02  0.54431225481E+02  0.00000000000E+00 0.  1.
         21   -1    0    0  501  503 -0.00000000000E+00 -0.00000000000E+00 -0.16698455708E+04  0.16698455708E+04  0.00000000000E+00 0.  1.
          6    1    1    2  501    0  0.64479079057E+02  0.11820177928E+03 -0.13995504292E+04  0.14166155499E+04  0.17300000000E+03 0.  1.
         -6    1    1    2    0  502 -0.64479079057E+02 -0.11820177928E+03 -0.21586391612E+03  0.30766124641E+03  0.17300000000E+03 0.  1.
</event>
<event>
 4    1  0.5821292E+000  0.1000000E+03  0.7546771E-02  0.1280296E+00
         21   -1    0    0  503  502  0.00000000000E+00  0.00000000000E+00  0.38690510729E+02  0.38690510729E+02  0.00000000000E+00 0.  1.
         21   -1    0    0  501  503 -0.00000000000E+00 -0.00000000000E+00 -0.11984236249E+04  0.11984236249E+04  0.00000000000E+00 0.  1.
          6    1    1    2  501    0  0.52674285450E+02  0.79752517941E+02 -0.82536016406E+03  0.84869514249E+03  0.17300000000E+03 0.  1.
         -6    1    1    2    0  502 -0.52674285450E+02 -0.79752517941E+02 -0.33437295010E+03  0.38841899313E+03  0.17300000000E+03 0.  1.
</event>
<event>
 4    1  0.5821292E+000  0.1000000E+03  0.7546771E-02  0.1280296E+00
         21   -1    0    0  503  502  0.00000000000E+00  0.00000000000E+00  0.31712402035E+03  0.31712402035E+03  0.00000000000E+00 0.  1.
         21   -1    0    0  501  503 -0.00000000000E+00 -0.00000000000E+00 -0.10581427463E+03  0.10581427463E+03  0.00000000000E+00 0.  1.
          6    1    1    2  501    0  0.51712215278E+02  0.30029841737E+02  0.97386231835E+02  0.20733794336E+03  0.17300000000E+03 0.  1.
         -6    1    1    2    0  502 -0.51712215278E+02 -0.30029841737E+02  0.11392351389E+03  0.21560035163E+03  0.17300000000E+03 0.  1.
</event>
<event>
 4    1  0.5821292E+000  0.1000000E+03  0.7546771E-02  0.1280296E+00
         21   -1    0    0  503  502  0.00000000000E+00  0.00000000000E+00  0.54914774458E+02  0.54914774458E+02  0.00000000000E+00 0.  1.
         21   -1    0    0  501  503 -0.00000000000E+00 -0.00000000000E+00 -0.77126165064E+03  0.77126165064E+03  0.00000000000E+00 0.  1.
          6    1    1    2  501    0 -0.10550948460E+03 -0.17314060745E+02 -0.42141336652E+03  0.46792120439E+03  0.17300000000E+03 0.  1.
         -6    1    1    2    0  502  0.10550948460E+03  0.17314060745E+02 -0.29493350966E+03  0.35825522070E+03  0.17300000000E+03 0.  1.
</event>
<event>
 4    1  0.5821292E+000  0.1000000E+03  0.7546771E-02  0.1280296E+00
         21   -1    0    0  503  502  0.00000000000E+00  0.00000000000E+00  0.70613865595E+02  0.70613865595E+02  0.00000000000E+00 0. -1.
         21   -1    0    0  501  503 -0.00000000000E+00 -0.00000000000E+00 -0.20874968408E+04  0.20874968408E+04  0.00000000000E+00 0.  1.
          6    1    1    2  501    0  0.82929785875E+02 -0.33251397215E+03 -0.10249088691E+04  0.10944451019E+04  0.17300000000E+03 0.  1.
         -6    1    1    2    0  502 -0.82929785875E+02  0.33251397215E+03 -0.99197410612E+03  0.10636656045E+04  0.17300000000E+03 0. -1.
</event>
<event>
 4    1  0.5821292E+000  0.1000000E+03  0.7546771E-02  0.1280296E+00
         21   -1    0    0  501  502  0.00000000000E+00  0.00000000000E+00  0.46147164299E+03  0.46147164299E+03  0.00000000000E+00 0.  1.
         21   -1    0    0  502  503 -0.00000000000E+00 -0.00000000000E+00 -0.12122056466E+03  0.12122056466E+03  0.00000000000E+00 0.  1.
          6    1    1    2  501    0 -0.51085555671E+02 -0.68507840792E+02  0.33861000042E+03  0.38972912469E+03  0.17300000000E+03 0.  1.
         -6    1    1    2    0  503  0.51085555671E+02  0.68507840792E+02  0.16410779066E+01  0.19296308296E+03  0.17300000000E+03 0.  1.
</event>
<event>
 4    1  0.5821292E+000  0.1000000E+03  0.7546771E-02  0.1280296E+00
         21   -1    0    0  503  502  0.00000000000E+00  0.00000000000E+00  0.49464872627E+02  0.49464872627E+02  0.00000000000E+00 0.  1.
         21   -1    0    0  501  503 -0.00000000000E+00 -0.00000000000E+00 -0.23730301660E+04  0.23730301660E+04  0.00000000000E+00 0.  1.
          6    1    1    2  501    0  0.13767650805E+03  0.80191869389E+02 -0.20425545943E+04  0.20560505411E+04  0.17300000000E+03 0. -1.
         -6    1    1    2    0  502 -0.13767650805E+03 -0.80191869389E+02 -0.28101069905E+03  0.36644449752E+03  0.17300000000E+03 0. -1.
</event>
<event>
 4    1  0.5821292E+000  0.1000000E+03  0.7546771E-02  0.1280296E+00
         21   -1    0    0  503  502  0.00000000000E+00  0.00000000000E+00  0.29993123398E+03  0.29993123398E+03  0.00000000000E+00 0.  1.
         21   -1    0    0  501  503 -0.00000000000E+00 -0.00000000000E+00 -0.58702703413E+03  0.58702703413E+03  0.00000000000E+00 0.  1.
          6    1    1    2  501    0 -0.37274329188E+03  0.21102612021E+01 -0.23320833342E+03  0.47250094351E+03  0.17300000000E+03 0. -1.
         -6    1    1    2    0  502  0.37274329188E+03 -0.21102612021E+01 -0.53887466733E+02  0.41445732460E+03  0.17300000000E+03 0. -1.
</event>
<event>
 4    1  0.5821292E+000  0.1000000E+03  0.7546771E-02  0.1280296E+00
         21   -1    0    0  503  502  0.00000000000E+00  0.00000000000E+00  0.44386853989E+03  0.44386853989E+03  0.00000000000E+00 0.  1.
         21   -1    0    0  501  503 -0.00000000000E+00 -0.00000000000E+00 -0.10527028133E+03  0.10527028133E+03  0.00000000000E+00 0.  1.
          6    1    1    2  501    0  0.79142748362E+02 -0.40829876795E+02  0.49694360624E+02  0.20082127112E+03  0.17300000000E+03 0. -1.
         -6    1    1    2    0  502 -0.79142748362E+02  0.40829876795E+02  0.28890389794E+03  0.34831755009E+03  0.17300000000E+03 0. -1.
</event>
<event>
 4    1  0.5821292E+000  0.1000000E+03  0.7546771E-02  0.1280296E+00
         21   -1    0    0  501  502  0.00000000000E+00  0.00000000000E+00  0.39823670120E+03  0.39823670120E+03  0.00000000000E+00 0. -1.
         21   -1    0    0  502  503 -0.00000000000E+00 -0.00000000000E+00 -0.12026026430E+03  0.12026026430E+03  0.00000000000E+00 0. -1.
          6    1    1    2  501    0  0.65954583027E+02 -0.55771984145E+02  0.26039179038E+03  0.32433532915E+03  0.17300000000E+03 0. -1.
         -6    1    1    2    0  503 -0.65954583027E+02  0.55771984145E+02  0.17584646513E+02  0.19416163635E+03  0.17300000000E+03 0. -1.
</event>
<event>
 4    1  0.5821292E+000  0.1000000E+03  0.7546771E-02  0.1280296E+00
         21   -1    0    0  503  502  0.00000000000E+00  0.00000000000E+00  0.36320498489E+02  0.36320498489E+02  0.00000000000E+00 0. -1.
         21   -1    0    0  501  503 -0.00000000000E+00 -0.00000000000E+00 -0.11378573430E+04  0.11378573430E+04  0.00000000000E+00 0. -1.
          6    1    1    2  501    0 -0.37395674869E+02 -0.99959326418E+02 -0.55905953366E+03  0.59486709912E+03  0.17300000000E+03 0. -1.
         -6    1    1    2    0  502  0.37395674869E+02  0.99959326418E+02 -0.54247731083E+03  0.57931074235E+03  0.17300000000E+03 0. -1.
</event>
<event>
 4    1  0.5821292E+000  0.1000000E+03  0.7546771E-02  0.1280296E+00
         21   -1    0    0  503  502  0.00000000000E+00  0.00000000000E+00  0.32578680198E+03  0.32578680198E+03  0.00000000000E+00 0. -1.
         21   -1    0    0  501  503 -0.00000000000E+00 -0.00000000000E+00 -0.16267619760E+03  0.16267619760E+03  0.00000000000E+00 0. -1.
          6    1    1    2  501    0  0.12709488414E+03  0.65299233015E+02  0.26925233728E+02  0.22598908738E+03  0.17300000000E+03 0. -1.
         -6    1    1    2    0  502 -0.12709488414E+03 -0.65299233015E+02  0.13618537065E+03  0.26247391220E+03  0.17300000000E+03 0. -1.
</event>
<event>
 4    1  0.5821292E+000  0.1000000E+03  0.7546771E-02  0.1280296E+00
         21   -1    0    0  501  502  0.00000000000E+00  0.00000000000E+00  0.97244345260E+03  0.97244345260E+03  0.00000000000E+00 0. -1.
         21   -1    0    0  502  503 -0.00000000000E+00 -0.00000000000E+00 -0.48535435352E+02  0.48535435352E+02  0.00000000000E+00 0.  1.
          6    1    1    2  501    0 -0.46176376606E+02 -0.71642100691E+02  0.69697925975E+03  0.72316936942E+03  0.17300000000E+03 0. -1.
         -6    1    1    2    0  503  0.46176376606E+02  0.71642100691E+02  0.22692875750E+03  0.29780951853E+03  0.17300000000E+03 0.  1.
</event>
<event>
 4    1  0.5821292E+000  0.1000000E+03  0.7546771E-02  0.1280296E+00
         21   -1    0    0  501  502  0.00000000000E+00  0.00000000000E+00  0.19553596132E+03  0.19553596132E+03  0.00000000000E+00 0. -1.
         21   -1    0    0  502  503 -0.00000000000E+00 -0.00000000000E+00 -0.18128496767E+03  0.18128496767E+03  0.00000000000E+00 0.  1.
          6    1    1    2  501    0 -0.68055078338E+02 -0.16264555756E+02  0.32097338496E+02  0.18935487477E+03  0.17300000000E+03 0. -1.
         -6    1    1    2    0  503  0.68055078338E+02  0.16264555756E+02 -0.17846344842E+02  0.18746605422E+03  0.17300000000E+03 0.  1.
</event>
<event>
 4    1  0.5821292E+000  0.1000000E+03  0.7546771E-02  0.1280296E+00
         21   -1    0    0  501  502  0.00000000000E+00  0.00000000000E+00  0.25124903812E+04  0.25124903812E+04  0.00000000000E+00 0. -1.
         21   -1    0    0  502  503 -0.00000000000E+00 -0.00000000000E+00 -0.43739424403E+02  0.43739424403E+02  0.00000000000E+00 0. -1.
          6    1    1    2  501    0  0.15021880239E+03 -0.31772380914E+02  0.21499315470E+04  0.21623389720E+04  0.17300000000E+03 0. -1.
         -6    1    1    2    0  503 -0.15021880239E+03  0.31772380914E+02  0.31881940980E+03  0.39389083367E+03  0.17300000000E+03 0. -1.
</event>
<event>
 4    1  0.5821292E+000  0.1000000E+03  0.7546771E-02  0.1280296E+00
         21   -1    0    0  501  502  0.00000000000E+00  0.00000000000E+00  0.53924951972E+02  0.53924951972E+02  0.00000000000E+00 0. -1.
         21   -1    0    0  502  503 -0.00000000000E+00 -0.00000000000E+00 -0.59853990410E+03  0.59853990410E+03  0.00000000000E+00 0. -1.
          6    1    1    2  501    0  0.77205928332E+01  0.38829412751E+02 -0.22159597472E+03  0.28390334070E+03  0.17300000000E+03 0. -1.
         -6    1    1    2    0  503 -0.77205928332E+01 -0.38829412751E+02 -0.32301897741E+03  0.36856151538E+03  0.17300000000E+03 0. -1.
</event>
<event>
 4    1  0.5821292E+000  0.1000000E+03  0.7546771E-02  0.1280296E+00
         21   -1    0    0  501  502  0.00000000000E+00  0.00000000000E+00  0.11259872561E+04  0.11259872561E+04  0.00000000000E+00 0. -1.
         21   -1    0    0  502  503 -0.00000000000E+00 -0.00000000000E+00 -0.22705837958E+03  0.22705837958E+03  0.00000000000E+00 0. -1.
          6    1    1    2  501    0  0.36477868725E+00  0.54019531445E+01  0.10851158329E+04  0.10988333290E+04  0.17300000000E+03 0. -1.
         -6    1    1    2    0  503 -0.36477868725E+00 -0.54019531445E+01 -0.18618695634E+03  0.25421230669E+03  0.17300000000E+03 0. -1.
</event>
<event>
 4    1  0.5821292E+000  0.1000000E+03  0.7546771E-02  0.1280296E+00
         21   -1    0    0  501  502  0.00000000000E+00  0.00000000000E+00  0.24089713535E+04  0.24089713535E+04  0.00000000000E+00 0.  1.
         21   -1    0    0  502  503 -0.00000000000E+00 -0.00000000000E+00 -0.14834600485E+02  0.14834600485E+02  0.00000000000E+00 0.  1.
          6    1    1    2  501    0 -0.61378896841E+02 -0.36330636581E+02  0.13690702368E+04  0.13817994056E+04  0.17300000000E+03 0.  1.
         -6    1    1    2    0  503  0.61378896841E+02  0.36330636581E+02  0.10250665162E+04  0.10420065484E+04  0.17300000000E+03 0.  1.
</event>
<event>
 4    1  0.5821292E+000  0.1000000E+03  0.7546771E-02  0.1280296E+00
         21   -1    0    0  501  502  0.00000000000E+00  0.00000000000E+00  0.61853646450E+03  0.61853646450E+03  0.00000000000E+00 0.  1.
         21   -1    0    0  502  503 -0.00000000000E+00 -0.00000000000E+00 -0.19527041216E+03  0.19527041216E+03  0.00000000000E+00 0.  1.
          6    1    1    2  501    0 -0.10883825135E+03  0.71712502946E+02  0.52983885976E+03  0.57240428488E+03  0.17300000000E+03 0.  1.
         -6    1    1    2    0  503  0.10883825135E+03 -0.71712502946E+02 -0.10657280742E+03  0.24140259178E+03  0.17300000000E+03 0.  1.
</event>
<event>
 4    1  0.5821292E+000  0.1000000E+03  0.7546771E-02  0.1280296E+00
         21   -1    0    0  503  502  0.00000000000E+00  0.00000000000E+00  0.73078543629E+02  0.73078543629E+02  0.00000000000E+00 0.  1.
         21   -1    0    0  501  503 -0.00000000000E+00 -0.00000000000E+00 -0.68990341591E+03  0.68990341591E+03  0.00000000000E+00 0.  1.
          6    1    1    2  501    0  0.93046443051E+02 -0.85979338038E+02 -0.42159805952E+03  0.47299472610E+03  0.17300000000E+03 0.  1.
         -6    1    1    2    0  502 -0.93046443051E+02  0.85979338038E+02 -0.19522681277E+03  0.28998723344E+03  0.17300000000E+03 0.  1.
</event>
<event>
 4    1  0.5821292E+000  0.1000000E+03  0.7546771E-02  0.1280296E+00
         21   -1    0    0  503  502  0.00000000000E+00  0.00000000000E+00  0.21089021218E+03  0.21089021218E+03  0.00000000000E+00 0.  1.
         21   -1    0    0  501  503 -0.00000000000E+00 -0.00000000000E+00 -0.40107534193E+03  0.40107534193E+03  0.00000000000E+00 0.  1.
          6    1    1    2  501    0  0.19961002894E+03  0.68475010437E+02  0.10751078742E+02  0.27308895328E+03  0.17300000000E+03 0.  1.
         -6    1    1    2    0  502 -0.19961002894E+03 -0.68475010437E+02 -0.20093620850E+03  0.33887660084E+03  0.17300000000E+03 0.  1.
</event>
<event>
 4    1  0.5821292E+000  0.1000000E+03  0.7546771E-02  0.1280296E+00
         21   -1    0    0  501  502  0.00000000000E+00  0.00000000000E+00  0.42910320062E+03  0.42910320062E+03  0.00000000000E+00 0. -1.
         21   -1    0    0  502  503 -0.00000000000E+00 -0.00000000000E+00 -0.91484386626E+02  0.91484386626E+02  0.00000000000E+00 0. -1.
          6    1    1    2  501    0  0.40203605929E+02  0.81561110924E+02  0.21155541537E+03  0.28801603865E+03  0.17300000000E+03 0. -1.
         -6    1    1    2    0  503 -0.40203605929E+02 -0.81561110924E+02  0.12606339862E+03  0.23257154860E+03  0.17300000000E+03 0. -1.
</event>
<event>
 4    1  0.5821292E+000  0.1000000E+03  0.7546771E-02  0.1280296E+00
         21   -1    0    0  501  502  0.00000000000E+00  0.00000000000E+00  0.46740183823E+02  0.46740183823E+02  0.00000000000E+00 0. -1.
         21   -1    0    0  502  503 -0.00000000000E+00 -0.00000000000E+00 -0.74081763736E+03  0.74081763736E+03  0.00000000000E+00 0. -1.
          6    1    1    2  501    0  0.22116360863E+02 -0.57958727046E+02 -0.28539279733E+03  0.33945013806E+03  0.17300000000E+03 0. -1.
         -6    1    1    2    0  503 -0.22116360863E+02  0.57958727046E+02 -0.40868465621E+03  0.44810768313E+03  0.17300000000E+03 0. -1.
</event>
<event>
 4    1  0.5821292E+000  0.1000000E+03  0.7546771E-02  0.1280296E+00
         21   -1    0    0  503  502  0.00000000000E+00  0.00000000000E+00  0.77497831464E+02  0.77497831464E+02  0.00000000000E+00 0. -1.
         21   -1    0    0  501  503 -0.00000000000E+00 -0.00000000000E+00 -0.95505849297E+03  0.95505849297E+03  0.00000000000E+00 0. -1.
          6    1    1    2  501    0  0.37999090092E+02 -0.94346167558E+02 -0.78735986733E+03  0.81253288602E+03  0.17300000000E+03 0. -1.
         -6    1    1    2    0  502 -0.37999090092E+02  0.94346167558E+02 -0.90200794170E+02  0.22002343841E+03  0.17300000000E+03 0. -1.
</event>
<event>
 4    1  0.5821292E+000  0.1000000E+03  0.7546771E-02  0.1280296E+00
         21   -1    0    0  503  502  0.00000000000E+00  0.00000000000E+00  0.26014026996E+03  0.26014026996E+03  0.00000000000E+00 0. -1.
         21   -1    0    0  501  503 -0.00000000000E+00 -0.00000000000E+00 -0.10107209185E+04  0.10107209185E+04  0.00000000000E+00 0. -1.
          6    1    1    2  501    0  0.74518457086E+02  0.13288324236E+03 -0.94288762586E+03  0.97065804048E+03  0.17300000000E+03 0. -1.
         -6    1    1    2    0  502 -0.74518457086E+02 -0.13288324236E+03  0.19230697730E+03  0.30020314799E+03  0.17300000000E+03 0. -1.
</event>
<event>
 4    1  0.5821292E+000  0.1000000E+03  0.7546771E-02  0.1280296E+00
         21   -1    0    0  503  502  0.00000000000E+00  0.00000000000E+00  0.10438858195E+03  0.10438858195E+03  0.00000000000E+00 0. -1.
         21   -1    0    0  501  503 -0.00000000000E+00 -0.00000000000E+00 -0.58874629317E+03  0.58874629317E+03  0.00000000000E+00 0. -1.
          6    1    1    2  501    0 -0.42710427677E+02 -0.55040064462E+02 -0.47050513544E+03  0.50612021477E+03  0.17300000000E+03 0. -1.
         -6    1    1    2    0  502  0.42710427677E+02  0.55040064462E+02 -0.13852575773E+02  0.18701466034E+03  0.17300000000E+03 0. -1.
</event>
<event>
 4    1  0.5821292E+000  0.1000000E+03  0.7546771E-02  0.1280296E+00
         21   -1    0    0  503  502  0.00000000000E+00  0.00000000000E+00  0.18706031656E+03  0.18706031656E+03  0.00000000000E+00 0. -1.
         21   -1    0    0  501  503 -0.00000000000E+00 -0.00000000000E+00 -0.38410247313E+03  0.38410247313E+03  0.00000000000E+00 0.  1.
          6    1    1    2  501    0  0.15668868036E+03  0.57195338755E+01 -0.23880436747E+03  0.33397691768E+03  0.17300000000E+03 0. -1.
         -6    1    1    2    0  502 -0.15668868036E+03 -0.57195338755E+01  0.41762210895E+02  0.23718587201E+03  0.17300000000E+03 0. -1.
</event>
<event>
 4    1  0.5821292E+000  0.1000000E+03  0.7546771E-02  0.1280296E+00
         21   -1    0    0  503  502  0.00000000000E+00  0.00000000000E+00  0.44373427408E+03  0.44373427408E+03  0.00000000000E+00 0. -1.
         21   -1    0    0  501  503 -0.00000000000E+00 -0.00000000000E+00 -0.16611231447E+03  0.16611231447E+03  0.00000000000E+00 0.  1.
          6    1    1    2  501    0 -0.14319438270E+03  0.82330913308E+02 -0.54470918140E+01  0.23925233819E+03  0.17300000000E+03 0. -1.
         -6    1    1    2    0  502  0.14319438270E+03 -0.82330913308E+02  0.28306905142E+03  0.37059425035E+03  0.17300000000E+03 0. -1.
</event>
<event>
 4    1  0.5821292E+000  0.1000000E+03  0.7546771E-02  0.1280296E+00
         21   -1    0    0  503  502  0.00000000000E+00  0.00000000000E+00  0.34022934011E+02  0.34022934011E+02  0.00000000000E+00 0. -1.
         21   -1    0    0  501  503 -0.00000000000E+00 -0.00000000000E+00 -0.14970576391E+04  0.14970576391E+04  0.00000000000E+00 0.  1.
          6    1    1    2  501    0  0.64496242188E+02 -0.12891092404E+03 -0.78268025883E+03  0.81442935799E+03  0.17300000000E+03 0.  1.
         -6    1    1    2    0  502 -0.64496242188E+02  0.12891092404E+03 -0.68035444628E+03  0.71665121514E+03  0.17300000000E+03 0. -1.
</event>
<event>
 4    1  0.5821292E+000  0.1000000E+03  0.7546771E-02  0.1280296E+00
         21   -1    0    0  503  502  0.00000000000E+00  0.00000000000E+00  0.39270383503E+03  0.39270383503E+03  0.00000000000E+00 0. -1.
         21   -1    0    0  501  503 -0.00000000000E+00 -0.00000000000E+00 -0.19460055757E+03  0.19460055757E+03  0.00000000000E+00 0.  1.
          6    1    1    2  501    0  0.27057963216E+02 -0.18116611406E+03 -0.21775291763E+02  0.25289613992E+03  0.17300000000E+03 0.  1.
         -6    1    1    2    0  502 -0.27057963216E+02  0.18116611406E+03  0.21987856922E+03  0.33440825268E+03  0.17300000000E+03 0. -1.
</event>
<event>
 4    1  0.5821292E+000  0.1000000E+03  0.7546771E-02  0.1280296E+00
         21   -1    0    0  503  502  0.00000000000E+00  0.00000000000E+00  0.20098319041E+03  0.20098319041E+03  0.00000000000E+00 0.  1.
         21   -1    0    0  501  503 -0.00000000000E+00 -0.00000000000E+00 -0.38165861194E+03  0.38165861194E+03  0.00000000000E+00 0.  1.
          6    1    1    2  501    0 -0.26657079647E+02 -0.89089754706E+01 -0.31590518922E+03  0.36126867885E+03  0.17300000000E+03 0.  1.
         -6    1    1    2    0  502  0.26657079647E+02  0.89089754706E+01  0.13522976770E+03  0.22137312351E+03  0.17300000000E+03 0.  1.
</event>
<event>
 4    1  0.5821292E+000  0.1000000E+03  0.7546771E-02  0.1280296E+00
         21   -1    0    0  501  502  0.00000000000E+00  0.00000000000E+00  0.29737790180E+03  0.29737790180E+03  0.00000000000E+00 0. -1.
         21   -1    0    0  502  503 -0.00000000000E+00 -0.00000000000E+00 -0.12278486861E+03  0.12278486861E+03  0.00000000000E+00 0. -1.
          6    1    1    2  501    0 -0.42774905094E+02  0.65507184054E+02  0.11096896921E+03  0.21991815704E+03  0.17300000000E+03 0.  1.
         -6    1    1    2    0  503  0.42774905094E+02 -0.65507184054E+02  0.63624063983E+02  0.20024461338E+03  0.17300000000E+03 0.  1.
</event>
<event>
 4    1  0.5821292E+000  0.1000000E+03  0.7546771E-02  0.1280296E+00
         21   -1    0    0  501  502  0.00000000000E+00  0.00000000000E+00  0.13751851702E+03  0.13751851702E+03  0.00000000000E+00 0.  1.
         21   -1    0    0  502  503 -0.00000000000E+00 -0.00000000000E+00 -0.36102338715E+03  0.36102338715E+03  0.00000000000E+00 0. -1.
          6    1    1    2  501    0 -0.23718422906E+02  0.16685254906E+02  0.41955029027E+02  0.18036126462E+03  0.17300000000E+03 0.  1.
         -6    1    1    2    0  503  0.23718422906E+02 -0.16685254906E+02 -0.26545989916E+03  0.31818063954E+03  0.17300000000E+03 0. -1.
</event>
<event>
 4    1  0.5821292E+000  0.1000000E+03  0.7546771E-02  0.1280296E+00
         21   -1    0    0  501  502  0.00000000000E+00  0.00000000000E+00  0.68824237969E+02  0.68824237969E+02  0.00000000000E+00 0.  1.
         21   -1    0    0  502  503 -0.00000000000E+00 -0.00000000000E+00 -0.50540567778E+03  0.50540567778E+03  0.00000000000E+00 0. -1.
          6    1    1    2  501    0  0.51164287899E+02  0.37382356589E+02 -0.17367498260E+03  0.25319404519E+03  0.17300000000E+03 0.  1.
         -6    1    1    2    0  503 -0.51164287899E+02 -0.37382356589E+02 -0.26290645722E+03  0.32103587056E+03  0.17300000000E+03 0. -1.
</event>
<event>
 4    1  0.5821292E+000  0.1000000E+03  0.7546771E-02  0.1280296E+00
         21   -1    0    0  501  502  0.00000000000E+00  0.00000000000E+00  0.19264280896E+03  0.19264280896E+03  0.00000000000E+00 0. -1.
         21   -1    0    0  502  503 -0.00000000000E+00 -0.00000000000E+00 -0.35996201032E+03  0.35996201032E+03  0.00000000000E+00 0.  1.
          6    1    1    2  501    0 -0.80346019099E+02  0.24427281441E+01 -0.27413182515E+03  0.33397411167E+03  0.17300000000E+03 0. -1.
         -6    1    1    2    0  503  0.80346019099E+02 -0.24427281441E+01  0.10681262379E+03  0.21863070760E+03  0.17300000000E+03 0.  1.
</event>
<event>
 4    1  0.5821292E+000  0.1000000E+03  0.7546771E-02  0.1280296E+00
         21   -1    0    0  501  502  0.00000000000E+00  0.00000000000E+00  0.85286021639E+02  0.85286021639E+02  0.00000000000E+00 0. -1.
         21   -1    0    0  502  503 -0.00000000000E+00 -0.00000000000E+00 -0.99636336454E+03  0.99636336454E+03  0.00000000000E+00 0.  1.
          6    1    1    2  501    0  0.56345229886E+02  0.42586979899E+02 -0.40443837227E+02  0.19118875427E+03  0.17300000000E+03 0. -1.
         -6    1    1    2    0  503 -0.56345229886E+02 -0.42586979899E+02 -0.87063350568E+03  0.89046063192E+03  0.17300000000E+03 0.  1.
</event>
<event>
 4    1  0.5821292E+000  0.1000000E+03  0.7546771E-02  0.1280296E+00
         21   -1    0    0  501  502  0.00000000000E+00  0.00000000000E+00  0.23431932714E+03  0.23431932714E+03  0.00000000000E+00 0.  1.
         21   -1    0    0  502  503 -0.00000000000E+00 -0.00000000000E+00 -0.20363731636E+03  0.20363731636E+03  0.00000000000E+00 0.  1.
          6    1    1    2  501    0  0.78517401807E+02 -0.88872998828E+02  0.76513982008E+02  0.22326392846E+03  0.17300000000E+03 0.  1.
         -6    1    1    2    0  503 -0.78517401807E+02  0.88872998828E+02 -0.45831971220E+02  0.21469271504E+03  0.17300000000E+03 0.  1.
</event>
<event>
 4    1  0.5821292E+000  0.1000000E+03  0.7546771E-02  0.1280296E+00
         21   -1    0    0  501  502  0.00000000000E+00  0.00000000000E+00  0.90309112644E+03  0.90309112644E+03  0.00000000000E+00 0.  1.
         21   -1    0    0  502  503 -0.00000000000E+00 -0.00000000000E+00 -0.90653109603E+02  0.90653109603E+02  0.00000000000E+00 0.  1.
          6    1    1    2  501    0 -0.84194589490E+02 -0.18076721392E+03  0.59781891542E+03  0.65351508794E+03  0.17300000000E+03 0.  1.
         -6    1    1    2    0  503  0.84194589490E+02  0.18076721392E+03  0.21461910141E+03  0.34022914810E+03  0.17300000000E+03 0.  1.
</event>
<event>
 4    1  0.5821292E+000  0.1000000E+03  0.7546771E-02  0.1280296E+00
         21   -1    0    0  503  502  0.00000000000E+00  0.00000000000E+00  0.12168147482E+04  0.12168147482E+04  0.00000000000E+00 0. -1.
         21   -1    0    0  501  503 -0.00000000000E+00 -0.00000000000E+00 -0.52286145676E+02  0.52286145676E+02  0.00000000000E+00 0.  1.
          6    1    1    2  501    0 -0.33130583551E+02  0.90563177445E+02  0.18934428671E+03  0.27400653931E+03  0.17300000000E+03 0.  1.
         -6    1    1    2    0  502  0.33130583551E+02 -0.90563177445E+02  0.97518431579E+03  0.99509435454E+03  0.17300000000E+03 0. -1.
</event>
<event>
 4    1  0.5821292E+000  0.1000000E+03  0.7546771E-02  0.1280296E+00
         21   -1    0    0  503  502  0.00000000000E+00  0.00000000000E+00  0.13663012319E+03  0.13663012319E+03  0.00000000000E+00 0. -1.
         21   -1    0    0  501  503 -0.00000000000E+00 -0.00000000000E+00 -0.41225671891E+03  0.41225671891E+03  0.00000000000E+00 0.  1.
          6    1    1    2  501    0  0.12198423529E+03 -0.67516788173E+02 -0.23427826908E+03  0.32288384554E+03  0.17300000000E+03 0.  1.
         -6    1    1    2    0  502 -0.12198423529E+03  0.67516788173E+02 -0.41348326636E+02  0.22600299657E+03  0.17300000000E+03 0. -1.
</event>
<event>
 4    1  0.5821292E+000  0.1000000E+03  0.7546771E-02  0.1280296E+00
         21   -1    0    0  501  502  0.00000000000E+00  0.00000000000E+00  0.46484384674E+03  0.46484384674E+03  0.00000000000E+00 0. -1.
         21   -1    0    0  502  503 -0.00000000000E+00 -0.00000000000E+00 -0.73202088476E+02  0.73202088476E+02  0.00000000000E+00 0.  1.
          6    1    1    2  501    0 -0.36014099542E+02 -0.29432905693E+02  0.13166443692E+03  0.22232371725E+03  0.17300000000E+03 0. -1.
         -6    1    1    2    0  503  0.36014099542E+02  0.29432905693E+02  0.25997732135E+03  0.31572221797E+03  0.17300000000E+03 0.  1.
</event>
<event>
 4    1  0.5821292E+000  0.1000000E+03  0.7546771E-02  0.1280296E+00
         21   -1    0    0  501  502  0.00000000000E+00  0.00000000000E+00  0.20634021409E+03  0.20634021409E+03  0.00000000000E+00 0.  1.
         21   -1    0    0  502  503 -0.00000000000E+00 -0.00000000000E+00 -0.22207578588E+03  0.22207578588E+03  0.00000000000E+00 0.  1.
          6    1    1    2  501    0 -0.83208971592E+02 -0.66300539547E+02  0.59814195314E+02  0.21172206418E+03  0.17300000000E+03 0.  1.
         -6    1    1    2    0  503  0.83208971592E+02  0.66300539547E+02 -0.75549767105E+02  0.21669393579E+03  0.17300000000E+03 0.  1.
</event>
<event>
 4    1  0.5821292E+000  0.1000000E+03  0.7546771E-02  0.1280296E+00
         21   -1    0    0  503  502  0.00000000000E+00  0.00000000000E+00  0.20375419852E+03  0.20375419852E+03  0.00000000000E+00 0. -1.
         21   -1    0    0  501  503 -0.00000000000E+00 -0.00000000000E+00 -0.30642790100E+03  0.30642790100E+03  0.00000000000E+00 0. -1.
          6    1    1    2  501    0  0.58754470963E+02 -0.16933614601E+03 -0.71241617908E+02  0.25909686669E+03  0.17300000000E+03 0. -1.
         -6    1    1    2    0  502 -0.58754470963E+02  0.16933614601E+03 -0.31432084570E+02  0.25108523283E+03  0.17300000000E+03 0. -1.
</event>
<event>
 4    1  0.5821292E+000  0.1000000E+03  0.7546771E-02  0.1280296E+00
         21   -1    0    0  503  502  0.00000000000E+00  0.00000000000E+00  0.51775251601E+03  0.51775251601E+03  0.00000000000E+00 0. -1.
         21   -1    0    0  501  503 -0.00000000000E+00 -0.00000000000E+00 -0.13210264078E+03  0.13210264078E+03  0.00000000000E+00 0. -1.
          6    1    1    2  501    0  0.62705060218E+02 -0.32403143148E+02 -0.34527004978E+02  0.19000790072E+03  0.17300000000E+03 0. -1.
         -6    1    1    2    0  502 -0.62705060218E+02  0.32403143148E+02  0.42017688020E+03  0.45984725607E+03  0.17300000000E+03 0. -1.
</event>
<event>
 4    1  0.5821292E+000  0.1000000E+03  0.7546771E-02  0.1280296E+00
         21   -1    0    0  501  502  0.00000000000E+00  0.00000000000E+00  0.50575477790E+03  0.50575477790E+03  0.00000000000E+00 0.  1.
         21   -1    0    0  502  503 -0.00000000000E+00 -0.00000000000E+00 -0.82905657019E+02  0.82905657019E+02  0.00000000000E+00 0. -1.
          6    1    1    2  501    0  0.71316681669E+02  0.31666055209E+02  0.10090362828E+03  0.21494034134E+03  0.17300000000E+03 0.  1.
         -6    1    1    2    0  503 -0.71316681669E+02 -0.31666055209E+02  0.32194549260E+03  0.37372009358E+03  0.17300000000E+03 0. -1.
</event>
<event>
 4    1  0.5821292E+000  0.1000000E+03  0.7546771E-02  0.1280296E+00
         21   -1    0    0  501  502  0.00000000000E+00  0.00000000000E+00  0.61682450916E+02  0.61682450916E+02  0.00000000000E+00 0.  1.
         21   -1    0    0  502  503 -0.00000000000E+00 -0.00000000000E+00 -0.69109253844E+03  0.69109253844E+03  0.00000000000E+00 0. -1.
          6    1    1    2  501    0  0.73416671108E+02 -0.29980904400E+02 -0.16874650954E+03  0.25434867153E+03  0.17300000000E+03 0. -1.
         -6    1    1    2    0  503 -0.73416671108E+02  0.29980904400E+02 -0.46066357798E+03  0.49842631783E+03  0.17300000000E+03 0.  1.
</event>
<event>
 4    1  0.5821292E+000  0.1000000E+03  0.7546771E-02  0.1280296E+00
         21   -1    0    0  501  502  0.00000000000E+00  0.00000000000E+00  0.11905958226E+04  0.11905958226E+04  0.00000000000E+00 0.  1.
         21   -1    0    0  502  503 -0.00000000000E+00 -0.00000000000E+00 -0.74806955880E+02  0.74806955880E+02  0.00000000000E+00 0. -1.
          6    1    1    2  501    0  0.11075270949E+02 -0.30494467185E+02  0.10688359205E+04  0.10832321076E+04  0.17300000000E+03 0. -1.
         -6    1    1    2    0  503 -0.11075270949E+02  0.30494467185E+02  0.46952946273E+02  0.18217067085E+03  0.17300000000E+03 0.  1.
</event>
<event>
 4    1  0.5821292E+000  0.1000000E+03  0.7546771E-02  0.1280296E+00
         21   -1    0    0  503  502  0.00000000000E+00  0.00000000000E+00  0.20388573242E+03  0.20388573242E+03  0.00000000000E+00 0.  1.
         21   -1    0    0  501  503 -0.00000000000E+00 -0.00000000000E+00 -0.24282541058E+03  0.24282541058E+03  0.00000000000E+00 0. -1.
          6    1    1    2  501    0 -0.11215774040E+03 -0.82909809833E+02 -0.30748490816E+02  0.22433872823E+03  0.17300000000E+03 0.  1.
         -6    1    1    2    0  502  0.11215774040E+03  0.82909809833E+02 -0.81911873458E+01  0.22237241476E+03  0.17300000000E+03 0. -1.
</event>
<event>
 4    1  0.5821292E+000  0.1000000E+03  0.7546771E-02  0.1280296E+00
         21   -1    0    0  501  502  0.00000000000E+00  0.00000000000E+00  0.22208583020E+03  0.22208583020E+03  0.00000000000E+00 0.  1.
         21   -1    0    0  502  503 -0.00000000000E+00 -0.00000000000E+00 -0.32968946649E+03  0.32968946649E+03  0.00000000000E+00 0. -1.
          6    1    1    2  501    0  0.42584008494E+01 -0.78026736080E+02  0.14280458644E+03  0.23754674367E+03  0.17300000000E+03 0.  1.
         -6    1    1    2    0  503 -0.42584008494E+01  0.78026736080E+02 -0.25040822273E+03  0.31422855301E+03  0.17300000000E+03 0. -1.
</event>
<event>
 4    1  0.5821292E+000  0.1000000E+03  0.7546771E-02  0.1280296E+00
         21   -1    0    0  501  502  0.00000000000E+00  0.00000000000E+00  0.13682086467E+04  0.13682086467E+04  0.00000000000E+00 0. -1.
         21   -1    0    0  502  503 -0.00000000000E+00 -0.00000000000E+00 -0.40013002756E+02  0.40013002756E+02  0.00000000000E+00 0. -1.
          6    1    1    2  501    0 -0.49922831985E+02  0.56937370598E+02  0.10798048968E+04  0.10961942202E+04  0.17300000000E+03 0. -1.
         -6    1    1    2    0  503  0.49922831985E+02 -0.56937370598E+02  0.24839074718E+03  0.31202742926E+03  0.17300000000E+03 0. -1.
</event>
<event>
 4    1  0.5821292E+000  0.1000000E+03  0.7546771E-02  0.1280296E+00
         21   -1    0    0  503  502  0.00000000000E+00  0.00000000000E+00  0.20853510234E+03  0.20853510234E+03  0.00000000000E+00 0.  1.
         21   -1    0    0  501  503 -0.00000000000E+00 -0.00000000000E+00 -0.30504602462E+03  0.30504602462E+03  0.00000000000E+00 0. -1.
          6    1    1    2  501    0 -0.16744795882E+02 -0.53820903265E+02 -0.22608528260E+03  0.29020791310E+03  0.17300000000E+03 0.  1.
         -6    1    1    2    0  502  0.16744795882E+02  0.53820903265E+02  0.12957436032E+03  0.22337321386E+03  0.17300000000E+03 0.  1.
</event>
<event>
 4    1  0.5821292E+000  0.1000000E+03  0.7546771E-02  0.1280296E+00
         21   -1    0    0  503  502  0.00000000000E+00  0.00000000000E+00  0.11922549510E+04  0.11922549510E+04  0.00000000000E+00 0. -1.
         21   -1    0    0  501  503 -0.00000000000E+00 -0.00000000000E+00 -0.35646385625E+02  0.35646385625E+02  0.00000000000E+00 0.  1.
          6    1    1    2  501    0 -0.71661271000E+02 -0.59427246425E+02  0.39223431536E+03  0.43868404750E+03  0.17300000000E+03 0.  1.
         -6    1    1    2    0  502  0.71661271000E+02  0.59427246425E+02  0.76437424999E+03  0.78921728910E+03  0.17300000000E+03 0. -1.
</event>
<event>
 4    1  0.5821292E+000  0.1000000E+03  0.7546771E-02  0.1280296E+00
         21   -1    0    0  503  502  0.00000000000E+00  0.00000000000E+00  0.55136509731E+03  0.55136509731E+03  0.00000000000E+00 0. -1.
         21   -1    0    0  501  503 -0.00000000000E+00 -0.00000000000E+00 -0.18253798606E+03  0.18253798606E+03  0.00000000000E+00 0.  1.
          6    1    1    2  501    0 -0.88891626292E+01 -0.13888033212E+03 -0.77694134109E+02  0.23522785196E+03  0.17300000000E+03 0.  1.
         -6    1    1    2    0  502  0.88891626292E+01  0.13888033212E+03  0.44652124536E+03  0.49867523141E+03  0.17300000000E+03 0. -1.
</event>
<event>
 4    1  0.5821292E+000  0.1000000E+03  0.7546771E-02  0.1280296E+00
         21   -1    0    0  503  502  0.00000000000E+00  0.00000000000E+00  0.12875141870E+04  0.12875141870E+04  0.00000000000E+00 0. -1.
         21   -1    0    0  501  503 -0.00000000000E+00 -0.00000000000E+00 -0.43938363724E+02  0.43938363724E+02  0.00000000000E+00 0.  1.
          6    1    1    2  501    0 -0.65428538760E+02  0.86008710165E+02  0.27939893103E+03  0.34593518839E+03  0.17300000000E+03 0.  1.
         -6    1    1    2    0  502  0.65428538760E+02 -0.86008710165E+02  0.96417689221E+03  0.98551736230E+03  0.17300000000E+03 0. -1.
</event>
<event>
 4    1  0.5821292E+000  0.1000000E+03  0.7546771E-02  0.1280296E+00
         21   -1    0    0  503  502  0.00000000000E+00  0.00000000000E+00  0.26045227472E+02  0.26045227472E+02  0.00000000000E+00 0. -1.
         21   -1    0    0  501  503 -0.00000000000E+00 -0.00000000000E+00 -0.13410945684E+04  0.13410945684E+04  0.00000000000E+00 0.  1.
          6    1    1    2  501    0  0.68997906849E+02 -0.24231897643E+01 -0.60163126375E+03  0.62980612931E+03  0.17300000000E+03 0.  1.
         -6    1    1    2    0  502 -0.68997906849E+02  0.24231897643E+01 -0.71341807721E+03  0.73733366659E+03  0.17300000000E+03 0. -1.
</event>
<event>
 4    1  0.5821292E+000  0.1000000E+03  0.7546771E-02  0.1280296E+00
         21   -1    0    0  503  502  0.00000000000E+00  0.00000000000E+00  0.99713921248E+02  0.99713921248E+02  0.00000000000E+00 0.  1.
         21   -1    0    0  501  503 -0.00000000000E+00 -0.00000000000E+00 -0.39188224135E+03  0.39188224135E+03  0.00000000000E+00 0.  1.
          6    1    1    2  501    0 -0.90716475384E+02  0.24685528276E+02 -0.12425274394E+03  0.23282310579E+03  0.17300000000E+03 0.  1.
         -6    1    1    2    0  502  0.90716475384E+02 -0.24685528276E+02 -0.16791557616E+03  0.25877305681E+03  0.17300000000E+03 0.  1.
</event>
<event>
 4    1  0.5821292E+000  0.1000000E+03  0.7546771E-02  0.1280296E+00
         21   -1    0    0  503  502  0.00000000000E+00  0.00000000000E+00  0.12450543366E+04  0.12450543366E+04  0.00000000000E+00 0.  1.
         21   -1    0    0  501  503 -0.00000000000E+00 -0.00000000000E+00 -0.29247797169E+02  0.29247797169E+02  0.00000000000E+00 0.  1.
          6    1    1    2  501    0 -0.43770639525E+02  0.62658878383E+02  0.52316572123E+03  0.55630331276E+03  0.17300000000E+03 0.  1.
         -6    1    1    2    0  502  0.43770639525E+02 -0.62658878383E+02  0.69264081823E+03  0.71799882103E+03  0.17300000000E+03 0.  1.
</event>
<event>
 4    1  0.5821292E+000  0.1000000E+03  0.7546771E-02  0.1280296E+00
         21   -1    0    0  503  502  0.00000000000E+00  0.00000000000E+00  0.15665398792E+03  0.15665398792E+03  0.00000000000E+00 0.  1.
         21   -1    0    0  501  503 -0.00000000000E+00 -0.00000000000E+00 -0.22667529466E+03  0.22667529466E+03  0.00000000000E+00 0.  1.
          6    1    1    2  501    0 -0.43108892096E+02 -0.23594624133E+02 -0.92236305387E+02  0.20211783419E+03  0.17300000000E+03 0.  1.
         -6    1    1    2    0  502  0.43108892096E+02  0.23594624133E+02  0.22214998648E+02  0.18121144840E+03  0.17300000000E+03 0.  1.
</event>
<event>
 4    1  0.5821292E+000  0.1000000E+03  0.7546771E-02  0.1280296E+00
         21   -1    0    0  503  502  0.00000000000E+00  0.00000000000E+00  0.41105305000E+03  0.41105305000E+03  0.00000000000E+00 0.  1.
         21   -1    0    0  501  503 -0.00000000000E+00 -0.00000000000E+00 -0.10946372200E+03  0.10946372200E+03  0.00000000000E+00 0.  1.
          6    1    1    2  501    0  0.10108680824E+03  0.36670039482E+02  0.78175572412E+02  0.21818261782E+03  0.17300000000E+03 0.  1.
         -6    1    1    2    0  502 -0.10108680824E+03 -0.36670039482E+02  0.22341375560E+03  0.30233415418E+03  0.17300000000E+03 0.  1.
</event>
<event>
 4    1  0.5821292E+000  0.1000000E+03  0.7546771E-02  0.1280296E+00
         21   -1    0    0  503  502  0.00000000000E+00  0.00000000000E+00  0.42824012549E+03  0.42824012549E+03  0.00000000000E+00 0. -1.
         21   -1    0    0  501  503 -0.00000000000E+00 -0.00000000000E+00 -0.64789063928E+03  0.64789063928E+03  0.00000000000E+00 0. -1.
          6    1    1    2  501    0 -0.70315792274E+02  0.45864404300E+03 -0.29319921361E+03  0.57549409005E+03  0.17300000000E+03 0. -1.
         -6    1    1    2    0  502  0.70315792274E+02 -0.45864404300E+03  0.73548699818E+02  0.50063667471E+03  0.17300000000E+03 0. -1.
</event>
<event>
 4    1  0.5821292E+000  0.1000000E+03  0.7546771E-02  0.1280296E+00
         21   -1    0    0  503  502  0.00000000000E+00  0.00000000000E+00  0.66428590131E+03  0.66428590131E+03  0.00000000000E+00 0. -1.
         21   -1    0    0  501  503 -0.00000000000E+00 -0.00000000000E+00 -0.83566370164E+02  0.83566370164E+02  0.00000000000E+00 0. -1.
          6    1    1    2  501    0  0.14622836671E+03  0.26822865573E+02  0.19672662608E+03  0.30121847014E+03  0.17300000000E+03 0. -1.
         -6    1    1    2    0  502 -0.14622836671E+03 -0.26822865573E+02  0.38399290507E+03  0.44663380133E+03  0.17300000000E+03 0. -1.
</event>
<event>
 4    1  0.5821292E+000  0.1000000E+03  0.7546771E-02  0.1280296E+00
         21   -1    0    0  503  502  0.00000000000E+00  0.00000000000E+00  0.19224639285E+04  0.19224639285E+04  0.00000000000E+00 0. -1.
         21   -1    0    0  501  503 -0.00000000000E+00 -0.00000000000E+00 -0.24500105107E+02  0.24500105107E+02  0.00000000000E+00 0. -1.
          6    1    1    2  501    0  0.82863620160E+02 -0.81513273321E+02  0.67758720038E+03  0.70891763089E+03  0.17300000000E+03 0. -1.
         -6    1    1    2    0  502 -0.82863620160E+02  0.81513273321E+02  0.12203766230E+04  0.12380464027E+04  0.17300000000E+03 0. -1.
</event>
<event>
 4    1  0.5821292E+000  0.1000000E+03  0.7546771E-02  0.1280296E+00
         21   -1    0    0  503  502  0.00000000000E+00  0.00000000000E+00  0.12801194907E+04  0.12801194907E+04  0.00000000000E+00 0. -1.
         21   -1    0    0  501  503 -0.00000000000E+00 -0.00000000000E+00 -0.37776174238E+02  0.37776174238E+02  0.00000000000E+00 0. -1.
          6    1    1    2  501    0 -0.47957383845E+02  0.13552278146E+02  0.24278564588E+03  0.30225394084E+03  0.17300000000E+03 0. -1.
         -6    1    1    2    0  502  0.47957383845E+02 -0.13552278146E+02  0.99955767058E+03  0.10156417241E+04  0.17300000000E+03 0. -1.
</event>
<event>
 4    1  0.5821292E+000  0.1000000E+03  0.7546771E-02  0.1280296E+00
         21   -1    0    0  501  502  0.00000000000E+00  0.00000000000E+00  0.87648922183E+03  0.87648922183E+03  0.00000000000E+00 0. -1.
         21   -1    0    0  502  503 -0.00000000000E+00 -0.00000000000E+00 -0.81330361780E+02  0.81330361780E+02  0.00000000000E+00 0.  1.
          6    1    1    2  501    0 -0.10851752552E+03 -0.59861638530E+02  0.68678944161E+03  0.71900501126E+03  0.17300000000E+03 0. -1.
         -6    1    1    2    0  503  0.10851752552E+03  0.59861638530E+02  0.10836941844E+03  0.23881457235E+03  0.17300000000E+03 0.  1.
</event>
<event>
 4    1  0.5821292E+000  0.1000000E+03  0.7546771E-02  0.1280296E+00
         21   -1    0    0  501  502  0.00000000000E+00  0.00000000000E+00  0.25945587280E+03  0.25945587280E+03  0.00000000000E+00 0. -1.
         21   -1    0    0  502  503 -0.00000000000E+00 -0.00000000000E+00 -0.39161307607E+03  0.39161307607E+03  0.00000000000E+00 0.  1.
          6    1    1    2  501    0  0.19785182634E+02 -0.67593761826E+02  0.19770920072E+03  0.27198951844E+03  0.17300000000E+03 0. -1.
         -6    1    1    2    0  503 -0.19785182634E+02  0.67593761826E+02 -0.32986640400E+03  0.37907943043E+03  0.17300000000E+03 0.  1.
</event>
<event>
 4    1  0.5821292E+000  0.1000000E+03  0.7546771E-02  0.1280296E+00
         21   -1    0    0  501  502  0.00000000000E+00  0.00000000000E+00  0.66113303259E+03  0.66113303259E+03  0.00000000000E+00 0. -1.
         21   -1    0    0  502  503 -0.00000000000E+00 -0.00000000000E+00 -0.12196017527E+03  0.12196017527E+03  0.00000000000E+00 0.  1.
          6    1    1    2  501    0 -0.57708879163E+02 -0.20650351085E+03  0.36440849752E+03  0.45683319471E+03  0.17300000000E+03 0. -1.
         -6    1    1    2    0  503  0.57708879163E+02  0.20650351085E+03  0.17476435980E+03  0.32626001315E+03  0.17300000000E+03 0.  1.
</event>
<event>
 4    1  0.5821292E+000  0.1000000E+03  0.7546771E-02  0.1280296E+00
         21   -1    0    0  501  502  0.00000000000E+00  0.00000000000E+00  0.88019144963E+02  0.88019144963E+02  0.00000000000E+00 0. -1.
         21   -1    0    0  502  503 -0.00000000000E+00 -0.00000000000E+00 -0.35520915629E+03  0.35520915629E+03  0.00000000000E+00 0.  1.
          6    1    1    2  501    0  0.12517072598E+02  0.20418818700E+02 -0.98983896933E+02  0.20074963790E+03  0.17300000000E+03 0. -1.
         -6    1    1    2    0  503 -0.12517072598E+02 -0.20418818700E+02 -0.16820611439E+03  0.24247866335E+03  0.17300000000E+03 0.  1.
</event>
