<event>
 4    1  0.5904698E+000  0.1000000E+03  0.7546771E-02  0.1280296E+00
         21   -1    0    0  503  502  0.00000000000E+00  0.00000000000E+00  0.11030512341E+04  0.11030512341E+04  0.00000000000E+00 0.  1.
         21   -1    0    0  501  503 -0.00000000000E+00 -0.00000000000E+00 -0.68259642656E+02  0.68259642656E+02  0.00000000000E+00 0.  1.
          6    1    1    2  501    0 -0.17496916910E+03  0.10354398776E+03  0.38191492726E+03  0.46596521244E+03  0.17300000000E+03 0.  1.
         -6    1    1    2    0  502  0.17496916910E+03 -0.10354398776E+03  0.65287666414E+03  0.70534566428E+03  0.17300000000E+03 0.  1.
</event>
<event>
 4    1  0.5904698E+000  0.1000000E+03  0.7546771E-02  0.1280296E+00
         21   -1    0    0  503  502  0.00000000000E+00  0.00000000000E+00  0.18371748900E+04  0.18371748900E+04  0.00000000000E+00 0. -1.
         21   -1    0    0  501  503 -0.00000000000E+00 -0.00000000000E+00 -0.24397904379E+02  0.24397904379E+02  0.00000000000E+00 0. -1.
          6    1    1    2  501    0  0.17831666389E+02  0.11921605969E+00  0.37560037540E+03  0.41391137280E+03  0.17300000000E+03 0. -1.
         -6    1    1    2    0  502 -0.17831666389E+02 -0.11921605969E+00  0.14371766102E+04  0.14476614216E+04  0.17300000000E+03 0. -1.
</event>
<event>
 4    1  0.5904698E+000  0.1000000E+03  0.7546771E-02  0.1280296E+00
         21   -1    0    0  501  502  0.00000000000E+00  0.00000000000E+00  0.43416922025E+03  0.43416922025E+03  0.00000000000E+00 0. -1.
         21   -1    0    0  502  503 -0.00000000000E+00 -0.00000000000E+00 -0.13923966510E+03  0.13923966510E+03  0.00000000000E+00 0. -1.
          6    1    1    2  501    0 -0.71776966459E+02 -0.47815923943E+01  0.33312143264E+03  0.38219587311E+03  0.17300000000E+03 0.  1.
         -6    1    1    2    0  503  0.71776966459E+02  0.47815923943E+01 -0.38191877496E+02  0.19121301223E+03  0.17300000000E+03 0.  1.
</event>
<event>
 4    1  0.5904698E+000  0.1000000E+03  0.7546771E-02  0.1280296E+00
         21   -1    0    0  501  502  0.00000000000E+00  0.00000000000E+00  0.82676754728E+03  0.82676754728E+03  0.00000000000E+00 0. -1.
         21   -1    0    0  502  503 -0.00000000000E+00 -0.00000000000E+00 -0.61729247961E+02  0.61729247961E+02  0.00000000000E+00 0. -1.
          6    1    1    2  501    0 -0.13826826799E+03  0.22486946672E+02  0.45824666563E+03  0.50945341618E+03  0.17300000000E+03 0.  1.
         -6    1    1    2    0  503  0.13826826799E+03 -0.22486946672E+02  0.30679163370E+03  0.37904337906E+03  0.17300000000E+03 0.  1.
</event>
<event>
 4    1  0.5904698E+000  0.1000000E+03  0.7546771E-02  0.1280296E+00
         21   -1    0    0  501  502  0.00000000000E+00  0.00000000000E+00  0.68185049082E+03  0.68185049082E+03  0.00000000000E+00 0. -1.
         21   -1    0    0  502  503 -0.00000000000E+00 -0.00000000000E+00 -0.74586131245E+02  0.74586131245E+02  0.00000000000E+00 0. -1.
          6    1    1    2  501    0  0.48866375625E+02  0.13010280174E+02  0.53094725566E+03  0.56070596426E+03  0.17300000000E+03 0.  1.
         -6    1    1    2    0  503 -0.48866375625E+02 -0.13010280174E+02  0.76317103915E+02  0.19573065781E+03  0.17300000000E+03 0.  1.
</event>
<event>
 4    1  0.5904698E+000  0.1000000E+03  0.7546771E-02  0.1280296E+00
         21   -1    0    0  501  502  0.00000000000E+00  0.00000000000E+00  0.22792052370E+03  0.22792052370E+03  0.00000000000E+00 0. -1.
         21   -1    0    0  502  503 -0.00000000000E+00 -0.00000000000E+00 -0.94880028155E+03  0.94880028155E+03  0.00000000000E+00 0. -1.
          6    1    1    2  501    0  0.16291062285E+03 -0.89263283439E+01  0.14517539327E+03  0.27861163864E+03  0.17300000000E+03 0. -1.
         -6    1    1    2    0  503 -0.16291062285E+03  0.89263283439E+01 -0.86605515112E+03  0.89810916661E+03  0.17300000000E+03 0. -1.
</event>
<event>
 4    1  0.5904698E+000  0.1000000E+03  0.7546771E-02  0.1280296E+00
         21   -1    0    0  501  502  0.00000000000E+00  0.00000000000E+00  0.66898368287E+02  0.66898368287E+02  0.00000000000E+00 0. -1.
         21   -1    0    0  502  503 -0.00000000000E+00 -0.00000000000E+00 -0.12295375674E+04  0.12295375674E+04  0.00000000000E+00 0. -1.
          6    1    1    2  501    0  0.16588788442E+03  0.15729342785E+03 -0.56309125480E+03  0.63187085221E+03  0.17300000000E+03 0. -1.
         -6    1    1    2    0  503 -0.16588788442E+03 -0.15729342785E+03 -0.59954794429E+03  0.66456508345E+03  0.17300000000E+03 0. -1.
</event>
<event>
 4    1  0.5904698E+000  0.1000000E+03  0.7546771E-02  0.1280296E+00
         21   -1    0    0  501  502  0.00000000000E+00  0.00000000000E+00  0.16393002896E+04  0.16393002896E+04  0.00000000000E+00 0. -1.
         21   -1    0    0  502  503 -0.00000000000E+00 -0.00000000000E+00 -0.17255074539E+03  0.17255074539E+03  0.00000000000E+00 0. -1.
          6    1    1    2  501    0  0.49055458227E+03  0.74384397486E+02  0.87338847132E+03  0.10192709447E+04  0.17300000000E+03 0. -1.
         -6    1    1    2    0  503 -0.49055458227E+03 -0.74384397486E+02  0.59336107288E+03  0.79258009033E+03  0.17300000000E+03 0. -1.
</event>
<event>
 4    1  0.5904698E+000  0.1000000E+03  0.7546771E-02  0.1280296E+00
         21   -1    0    0  501  502  0.00000000000E+00  0.00000000000E+00  0.38914374611E+03  0.38914374611E+03  0.00000000000E+00 0.  1.
         21   -1    0    0  502  503 -0.00000000000E+00 -0.00000000000E+00 -0.34001597569E+03  0.34001597569E+03  0.00000000000E+00 0.  1.
          6    1    1    2  501    0  0.40115127202E+02  0.53223159772E+02  0.33823697649E+03  0.38571385823E+03  0.17300000000E+03 0.  1.
         -6    1    1    2    0  503 -0.40115127202E+02 -0.53223159772E+02 -0.28910920607E+03  0.34344586357E+03  0.17300000000E+03 0.  1.
</event>
<event>
 4    1  0.5904698E+000  0.1000000E+03  0.7546771E-02  0.1280296E+00
         21   -1    0    0  501  502  0.00000000000E+00  0.00000000000E+00  0.12162602138E+03  0.12162602138E+03  0.00000000000E+00 0. -1.
         21   -1    0    0  502  503 -0.00000000000E+00 -0.00000000000E+00 -0.51147466113E+03  0.51147466113E+03  0.00000000000E+00 0. -1.
          6    1    1    2  501    0 -0.43334245087E+01 -0.11954621916E+03 -0.24792288747E+02  0.21178700306E+03  0.17300000000E+03 0. -1.
         -6    1    1    2    0  503  0.43334245087E+01  0.11954621916E+03 -0.36505635100E+03  0.42131367945E+03  0.17300000000E+03 0. -1.
</event>
<event>
 4    1  0.5904698E+000  0.1000000E+03  0.7546771E-02  0.1280296E+00
         21   -1    0    0  501  502  0.00000000000E+00  0.00000000000E+00  0.17531133495E+03  0.17531133495E+03  0.00000000000E+00 0. -1.
         21   -1    0    0  502  503 -0.00000000000E+00 -0.00000000000E+00 -0.96847873803E+03  0.96847873803E+03  0.00000000000E+00 0. -1.
          6    1    1    2  501    0 -0.26530941167E+03 -0.20098204707E+03 -0.15992937768E+03  0.40778581756E+03  0.17300000000E+03 0. -1.
         -6    1    1    2    0  503  0.26530941167E+03  0.20098204707E+03 -0.63323802541E+03  0.73600425541E+03  0.17300000000E+03 0. -1.
</event>
<event>
 4    1  0.5904698E+000  0.1000000E+03  0.7546771E-02  0.1280296E+00
         21   -1    0    0  501  502  0.00000000000E+00  0.00000000000E+00  0.22373498080E+03  0.22373498080E+03  0.00000000000E+00 0. -1.
         21   -1    0    0  502  503 -0.00000000000E+00 -0.00000000000E+00 -0.51539499148E+03  0.51539499148E+03  0.00000000000E+00 0. -1.
          6    1    1    2  501    0 -0.85052159341E+02 -0.34535394856E+02  0.15607890879E+03  0.25043200490E+03  0.17300000000E+03 0. -1.
         -6    1    1    2    0  503  0.85052159341E+02  0.34535394856E+02 -0.44773891947E+03  0.48869796738E+03  0.17300000000E+03 0. -1.
</event>
<event>
 4    1  0.5904698E+000  0.1000000E+03  0.7546771E-02  0.1280296E+00
         21   -1    0    0  501  502  0.00000000000E+00  0.00000000000E+00  0.50504704218E+03  0.50504704218E+03  0.00000000000E+00 0. -1.
         21   -1    0    0  502  503 -0.00000000000E+00 -0.00000000000E+00 -0.79592114012E+02  0.79592114012E+02  0.00000000000E+00 0. -1.
          6    1    1    2  501    0 -0.16063120586E+02  0.49573278905E+02  0.33944107371E+03  0.38453189250E+03  0.17300000000E+03 0. -1.
         -6    1    1    2    0  503  0.16063120586E+02 -0.49573278905E+02  0.86013854452E+02  0.20010726369E+03  0.17300000000E+03 0. -1.
</event>
<event>
 4    1  0.5904698E+000  0.1000000E+03  0.7546771E-02  0.1280296E+00
         21   -1    0    0  503  502  0.00000000000E+00  0.00000000000E+00  0.16667272453E+03  0.16667272453E+03  0.00000000000E+00 0. -1.
         21   -1    0    0  501  503 -0.00000000000E+00 -0.00000000000E+00 -0.45800864012E+03  0.45800864012E+03  0.00000000000E+00 0. -1.
          6    1    1    2  501    0  0.92098449379E+02  0.85348303852E+02 -0.34355558806E+03  0.40463057155E+03  0.17300000000E+03 0. -1.
         -6    1    1    2    0  502 -0.92098449379E+02 -0.85348303852E+02  0.52219672472E+02  0.22005079309E+03  0.17300000000E+03 0. -1.
</event>
<event>
 4    1  0.5904698E+000  0.1000000E+03  0.7546771E-02  0.1280296E+00
         21   -1    0    0  503  502  0.00000000000E+00  0.00000000000E+00  0.17717634329E+04  0.17717634329E+04  0.00000000000E+00 0. -1.
         21   -1    0    0  501  503 -0.00000000000E+00 -0.00000000000E+00 -0.20614882728E+02  0.20614882728E+02  0.00000000000E+00 0. -1.
          6    1    1    2  501    0  0.42773040068E+02 -0.37115700404E+02  0.60260377320E+03  0.62949774872E+03  0.17300000000E+03 0. -1.
         -6    1    1    2    0  502 -0.42773040068E+02  0.37115700404E+02  0.11485447770E+04  0.11628805669E+04  0.17300000000E+03 0. -1.
</event>
<event>
 4    1  0.5904698E+000  0.1000000E+03  0.7546771E-02  0.1280296E+00
         21   -1    0    0  503  502  0.00000000000E+00  0.00000000000E+00  0.45798339853E+03  0.45798339853E+03  0.00000000000E+00 0.  1.
         21   -1    0    0  501  503 -0.00000000000E+00 -0.00000000000E+00 -0.24073699098E+03  0.24073699098E+03  0.00000000000E+00 0.  1.
          6    1    1    2  501    0 -0.25913110860E+03  0.13858300869E+01 -0.12138967717E+02  0.31181277476E+03  0.17300000000E+03 0.  1.
         -6    1    1    2    0  502  0.25913110860E+03 -0.13858300869E+01  0.22938537527E+03  0.38690761475E+03  0.17300000000E+03 0.  1.
</event>
<event>
 4    1  0.5904698E+000  0.1000000E+03  0.7546771E-02  0.1280296E+00
         21   -1    0    0  503  502  0.00000000000E+00  0.00000000000E+00  0.32568873259E+03  0.32568873259E+03  0.00000000000E+00 0.  1.
         21   -1    0    0  501  503 -0.00000000000E+00 -0.00000000000E+00 -0.10349407033E+04  0.10349407033E+04  0.00000000000E+00 0.  1.
          6    1    1    2  501    0  0.23821446338E+02  0.29875966301E+01 -0.10034258233E+04  0.10185130191E+04  0.17300000000E+03 0.  1.
         -6    1    1    2    0  502 -0.23821446338E+02 -0.29875966301E+01  0.29417385268E+03  0.34211641679E+03  0.17300000000E+03 0.  1.
</event>
<event>
 4    1  0.5904698E+000  0.1000000E+03  0.7546771E-02  0.1280296E+00
         21   -1    0    0  501  502  0.00000000000E+00  0.00000000000E+00  0.80281602355E+03  0.80281602355E+03  0.00000000000E+00 0. -1.
         21   -1    0    0  502  503 -0.00000000000E+00 -0.00000000000E+00 -0.74156919872E+02  0.74156919872E+02  0.00000000000E+00 0. -1.
          6    1    1    2  501    0  0.34106991257E+02 -0.15860481601E+03  0.46735512544E+03  0.52408833968E+03  0.17300000000E+03 0.  1.
         -6    1    1    2    0  503 -0.34106991257E+02  0.15860481601E+03  0.26130397823E+03  0.35288460374E+03  0.17300000000E+03 0.  1.
</event>
<event>
 4    1  0.5904698E+000  0.1000000E+03  0.7546771E-02  0.1280296E+00
         21   -1    0    0  501  502  0.00000000000E+00  0.00000000000E+00  0.30007796359E+02  0.30007796359E+02  0.00000000000E+00 0. -1.
         21   -1    0    0  502  503 -0.00000000000E+00 -0.00000000000E+00 -0.23783194351E+04  0.23783194351E+04  0.00000000000E+00 0. -1.
          6    1    1    2  501    0 -0.13540172366E+03 -0.13328623712E+03 -0.84476213401E+03  0.88297843170E+03  0.17300000000E+03 0.  1.
         -6    1    1    2    0  503  0.13540172366E+03  0.13328623712E+03 -0.15035495047E+04  0.15253487998E+04  0.17300000000E+03 0.  1.
</event>
<event>
 4    1  0.5904698E+000  0.1000000E+03  0.7546771E-02  0.1280296E+00
         21   -1    0    0  501  502  0.00000000000E+00  0.00000000000E+00  0.41693567596E+03  0.41693567596E+03  0.00000000000E+00 0. -1.
         21   -1    0    0  502  503 -0.00000000000E+00 -0.00000000000E+00 -0.82978780073E+02  0.82978780073E+02  0.00000000000E+00 0. -1.
          6    1    1    2  501    0 -0.17489967891E+02  0.65529209787E+02  0.15591011029E+03  0.24256326763E+03  0.17300000000E+03 0.  1.
         -6    1    1    2    0  503  0.17489967891E+02 -0.65529209787E+02  0.17804678560E+03  0.25735118841E+03  0.17300000000E+03 0.  1.
</event>
<event>
 4    1  0.5904698E+000  0.1000000E+03  0.7546771E-02  0.1280296E+00
         21   -1    0    0  503  502  0.00000000000E+00  0.00000000000E+00  0.27004519313E+03  0.27004519313E+03  0.00000000000E+00 0.  1.
         21   -1    0    0  501  503 -0.00000000000E+00 -0.00000000000E+00 -0.33632628726E+03  0.33632628726E+03  0.00000000000E+00 0. -1.
          6    1    1    2  501    0  0.14390076524E+03  0.14486779628E+02 -0.23428832537E+03  0.32517274859E+03  0.17300000000E+03 0. -1.
         -6    1    1    2    0  502 -0.14390076524E+03 -0.14486779628E+02  0.16800723123E+03  0.28119873180E+03  0.17300000000E+03 0.  1.
</event>
<event>
 4    1  0.5904698E+000  0.1000000E+03  0.7546771E-02  0.1280296E+00
         21   -1    0    0  503  502  0.00000000000E+00  0.00000000000E+00  0.36981965710E+03  0.36981965710E+03  0.00000000000E+00 0. -1.
         21   -1    0    0  501  503 -0.00000000000E+00 -0.00000000000E+00 -0.28130849720E+03  0.28130849720E+03  0.00000000000E+00 0.  1.
          6    1    1    2  501    0 -0.17526796937E+03  0.45035344137E+01 -0.16593879046E+03  0.29699128790E+03  0.17300000000E+03 0.  1.
         -6    1    1    2    0  502  0.17526796937E+03 -0.45035344137E+01  0.25444995036E+03  0.35413686640E+03  0.17300000000E+03 0. -1.
</event>
<event>
 4    1  0.5904698E+000  0.1000000E+03  0.7546771E-02  0.1280296E+00
         21   -1    0    0  503  502  0.00000000000E+00  0.00000000000E+00  0.90195459680E+03  0.90195459680E+03  0.00000000000E+00 0. -1.
         21   -1    0    0  501  503 -0.00000000000E+00 -0.00000000000E+00 -0.58057242938E+02  0.58057242938E+02  0.00000000000E+00 0.  1.
          6    1    1    2  501    0  0.13762036252E+03 -0.12684816541E+01  0.54595708364E+03  0.58901537365E+03  0.17300000000E+03 0.  1.
         -6    1    1    2    0  502 -0.13762036252E+03  0.12684816541E+01  0.29794027022E+03  0.37099646608E+03  0.17300000000E+03 0. -1.
</event>
<event>
 4    1  0.5904698E+000  0.1000000E+03  0.7546771E-02  0.1280296E+00
         21   -1    0    0  503  502  0.00000000000E+00  0.00000000000E+00  0.73231220573E+02  0.73231220573E+02  0.00000000000E+00 0. -1.
         21   -1    0    0  501  503 -0.00000000000E+00 -0.00000000000E+00 -0.16568249251E+04  0.16568249251E+04  0.00000000000E+00 0.  1.
          6    1    1    2  501    0  0.15872368784E+03 -0.38338570059E+02 -0.14236666678E+04  0.14434052916E+04  0.17300000000E+03 0.  1.
         -6    1    1    2    0  502 -0.15872368784E+03  0.38338570059E+02 -0.15992703678E+03  0.28665085405E+03  0.17300000000E+03 0. -1.
</event>
<event>
 4    1  0.5904698E+000  0.1000000E+03  0.7546771E-02  0.1280296E+00
         21   -1    0    0  503  502  0.00000000000E+00  0.00000000000E+00  0.65544839675E+03  0.65544839675E+03  0.00000000000E+00 0. -1.
         21   -1    0    0  501  503 -0.00000000000E+00 -0.00000000000E+00 -0.61894849269E+02  0.61894849269E+02  0.00000000000E+00 0.  1.
          6    1    1    2  501    0 -0.35851572285E+02 -0.45933491503E+02  0.14520808971E+03  0.23325867657E+03  0.17300000000E+03 0.  1.
         -6    1    1    2    0  502  0.35851572285E+02  0.45933491503E+02  0.44834545777E+03  0.48408456945E+03  0.17300000000E+03 0. -1.
</event>
<event>
 4    1  0.5904698E+000  0.1000000E+03  0.7546771E-02  0.1280296E+00
         21   -1    0    0  503  502  0.00000000000E+00  0.00000000000E+00  0.13301600942E+03  0.13301600942E+03  0.00000000000E+00 0. -1.
         21   -1    0    0  501  503 -0.00000000000E+00 -0.00000000000E+00 -0.37420919132E+03  0.37420919132E+03  0.00000000000E+00 0.  1.
          6    1    1    2  501    0  0.78270699109E+02  0.99691012174E+02 -0.19050584049E+03  0.28685549586E+03  0.17300000000E+03 0.  1.
         -6    1    1    2    0  502 -0.78270699109E+02 -0.99691012174E+02 -0.50687341415E+02  0.22036970488E+03  0.17300000000E+03 0. -1.
</event>
<event>
 4    1  0.5904698E+000  0.1000000E+03  0.7546771E-02  0.1280296E+00
         21   -1    0    0  503  502  0.00000000000E+00  0.00000000000E+00  0.77092093782E+02  0.77092093782E+02  0.00000000000E+00 0. -1.
         21   -1    0    0  501  503 -0.00000000000E+00 -0.00000000000E+00 -0.48966983423E+03  0.48966983423E+03  0.00000000000E+00 0.  1.
          6    1    1    2  501    0  0.55795681490E+02 -0.15063437413E+02 -0.30391869984E+03  0.35445118329E+03  0.17300000000E+03 0.  1.
         -6    1    1    2    0  502 -0.55795681490E+02  0.15063437413E+02 -0.10865904060E+03  0.21231074472E+03  0.17300000000E+03 0. -1.
</event>
<event>
 4    1  0.5904698E+000  0.1000000E+03  0.7546771E-02  0.1280296E+00
         21   -1    0    0  503  502  0.00000000000E+00  0.00000000000E+00  0.68351896867E+03  0.68351896867E+03  0.00000000000E+00 0. -1.
         21   -1    0    0  501  503 -0.00000000000E+00 -0.00000000000E+00 -0.34467574309E+03  0.34467574309E+03  0.00000000000E+00 0.  1.
          6    1    1    2  501    0  0.34234267926E+03 -0.21376496424E+03 -0.49622456192E+02  0.44191102966E+03  0.17300000000E+03 0.  1.
         -6    1    1    2    0  502 -0.34234267926E+03  0.21376496424E+03  0.38846568177E+03  0.58628368209E+03  0.17300000000E+03 0. -1.
</event>
<event>
 4    1  0.5904698E+000  0.1000000E+03  0.7546771E-02  0.1280296E+00
         21   -1    0    0  503  502  0.00000000000E+00  0.00000000000E+00  0.50002399083E+03  0.50002399083E+03  0.00000000000E+00 0.  1.
         21   -1    0    0  501  503 -0.00000000000E+00 -0.00000000000E+00 -0.84569977615E+02  0.84569977615E+02  0.00000000000E+00 0.  1.
          6    1    1    2  501    0  0.15287088780E+02  0.10795454449E+03  0.17690691514E+03  0.27039403725E+03  0.17300000000E+03 0.  1.
         -6    1    1    2    0  502 -0.15287088780E+02 -0.10795454449E+03  0.23854709808E+03  0.31419993119E+03  0.17300000000E+03 0.  1.
</event>
<event>
 4    1  0.5904698E+000  0.1000000E+03  0.7546771E-02  0.1280296E+00
         21   -1    0    0  501  502  0.00000000000E+00  0.00000000000E+00  0.14000055202E+04  0.14000055202E+04  0.00000000000E+00 0.  1.
         21   -1    0    0  502  503 -0.00000000000E+00 -0.00000000000E+00 -0.21459105142E+03  0.21459105142E+03  0.00000000000E+00 0.  1.
          6    1    1    2  501    0 -0.23551398768E+03  0.24301481134E+02  0.12747608828E+04  0.13080526399E+04  0.17300000000E+03 0.  1.
         -6    1    1    2    0  503  0.23551398768E+03 -0.24301481134E+02 -0.89346414036E+02  0.30654393173E+03  0.17300000000E+03 0.  1.
</event>
<event>
 4    1  0.5904698E+000  0.1000000E+03  0.7546771E-02  0.1280296E+00
         21   -1    0    0  503  502  0.00000000000E+00  0.00000000000E+00  0.18427682755E+03  0.18427682755E+03  0.00000000000E+00 0. -1.
         21   -1    0    0  501  503 -0.00000000000E+00 -0.00000000000E+00 -0.79629063690E+03  0.79629063690E+03  0.00000000000E+00 0. -1.
          6    1    1    2  501    0  0.22157945323E+03  0.62924814739E+02 -0.62917090105E+03  0.69198411046E+03  0.17300000000E+03 0. -1.
         -6    1    1    2    0  502 -0.22157945323E+03 -0.62924814739E+02  0.17157091703E+02  0.28858335399E+03  0.17300000000E+03 0. -1.
</event>
<event>
 4    1  0.5904698E+000  0.1000000E+03  0.7546771E-02  0.1280296E+00
         21   -1    0    0  503  502  0.00000000000E+00  0.00000000000E+00  0.98331655037E+02  0.98331655037E+02  0.00000000000E+00 0. -1.
         21   -1    0    0  501  503 -0.00000000000E+00 -0.00000000000E+00 -0.33913414086E+03  0.33913414086E+03  0.00000000000E+00 0. -1.
          6    1    1    2  501    0 -0.14256931356E+02 -0.52959212402E+02 -0.14467489267E+03  0.23209429730E+03  0.17300000000E+03 0. -1.
         -6    1    1    2    0  502  0.14256931356E+02  0.52959212402E+02 -0.96127593151E+02  0.20537149859E+03  0.17300000000E+03 0. -1.
</event>
<event>
 4    1  0.5904698E+000  0.1000000E+03  0.7546771E-02  0.1280296E+00
         21   -1    0    0  501  502  0.00000000000E+00  0.00000000000E+00  0.69030169134E+02  0.69030169134E+02  0.00000000000E+00 0.  1.
         21   -1    0    0  502  503 -0.00000000000E+00 -0.00000000000E+00 -0.10986719452E+04  0.10986719452E+04  0.00000000000E+00 0.  1.
          6    1    1    2  501    0 -0.79759119070E+02 -0.19412947124E+03 -0.42327098149E+03  0.50312532479E+03  0.17300000000E+03 0.  1.
         -6    1    1    2    0  503  0.79759119070E+02  0.19412947124E+03 -0.60637079458E+03  0.66457678954E+03  0.17300000000E+03 0.  1.
</event>
<event>
 4    1  0.5904698E+000  0.1000000E+03  0.7546771E-02  0.1280296E+00
         21   -1    0    0  501  502  0.00000000000E+00  0.00000000000E+00  0.24050097556E+04  0.24050097556E+04  0.00000000000E+00 0.  1.
         21   -1    0    0  502  503 -0.00000000000E+00 -0.00000000000E+00 -0.17110006073E+02  0.17110006073E+02  0.00000000000E+00 0.  1.
          6    1    1    2  501    0  0.17148616964E+02  0.48802827105E+02  0.17458196846E+04  0.17551328047E+04  0.17300000000E+03 0.  1.
         -6    1    1    2    0  503 -0.17148616964E+02 -0.48802827105E+02  0.64208006499E+03  0.66698695703E+03  0.17300000000E+03 0.  1.
</event>
<event>
 4    1  0.5904698E+000  0.1000000E+03  0.7546771E-02  0.1280296E+00
         21   -1    0    0  501  502  0.00000000000E+00  0.00000000000E+00  0.40865972085E+03  0.40865972085E+03  0.00000000000E+00 0. -1.
         21   -1    0    0  502  503 -0.00000000000E+00 -0.00000000000E+00 -0.21708307916E+03  0.21708307916E+03  0.00000000000E+00 0.  1.
          6    1    1    2  501    0  0.74325737402E+00 -0.10061140625E+02  0.35025190639E+03  0.39077765661E+03  0.17300000000E+03 0. -1.
         -6    1    1    2    0  503 -0.74325737402E+00  0.10061140625E+02 -0.15867526470E+03  0.23496514339E+03  0.17300000000E+03 0.  1.
</event>
<event>
 4    1  0.5904698E+000  0.1000000E+03  0.7546771E-02  0.1280296E+00
         21   -1    0    0  501  502  0.00000000000E+00  0.00000000000E+00  0.52185014561E+03  0.52185014561E+03  0.00000000000E+00 0.  1.
         21   -1    0    0  502  503 -0.00000000000E+00 -0.00000000000E+00 -0.34980069009E+03  0.34980069009E+03  0.00000000000E+00 0.  1.
          6    1    1    2  501    0  0.39876696916E+02  0.33802860483E+03  0.28160420807E+03  0.47442957185E+03  0.17300000000E+03 0.  1.
         -6    1    1    2    0  503 -0.39876696916E+02 -0.33802860483E+03 -0.10955475255E+03  0.39722126384E+03  0.17300000000E+03 0.  1.
</event>
<event>
 4    1  0.5904698E+000  0.1000000E+03  0.7546771E-02  0.1280296E+00
         21   -1    0    0  501  502  0.00000000000E+00  0.00000000000E+00  0.54281622436E+02  0.54281622436E+02  0.00000000000E+00 0. -1.
         21   -1    0    0  502  503 -0.00000000000E+00 -0.00000000000E+00 -0.95189530465E+03  0.95189530465E+03  0.00000000000E+00 0. -1.
          6    1    1    2  501    0  0.40547432304E+02 -0.40902785680E+02 -0.74921984602E+03  0.77108787425E+03  0.17300000000E+03 0. -1.
         -6    1    1    2    0  503 -0.40547432304E+02  0.40902785680E+02 -0.14839383619E+03  0.23508905283E+03  0.17300000000E+03 0. -1.
</event>
<event>
 4    1  0.5904698E+000  0.1000000E+03  0.7546771E-02  0.1280296E+00
         21   -1    0    0  501  502  0.00000000000E+00  0.00000000000E+00  0.58869991903E+03  0.58869991903E+03  0.00000000000E+00 0.  1.
         21   -1    0    0  502  503 -0.00000000000E+00 -0.00000000000E+00 -0.24759249331E+03  0.24759249331E+03  0.00000000000E+00 0. -1.
          6    1    1    2  501    0  0.18457845995E+03 -0.23756308155E+03  0.34484360522E+03  0.48923566678E+03  0.17300000000E+03 0.  1.
         -6    1    1    2    0  503 -0.18457845995E+03  0.23756308155E+03 -0.37361794953E+01  0.34705674555E+03  0.17300000000E+03 0. -1.
</event>
<event>
 4    1  0.5904698E+000  0.1000000E+03  0.7546771E-02  0.1280296E+00
         21   -1    0    0  503  502  0.00000000000E+00  0.00000000000E+00  0.24215438083E+03  0.24215438083E+03  0.00000000000E+00 0.  1.
         21   -1    0    0  501  503 -0.00000000000E+00 -0.00000000000E+00 -0.91706989710E+03  0.91706989710E+03  0.00000000000E+00 0. -1.
          6    1    1    2  501    0 -0.41247325230E+03 -0.58756208733E+02 -0.50500765824E+03  0.67716187932E+03  0.17300000000E+03 0.  1.
         -6    1    1    2    0  502  0.41247325230E+03  0.58756208733E+02 -0.16990785803E+03  0.48206239861E+03  0.17300000000E+03 0. -1.
</event>
<event>
 4    1  0.5904698E+000  0.1000000E+03  0.7546771E-02  0.1280296E+00
         21   -1    0    0  501  502  0.00000000000E+00  0.00000000000E+00  0.54200158382E+03  0.54200158382E+03  0.00000000000E+00 0.  1.
         21   -1    0    0  502  503 -0.00000000000E+00 -0.00000000000E+00 -0.68686603892E+02  0.68686603892E+02  0.00000000000E+00 0.  1.
          6    1    1    2  501    0  0.46965060078E+02  0.22797637798E+02  0.34368409735E+03  0.38829525870E+03  0.17300000000E+03 0.  1.
         -6    1    1    2    0  503 -0.46965060078E+02 -0.22797637798E+02  0.12963088258E+03  0.22239292902E+03  0.17300000000E+03 0.  1.
</event>
<event>
 4    1  0.5904698E+000  0.1000000E+03  0.7546771E-02  0.1280296E+00
         21   -1    0    0  501  502  0.00000000000E+00  0.00000000000E+00  0.50739481180E+03  0.50739481180E+03  0.00000000000E+00 0.  1.
         21   -1    0    0  502  503 -0.00000000000E+00 -0.00000000000E+00 -0.17723151608E+03  0.17723151608E+03  0.00000000000E+00 0.  1.
          6    1    1    2  501    0  0.20228195506E+03  0.13000023326E+02  0.32205648177E+03  0.41801479328E+03  0.17300000000E+03 0.  1.
         -6    1    1    2    0  503 -0.20228195506E+03 -0.13000023326E+02  0.81068139482E+01  0.26661153460E+03  0.17300000000E+03 0.  1.
</event>
<event>
 4    1  0.5904698E+000  0.1000000E+03  0.7546771E-02  0.1280296E+00
         21   -1    0    0  503  502  0.00000000000E+00  0.00000000000E+00  0.31066855036E+03  0.31066855036E+03  0.00000000000E+00 0.  1.
         21   -1    0    0  501  503 -0.00000000000E+00 -0.00000000000E+00 -0.15016443966E+03  0.15016443966E+03  0.00000000000E+00 0. -1.
          6    1    1    2  501    0  0.51977731261E+02  0.99803113809E+02  0.12277621008E+02  0.20674159245E+03  0.17300000000E+03 0. -1.
         -6    1    1    2    0  502 -0.51977731261E+02 -0.99803113809E+02  0.14822648969E+03  0.25409139757E+03  0.17300000000E+03 0.  1.
</event>
<event>
 4    1  0.5904698E+000  0.1000000E+03  0.7546771E-02  0.1280296E+00
         21   -1    0    0  503  502  0.00000000000E+00  0.00000000000E+00  0.11241044048E+04  0.11241044048E+04  0.00000000000E+00 0.  1.
         21   -1    0    0  501  503 -0.00000000000E+00 -0.00000000000E+00 -0.37204926691E+02  0.37204926691E+02  0.00000000000E+00 0. -1.
          6    1    1    2  501    0  0.14175773966E+02 -0.58962499401E+02  0.28609245083E+03  0.33978731484E+03  0.17300000000E+03 0. -1.
         -6    1    1    2    0  502 -0.14175773966E+02  0.58962499401E+02  0.80080702725E+03  0.82152201662E+03  0.17300000000E+03 0.  1.
</event>
<event>
 4    1  0.5904698E+000  0.1000000E+03  0.7546771E-02  0.1280296E+00
         21   -1    0    0  501  502  0.00000000000E+00  0.00000000000E+00  0.44171108188E+03  0.44171108188E+03  0.00000000000E+00 0. -1.
         21   -1    0    0  502  503 -0.00000000000E+00 -0.00000000000E+00 -0.17751133766E+03  0.17751133766E+03  0.00000000000E+00 0. -1.
          6    1    1    2  501    0 -0.14634971489E+02 -0.12112911710E+03  0.33475643971E+03  0.39607741583E+03  0.17300000000E+03 0. -1.
         -6    1    1    2    0  503  0.14634971489E+02  0.12112911710E+03 -0.70556695498E+02  0.22314500371E+03  0.17300000000E+03 0. -1.
</event>
<event>
 4    1  0.5904698E+000  0.1000000E+03  0.7546771E-02  0.1280296E+00
         21   -1    0    0  503  502  0.00000000000E+00  0.00000000000E+00  0.30626102015E+03  0.30626102015E+03  0.00000000000E+00 0. -1.
         21   -1    0    0  501  503 -0.00000000000E+00 -0.00000000000E+00 -0.11506833166E+03  0.11506833166E+03  0.00000000000E+00 0. -1.
          6    1    1    2  501    0  0.42777042398E+02 -0.12817875661E+02  0.16023483018E+03  0.23999661268E+03  0.17300000000E+03 0. -1.
         -6    1    1    2    0  502 -0.42777042398E+02  0.12817875661E+02  0.30957858306E+02  0.18133273914E+03  0.17300000000E+03 0. -1.
</event>
<event>
 4    1  0.5904698E+000  0.1000000E+03  0.7546771E-02  0.1280296E+00
         21   -1    0    0  503  502  0.00000000000E+00  0.00000000000E+00  0.54671999390E+03  0.54671999390E+03  0.00000000000E+00 0. -1.
         21   -1    0    0  501  503 -0.00000000000E+00 -0.00000000000E+00 -0.17160867625E+03  0.17160867625E+03  0.00000000000E+00 0. -1.
          6    1    1    2  501    0  0.69186264890E+02  0.10011090743E+03 -0.72227449467E+02  0.22350556479E+03  0.17300000000E+03 0. -1.
         -6    1    1    2    0  502 -0.69186264890E+02 -0.10011090743E+03  0.44733876711E+03  0.49482310536E+03  0.17300000000E+03 0. -1.
</event>
<event>
 4    1  0.5904698E+000  0.1000000E+03  0.7546771E-02  0.1280296E+00
         21   -1    0    0  501  502  0.00000000000E+00  0.00000000000E+00  0.74560820391E+02  0.74560820391E+02  0.00000000000E+00 0. -1.
         21   -1    0    0  502  503 -0.00000000000E+00 -0.00000000000E+00 -0.13155949919E+04  0.13155949919E+04  0.00000000000E+00 0. -1.
          6    1    1    2  501    0 -0.90252920928E+02  0.24842961616E+02 -0.79625093035E+02  0.21220725228E+03  0.17300000000E+03 0. -1.
         -6    1    1    2    0  503  0.90252920928E+02 -0.24842961616E+02 -0.11614090785E+04  0.11779485600E+04  0.17300000000E+03 0. -1.
</event>
<event>
 4    1  0.5904698E+000  0.1000000E+03  0.7546771E-02  0.1280296E+00
         21   -1    0    0  501  502  0.00000000000E+00  0.00000000000E+00  0.13969629882E+04  0.13969629882E+04  0.00000000000E+00 0. -1.
         21   -1    0    0  502  503 -0.00000000000E+00 -0.00000000000E+00 -0.99910588499E+02  0.99910588499E+02  0.00000000000E+00 0. -1.
          6    1    1    2  501    0 -0.19427661386E+03  0.57547515245E+02  0.11731870908E+04  0.12030594621E+04  0.17300000000E+03 0. -1.
         -6    1    1    2    0  503  0.19427661386E+03 -0.57547515245E+02  0.12386530886E+03  0.29381411461E+03  0.17300000000E+03 0. -1.
</event>
<event>
 4    1  0.5904698E+000  0.1000000E+03  0.7546771E-02  0.1280296E+00
         21   -1    0    0  503  502  0.00000000000E+00  0.00000000000E+00  0.25300388442E+03  0.25300388442E+03  0.00000000000E+00 0. -1.
         21   -1    0    0  501  503 -0.00000000000E+00 -0.00000000000E+00 -0.31415418491E+03  0.31415418491E+03  0.00000000000E+00 0. -1.
          6    1    1    2  501    0  0.70040803331E+02  0.45812182254E+02 -0.23805816465E+03  0.30594960358E+03  0.17300000000E+03 0. -1.
         -6    1    1    2    0  502 -0.70040803331E+02 -0.45812182254E+02  0.17690786417E+03  0.26120846575E+03  0.17300000000E+03 0. -1.
</event>
<event>
 4    1  0.5904698E+000  0.1000000E+03  0.7546771E-02  0.1280296E+00
         21   -1    0    0  503  502  0.00000000000E+00  0.00000000000E+00  0.36469081844E+03  0.36469081844E+03  0.00000000000E+00 0. -1.
         21   -1    0    0  501  503 -0.00000000000E+00 -0.00000000000E+00 -0.45105467246E+03  0.45105467246E+03  0.00000000000E+00 0. -1.
          6    1    1    2  501    0  0.24369163823E-02 -0.95347343691E+02 -0.39940901538E+03  0.44558689110E+03  0.17300000000E+03 0. -1.
         -6    1    1    2    0  502 -0.24369163823E-02  0.95347343691E+02  0.31304516136E+03  0.37015859980E+03  0.17300000000E+03 0. -1.
</event>
<event>
 4    1  0.5904698E+000  0.1000000E+03  0.7546771E-02  0.1280296E+00
         21   -1    0    0  501  502  0.00000000000E+00  0.00000000000E+00  0.22934325811E+03  0.22934325811E+03  0.00000000000E+00 0.  1.
         21   -1    0    0  502  503 -0.00000000000E+00 -0.00000000000E+00 -0.29330322067E+03  0.29330322067E+03  0.00000000000E+00 0.  1.
          6    1    1    2  501    0  0.86568874391E+02  0.13547140864E+03 -0.13998997094E+03  0.27454118914E+03  0.17300000000E+03 0.  1.
         -6    1    1    2    0  503 -0.86568874391E+02 -0.13547140864E+03  0.76030008388E+02  0.24810528964E+03  0.17300000000E+03 0.  1.
</event>
<event>
 4    1  0.5904698E+000  0.1000000E+03  0.7546771E-02  0.1280296E+00
         21   -1    0    0  501  502  0.00000000000E+00  0.00000000000E+00  0.49642811324E+03  0.49642811324E+03  0.00000000000E+00 0.  1.
         21   -1    0    0  502  503 -0.00000000000E+00 -0.00000000000E+00 -0.12965265425E+04  0.12965265425E+04  0.00000000000E+00 0. -1.
          6    1    1    2  501    0 -0.17141219868E+03  0.36523638169E+03  0.35031452683E+03  0.56163068298E+03  0.17300000000E+03 0.  1.
         -6    1    1    2    0  503  0.17141219868E+03 -0.36523638169E+03 -0.11504129560E+04  0.12313239727E+04  0.17300000000E+03 0. -1.
</event>
<event>
 4    1  0.5904698E+000  0.1000000E+03  0.7546771E-02  0.1280296E+00
         21   -1    0    0  501  502  0.00000000000E+00  0.00000000000E+00  0.58904977840E+02  0.58904977840E+02  0.00000000000E+00 0.  1.
         21   -1    0    0  502  503 -0.00000000000E+00 -0.00000000000E+00 -0.76534290228E+03  0.76534290228E+03  0.00000000000E+00 0. -1.
          6    1    1    2  501    0 -0.14809075721E+02 -0.80243522203E+02 -0.17431910945E+03  0.25879428799E+03  0.17300000000E+03 0.  1.
         -6    1    1    2    0  503  0.14809075721E+02  0.80243522203E+02 -0.53211881500E+03  0.56545359213E+03  0.17300000000E+03 0. -1.
</event>
<event>
 4    1  0.5904698E+000  0.1000000E+03  0.7546771E-02  0.1280296E+00
         21   -1    0    0  501  502  0.00000000000E+00  0.00000000000E+00  0.89415646658E+03  0.89415646658E+03  0.00000000000E+00 0.  1.
         21   -1    0    0  502  503 -0.00000000000E+00 -0.00000000000E+00 -0.13203838166E+03  0.13203838166E+03  0.00000000000E+00 0. -1.
          6    1    1    2  501    0  0.82710072672E+02  0.12400117111E+03  0.76444905234E+03  0.79782742506E+03  0.17300000000E+03 0.  1.
         -6    1    1    2    0  503 -0.82710072672E+02 -0.12400117111E+03 -0.23309674213E+01  0.22836742317E+03  0.17300000000E+03 0. -1.
</event>
<event>
 4    1  0.5904698E+000  0.1000000E+03  0.7546771E-02  0.1280296E+00
         21   -1    0    0  501  502  0.00000000000E+00  0.00000000000E+00  0.12919777747E+04  0.12919777747E+04  0.00000000000E+00 0.  1.
         21   -1    0    0  502  503 -0.00000000000E+00 -0.00000000000E+00 -0.26241273510E+02  0.26241273510E+02  0.00000000000E+00 0. -1.
          6    1    1    2  501    0  0.12671230272E+02  0.33391761118E+02  0.44691462667E+03  0.48055931301E+03  0.17300000000E+03 0.  1.
         -6    1    1    2    0  503 -0.12671230272E+02 -0.33391761118E+02  0.81882187456E+03  0.83765973524E+03  0.17300000000E+03 0. -1.
</event>
<event>
 4    1  0.5904698E+000  0.1000000E+03  0.7546771E-02  0.1280296E+00
         21   -1    0    0  501  502  0.00000000000E+00  0.00000000000E+00  0.11796472270E+04  0.11796472270E+04  0.00000000000E+00 0.  1.
         21   -1    0    0  502  503 -0.00000000000E+00 -0.00000000000E+00 -0.65164930365E+02  0.65164930365E+02  0.00000000000E+00 0. -1.
          6    1    1    2  501    0 -0.91906475358E+02  0.19582334982E+03  0.52983491964E+03  0.59786923873E+03  0.17300000000E+03 0.  1.
         -6    1    1    2    0  503  0.91906475358E+02 -0.19582334982E+03  0.58464737698E+03  0.64694291862E+03  0.17300000000E+03 0. -1.
</event>
<event>
 4    1  0.5904698E+000  0.1000000E+03  0.7546771E-02  0.1280296E+00
         21   -1    0    0  501  502  0.00000000000E+00  0.00000000000E+00  0.45494929142E+02  0.45494929142E+02  0.00000000000E+00 0.  1.
         21   -1    0    0  502  503 -0.00000000000E+00 -0.00000000000E+00 -0.13825105663E+04  0.13825105663E+04  0.00000000000E+00 0.  1.
          6    1    1    2  501    0 -0.88074479699E+02  0.13113887880E+03 -0.41364838283E+03  0.47538248193E+03  0.17300000000E+03 0.  1.
         -6    1    1    2    0  503  0.88074479699E+02 -0.13113887880E+03 -0.92336725430E+03  0.95262301349E+03  0.17300000000E+03 0.  1.
</event>
<event>
 4    1  0.5904698E+000  0.1000000E+03  0.7546771E-02  0.1280296E+00
         21   -1    0    0  501  502  0.00000000000E+00  0.00000000000E+00  0.55510133273E+03  0.55510133273E+03  0.00000000000E+00 0.  1.
         21   -1    0    0  502  503 -0.00000000000E+00 -0.00000000000E+00 -0.14766358502E+03  0.14766358502E+03  0.00000000000E+00 0.  1.
          6    1    1    2  501    0  0.91314014166E+02 -0.65631869778E+02  0.44731440093E+03  0.49261035799E+03  0.17300000000E+03 0.  1.
         -6    1    1    2    0  503 -0.91314014166E+02  0.65631869778E+02 -0.39876653227E+02  0.21015455976E+03  0.17300000000E+03 0.  1.
</event>
<event>
 4    1  0.5904698E+000  0.1000000E+03  0.7546771E-02  0.1280296E+00
         21   -1    0    0  501  502  0.00000000000E+00  0.00000000000E+00  0.16702113368E+04  0.16702113368E+04  0.00000000000E+00 0.  1.
         21   -1    0    0  502  503 -0.00000000000E+00 -0.00000000000E+00 -0.21723303716E+02  0.21723303716E+02  0.00000000000E+00 0.  1.
          6    1    1    2  501    0  0.60907571932E+02  0.50964221230E+02  0.79398351622E+03  0.81648386891E+03  0.17300000000E+03 0.  1.
         -6    1    1    2    0  503 -0.60907571932E+02 -0.50964221230E+02  0.85450451690E+03  0.87545077164E+03  0.17300000000E+03 0.  1.
</event>
<event>
 4    1  0.5904698E+000  0.1000000E+03  0.7546771E-02  0.1280296E+00
         21   -1    0    0  501  502  0.00000000000E+00  0.00000000000E+00  0.12961430977E+03  0.12961430977E+03  0.00000000000E+00 0. -1.
         21   -1    0    0  502  503 -0.00000000000E+00 -0.00000000000E+00 -0.39672947198E+03  0.39672947198E+03  0.00000000000E+00 0. -1.
          6    1    1    2  501    0 -0.10731759128E+03 -0.93540661391E+02 -0.17419186374E+03  0.28379345681E+03  0.17300000000E+03 0. -1.
         -6    1    1    2    0  503  0.10731759128E+03  0.93540661391E+02 -0.92923298465E+02  0.24255032494E+03  0.17300000000E+03 0. -1.
</event>
<event>
 4    1  0.5904698E+000  0.1000000E+03  0.7546771E-02  0.1280296E+00
         21   -1    0    0  503  502  0.00000000000E+00  0.00000000000E+00  0.64032061676E+02  0.64032061676E+02  0.00000000000E+00 0.  1.
         21   -1    0    0  501  503 -0.00000000000E+00 -0.00000000000E+00 -0.65540829563E+03  0.65540829563E+03  0.00000000000E+00 0.  1.
          6    1    1    2  501    0  0.87382968120E+02 -0.75786252822E+01 -0.41143285849E+03  0.45486175452E+03  0.17300000000E+03 0.  1.
         -6    1    1    2    0  502 -0.87382968120E+02  0.75786252822E+01 -0.17994337546E+03  0.26457860278E+03  0.17300000000E+03 0.  1.
</event>
<event>
 4    1  0.5904698E+000  0.1000000E+03  0.7546771E-02  0.1280296E+00
         21   -1    0    0  503  502  0.00000000000E+00  0.00000000000E+00  0.29388338157E+03  0.29388338157E+03  0.00000000000E+00 0.  1.
         21   -1    0    0  501  503 -0.00000000000E+00 -0.00000000000E+00 -0.14938966312E+03  0.14938966312E+03  0.00000000000E+00 0.  1.
          6    1    1    2  501    0 -0.11209290370E+03  0.18244184967E+02  0.10695205586E+03  0.23294937561E+03  0.17300000000E+03 0.  1.
         -6    1    1    2    0  502  0.11209290370E+03 -0.18244184967E+02  0.37541662584E+02  0.21032366908E+03  0.17300000000E+03 0.  1.
</event>
<event>
 4    1  0.5904698E+000  0.1000000E+03  0.7546771E-02  0.1280296E+00
         21   -1    0    0  501  502  0.00000000000E+00  0.00000000000E+00  0.13817273697E+03  0.13817273697E+03  0.00000000000E+00 0. -1.
         21   -1    0    0  502  503 -0.00000000000E+00 -0.00000000000E+00 -0.43240521708E+03  0.43240521708E+03  0.00000000000E+00 0.  1.
          6    1    1    2  501    0  0.62592868198E+02 -0.13396962201E+03 -0.43037168473E+02  0.23161805767E+03  0.17300000000E+03 0.  1.
         -6    1    1    2    0  503 -0.62592868198E+02  0.13396962201E+03 -0.25119531164E+03  0.33895989639E+03  0.17300000000E+03 0. -1.
</event>
<event>
 4    1  0.5904698E+000  0.1000000E+03  0.7546771E-02  0.1280296E+00
         21   -1    0    0  501  502  0.00000000000E+00  0.00000000000E+00  0.90764849908E+02  0.90764849908E+02  0.00000000000E+00 0. -1.
         21   -1    0    0  502  503 -0.00000000000E+00 -0.00000000000E+00 -0.58520486990E+03  0.58520486990E+03  0.00000000000E+00 0.  1.
          6    1    1    2  501    0 -0.47663277596E+02  0.13877272289E+03 -0.30692283691E+03  0.38165466651E+03  0.17300000000E+03 0.  1.
         -6    1    1    2    0  503  0.47663277596E+02 -0.13877272289E+03 -0.18751718308E+03  0.29431505330E+03  0.17300000000E+03 0. -1.
</event>
<event>
 4    1  0.5904698E+000  0.1000000E+03  0.7546771E-02  0.1280296E+00
         21   -1    0    0  501  502  0.00000000000E+00  0.00000000000E+00  0.59379182061E+02  0.59379182061E+02  0.00000000000E+00 0. -1.
         21   -1    0    0  502  503 -0.00000000000E+00 -0.00000000000E+00 -0.13231504979E+04  0.13231504979E+04  0.00000000000E+00 0. -1.
          6    1    1    2  501    0 -0.16115766799E+03  0.99842966430E+02 -0.35398247512E+03  0.43723335256E+03  0.17300000000E+03 0. -1.
         -6    1    1    2    0  503  0.16115766799E+03 -0.99842966430E+02 -0.90978884069E+03  0.94529632738E+03  0.17300000000E+03 0. -1.
</event>
<event>
 4    1  0.5904698E+000  0.1000000E+03  0.7546771E-02  0.1280296E+00
         21   -1    0    0  503  502  0.00000000000E+00  0.00000000000E+00  0.19427656831E+03  0.19427656831E+03  0.00000000000E+00 0.  1.
         21   -1    0    0  501  503 -0.00000000000E+00 -0.00000000000E+00 -0.19026671181E+03  0.19026671181E+03  0.00000000000E+00 0.  1.
          6    1    1    2  501    0 -0.36955012608E+02 -0.58239974033E+02 -0.45723930980E+02  0.19177394348E+03  0.17300000000E+03 0.  1.
         -6    1    1    2    0  502  0.36955012608E+02  0.58239974033E+02  0.49733787477E+02  0.19276933664E+03  0.17300000000E+03 0.  1.
</event>
<event>
 4    1  0.5904698E+000  0.1000000E+03  0.7546771E-02  0.1280296E+00
         21   -1    0    0  503  502  0.00000000000E+00  0.00000000000E+00  0.23714414506E+03  0.23714414506E+03  0.00000000000E+00 0.  1.
         21   -1    0    0  501  503 -0.00000000000E+00 -0.00000000000E+00 -0.59432645206E+03  0.59432645206E+03  0.00000000000E+00 0.  1.
          6    1    1    2  501    0  0.19072912978E+03 -0.22162934637E+03 -0.35547771879E+03  0.49172205225E+03  0.17300000000E+03 0.  1.
         -6    1    1    2    0  502 -0.19072912978E+03  0.22162934637E+03 -0.17045882183E+01  0.33974854487E+03  0.17300000000E+03 0.  1.
</event>
<event>
 4    1  0.5904698E+000  0.1000000E+03  0.7546771E-02  0.1280296E+00
         21   -1    0    0  501  502  0.00000000000E+00  0.00000000000E+00  0.80281610467E+02  0.80281610467E+02  0.00000000000E+00 0. -1.
         21   -1    0    0  502  503 -0.00000000000E+00 -0.00000000000E+00 -0.54283024826E+03  0.54283024826E+03  0.00000000000E+00 0. -1.
          6    1    1    2  501    0 -0.50613645138E+02 -0.10480918760E+03 -0.21608517817E+03  0.30028072050E+03  0.17300000000E+03 0. -1.
         -6    1    1    2    0  503  0.50613645138E+02  0.10480918760E+03 -0.24646345961E+03  0.32283113822E+03  0.17300000000E+03 0. -1.
</event>
<event>
 4    1  0.5904698E+000  0.1000000E+03  0.7546771E-02  0.1280296E+00
         21   -1    0    0  503  502  0.00000000000E+00  0.00000000000E+00  0.44612258170E+03  0.44612258170E+03  0.00000000000E+00 0.  1.
         21   -1    0    0  501  503 -0.00000000000E+00 -0.00000000000E+00 -0.23115216782E+03  0.23115216782E+03  0.00000000000E+00 0. -1.
          6    1    1    2  501    0  0.20086094081E+03  0.17886475855E+03  0.76641656907E+02  0.32884747676E+03  0.17300000000E+03 0.  1.
         -6    1    1    2    0  502 -0.20086094081E+03 -0.17886475855E+03  0.13832875697E+03  0.34842727276E+03  0.17300000000E+03 0.  1.
</event>
<event>
 4    1  0.5904698E+000  0.1000000E+03  0.7546771E-02  0.1280296E+00
         21   -1    0    0  501  502  0.00000000000E+00  0.00000000000E+00  0.14132416782E+03  0.14132416782E+03  0.00000000000E+00 0. -1.
         21   -1    0    0  502  503 -0.00000000000E+00 -0.00000000000E+00 -0.51333274313E+03  0.51333274313E+03  0.00000000000E+00 0.  1.
          6    1    1    2  501    0  0.13324060488E+03  0.15453686869E+03 -0.14790920720E+03  0.30568093848E+03  0.17300000000E+03 0. -1.
         -6    1    1    2    0  503 -0.13324060488E+03 -0.15453686869E+03 -0.22409936811E+03  0.34897597247E+03  0.17300000000E+03 0.  1.
</event>
<event>
 4    1  0.5904698E+000  0.1000000E+03  0.7546771E-02  0.1280296E+00
         21   -1    0    0  501  502  0.00000000000E+00  0.00000000000E+00  0.39637391384E+02  0.39637391384E+02  0.00000000000E+00 0. -1.
         21   -1    0    0  502  503 -0.00000000000E+00 -0.00000000000E+00 -0.11759657680E+04  0.11759657680E+04  0.00000000000E+00 0.  1.
          6    1    1    2  501    0  0.18676737482E+02  0.42618235267E+02 -0.22895581970E+03  0.29071446795E+03  0.17300000000E+03 0. -1.
         -6    1    1    2    0  503 -0.18676737482E+02 -0.42618235267E+02 -0.90737255694E+03  0.92488869146E+03  0.17300000000E+03 0.  1.
</event>
<event>
 4    1  0.5904698E+000  0.1000000E+03  0.7546771E-02  0.1280296E+00
         21   -1    0    0  501  502  0.00000000000E+00  0.00000000000E+00  0.29046904891E+03  0.29046904891E+03  0.00000000000E+00 0. -1.
         21   -1    0    0  502  503 -0.00000000000E+00 -0.00000000000E+00 -0.13351265892E+03  0.13351265892E+03  0.00000000000E+00 0. -1.
          6    1    1    2  501    0 -0.83645972442E+02 -0.42867477755E+02  0.73907818047E+02  0.21029891803E+03  0.17300000000E+03 0. -1.
         -6    1    1    2    0  503  0.83645972442E+02  0.42867477755E+02  0.83048571952E+02  0.21368278980E+03  0.17300000000E+03 0. -1.
</event>
<event>
 4    1  0.5904698E+000  0.1000000E+03  0.7546771E-02  0.1280296E+00
         21   -1    0    0  501  502  0.00000000000E+00  0.00000000000E+00  0.62461854892E+03  0.62461854892E+03  0.00000000000E+00 0. -1.
         21   -1    0    0  502  503 -0.00000000000E+00 -0.00000000000E+00 -0.14133427149E+03  0.14133427149E+03  0.00000000000E+00 0. -1.
          6    1    1    2  501    0 -0.32920135392E+02 -0.21968510007E+02  0.54879625929E+03  0.57677784714E+03  0.17300000000E+03 0. -1.
         -6    1    1    2    0  503  0.32920135392E+02  0.21968510007E+02 -0.65511981856E+02  0.18917497327E+03  0.17300000000E+03 0. -1.
</event>
<event>
 4    1  0.5904698E+000  0.1000000E+03  0.7546771E-02  0.1280296E+00
         21   -1    0    0  501  502  0.00000000000E+00  0.00000000000E+00  0.13662282439E+04  0.13662282439E+04  0.00000000000E+00 0. -1.
         21   -1    0    0  502  503 -0.00000000000E+00 -0.00000000000E+00 -0.25029343562E+02  0.25029343562E+02  0.00000000000E+00 0.  1.
          6    1    1    2  501    0  0.34188443644E+01  0.63718144471E+02  0.61805508683E+03  0.64497502338E+03  0.17300000000E+03 0. -1.
         -6    1    1    2    0  503 -0.34188443644E+01 -0.63718144471E+02  0.72314381351E+03  0.74628256408E+03  0.17300000000E+03 0.  1.
</event>
<event>
 4    1  0.5904698E+000  0.1000000E+03  0.7546771E-02  0.1280296E+00
         21   -1    0    0  501  502  0.00000000000E+00  0.00000000000E+00  0.17314971127E+03  0.17314971127E+03  0.00000000000E+00 0. -1.
         21   -1    0    0  502  503 -0.00000000000E+00 -0.00000000000E+00 -0.78931997015E+03  0.78931997015E+03  0.00000000000E+00 0.  1.
          6    1    1    2  501    0 -0.18122114806E+03  0.97406260750E+02  0.22287841621E+02  0.26973103645E+03  0.17300000000E+03 0. -1.
         -6    1    1    2    0  503  0.18122114806E+03 -0.97406260750E+02 -0.63845810051E+03  0.69273864497E+03  0.17300000000E+03 0.  1.
</event>
<event>
 4    1  0.5904698E+000  0.1000000E+03  0.7546771E-02  0.1280296E+00
         21   -1    0    0  501  502  0.00000000000E+00  0.00000000000E+00  0.50312769026E+03  0.50312769026E+03  0.00000000000E+00 0. -1.
         21   -1    0    0  502  503 -0.00000000000E+00 -0.00000000000E+00 -0.21838173780E+03  0.21838173780E+03  0.00000000000E+00 0. -1.
          6    1    1    2  501    0 -0.23604936516E+03 -0.15514375583E+03  0.12877910525E+03  0.35538985032E+03  0.17300000000E+03 0. -1.
         -6    1    1    2    0  503  0.23604936516E+03  0.15514375583E+03  0.15596684721E+03  0.36611957773E+03  0.17300000000E+03 0. -1.
</event>
<event>
 4    1  0.5904698E+000  0.1000000E+03  0.7546771E-02  0.1280296E+00
         21   -1    0    0  501  502  0.00000000000E+00  0.00000000000E+00  0.51825402277E+03  0.51825402277E+03  0.00000000000E+00 0. -1.
         21   -1    0    0  502  503 -0.00000000000E+00 -0.00000000000E+00 -0.11242862877E+03  0.11242862877E+03  0.00000000000E+00 0. -1.
          6    1    1    2  501    0  0.72679564073E+02  0.10228015114E+03  0.34951933649E+03  0.40967830664E+03  0.17300000000E+03 0. -1.
         -6    1    1    2    0  503 -0.72679564073E+02 -0.10228015114E+03  0.56306057512E+02  0.22100434490E+03  0.17300000000E+03 0. -1.
</event>
<event>
 4    1  0.5904698E+000  0.1000000E+03  0.7546771E-02  0.1280296E+00
         21   -1    0    0  501  502  0.00000000000E+00  0.00000000000E+00  0.93707603904E+03  0.93707603904E+03  0.00000000000E+00 0. -1.
         21   -1    0    0  502  503 -0.00000000000E+00 -0.00000000000E+00 -0.80070067082E+02  0.80070067082E+02  0.00000000000E+00 0. -1.
          6    1    1    2  501    0 -0.50293874719E+02 -0.17647145376E+03  0.22999649124E+03  0.34131954794E+03  0.17300000000E+03 0. -1.
         -6    1    1    2    0  503  0.50293874719E+02  0.17647145376E+03  0.62700948072E+03  0.67582655818E+03  0.17300000000E+03 0. -1.
</event>
<event>
 4    1  0.5904698E+000  0.1000000E+03  0.7546771E-02  0.1280296E+00
         21   -1    0    0  503  502  0.00000000000E+00  0.00000000000E+00  0.24503314724E+03  0.24503314724E+03  0.00000000000E+00 0.  1.
         21   -1    0    0  501  503 -0.00000000000E+00 -0.00000000000E+00 -0.16420911965E+03  0.16420911965E+03  0.00000000000E+00 0.  1.
          6    1    1    2  501    0 -0.64435201625E+02  0.77881308506E+02  0.30719314189E+02  0.20270685654E+03  0.17300000000E+03 0.  1.
         -6    1    1    2    0  502  0.64435201625E+02 -0.77881308506E+02  0.50104713398E+02  0.20653541035E+03  0.17300000000E+03 0.  1.
</event>
<event>
 4    1  0.5904698E+000  0.1000000E+03  0.7546771E-02  0.1280296E+00
         21   -1    0    0  503  502  0.00000000000E+00  0.00000000000E+00  0.22160250818E+03  0.22160250818E+03  0.00000000000E+00 0.  1.
         21   -1    0    0  501  503 -0.00000000000E+00 -0.00000000000E+00 -0.73676399756E+03  0.73676399756E+03  0.00000000000E+00 0.  1.
          6    1    1    2  501    0  0.98532406951E+02  0.31020567695E+02 -0.67293362370E+03  0.70245254127E+03  0.17300000000E+03 0.  1.
         -6    1    1    2    0  502 -0.98532406951E+02 -0.31020567695E+02  0.15777213432E+03  0.25591396446E+03  0.17300000000E+03 0.  1.
</event>
<event>
 4    1  0.5904698E+000  0.1000000E+03  0.7546771E-02  0.1280296E+00
         21   -1    0    0  501  502  0.00000000000E+00  0.00000000000E+00  0.81011393396E+03  0.81011393396E+03  0.00000000000E+00 0.  1.
         21   -1    0    0  502  503 -0.00000000000E+00 -0.00000000000E+00 -0.24405475162E+03  0.24405475162E+03  0.00000000000E+00 0. -1.
          6    1    1    2  501    0  0.58778013575E+02  0.22105840106E+03  0.68582266777E+03  0.74337299062E+03  0.17300000000E+03 0. -1.
         -6    1    1    2    0  503 -0.58778013575E+02 -0.22105840106E+03 -0.11976348543E+03  0.31079569495E+03  0.17300000000E+03 0.  1.
</event>
<event>
 4    1  0.5904698E+000  0.1000000E+03  0.7546771E-02  0.1280296E+00
         21   -1    0    0  503  502  0.00000000000E+00  0.00000000000E+00  0.20433491507E+03  0.20433491507E+03  0.00000000000E+00 0.  1.
         21   -1    0    0  501  503 -0.00000000000E+00 -0.00000000000E+00 -0.16080066103E+03  0.16080066103E+03  0.00000000000E+00 0.  1.
          6    1    1    2  501    0  0.43996228269E+02  0.10134290596E+02 -0.82769876650E+01  0.17898569907E+03  0.17300000000E+03 0.  1.
         -6    1    1    2    0  502 -0.43996228269E+02 -0.10134290596E+02  0.51811241708E+02  0.18614987702E+03  0.17300000000E+03 0.  1.
</event>
<event>
 4    1  0.5904698E+000  0.1000000E+03  0.7546771E-02  0.1280296E+00
         21   -1    0    0  503  502  0.00000000000E+00  0.00000000000E+00  0.12222357347E+03  0.12222357347E+03  0.00000000000E+00 0.  1.
         21   -1    0    0  501  503 -0.00000000000E+00 -0.00000000000E+00 -0.28543015105E+03  0.28543015105E+03  0.00000000000E+00 0.  1.
          6    1    1    2  501    0  0.41564040641E+02  0.55739215743E+02 -0.69507191998E+02  0.19898411843E+03  0.17300000000E+03 0.  1.
         -6    1    1    2    0  502 -0.41564040641E+02 -0.55739215743E+02 -0.93699385583E+02  0.20866960609E+03  0.17300000000E+03 0.  1.
</event>
<event>
 4    1  0.5904698E+000  0.1000000E+03  0.7546771E-02  0.1280296E+00
         21   -1    0    0  501  502  0.00000000000E+00  0.00000000000E+00  0.18809242383E+03  0.18809242383E+03  0.00000000000E+00 0. -1.
         21   -1    0    0  502  503 -0.00000000000E+00 -0.00000000000E+00 -0.48046438302E+03  0.48046438302E+03  0.00000000000E+00 0. -1.
          6    1    1    2  501    0  0.15362118977E+02 -0.14457551379E+02  0.12618407060E+03  0.21516606416E+03  0.17300000000E+03 0. -1.
         -6    1    1    2    0  503 -0.15362118977E+02  0.14457551379E+02 -0.41855602979E+03  0.45339074269E+03  0.17300000000E+03 0. -1.
</event>
<event>
 4    1  0.5904698E+000  0.1000000E+03  0.7546771E-02  0.1280296E+00
         21   -1    0    0  501  502  0.00000000000E+00  0.00000000000E+00  0.87993044197E+02  0.87993044197E+02  0.00000000000E+00 0. -1.
         21   -1    0    0  502  503 -0.00000000000E+00 -0.00000000000E+00 -0.90525157043E+03  0.90525157043E+03  0.00000000000E+00 0. -1.
          6    1    1    2  501    0  0.17884578570E+03  0.66124834020E+02 -0.61208000602E+03  0.66402503153E+03  0.17300000000E+03 0. -1.
         -6    1    1    2    0  503 -0.17884578570E+03 -0.66124834020E+02 -0.20517852022E+03  0.32921958310E+03  0.17300000000E+03 0. -1.
</event>
<event>
 4    1  0.5904698E+000  0.1000000E+03  0.7546771E-02  0.1280296E+00
         21   -1    0    0  501  502  0.00000000000E+00  0.00000000000E+00  0.17271909081E+03  0.17271909081E+03  0.00000000000E+00 0. -1.
         21   -1    0    0  502  503 -0.00000000000E+00 -0.00000000000E+00 -0.24884038843E+03  0.24884038843E+03  0.00000000000E+00 0. -1.
          6    1    1    2  501    0  0.27805341790E+01 -0.10738859610E+03  0.14533086887E+01  0.20364467596E+03  0.17300000000E+03 0. -1.
         -6    1    1    2    0  503 -0.27805341790E+01  0.10738859610E+03 -0.77574606305E+02  0.21791480327E+03  0.17300000000E+03 0. -1.
</event>
<event>
 4    1  0.5904698E+000  0.1000000E+03  0.7546771E-02  0.1280296E+00
         21   -1    0    0  501  502  0.00000000000E+00  0.00000000000E+00  0.21521962407E+03  0.21521962407E+03  0.00000000000E+00 0. -1.
         21   -1    0    0  502  503 -0.00000000000E+00 -0.00000000000E+00 -0.17671918163E+03  0.17671918163E+03  0.00000000000E+00 0. -1.
          6    1    1    2  501    0  0.97294976348E+01 -0.68901409825E+02  0.76644947944E+02  0.20160732984E+03  0.17300000000E+03 0. -1.
         -6    1    1    2    0  503 -0.97294976348E+01  0.68901409825E+02 -0.38144505504E+02  0.19033147585E+03  0.17300000000E+03 0. -1.
</event>
<event>
 4    1  0.5904698E+000  0.1000000E+03  0.7546771E-02  0.1280296E+00
         21   -1    0    0  501  502  0.00000000000E+00  0.00000000000E+00  0.17689905306E+03  0.17689905306E+03  0.00000000000E+00 0. -1.
         21   -1    0    0  502  503 -0.00000000000E+00 -0.00000000000E+00 -0.20843385900E+03  0.20843385900E+03  0.00000000000E+00 0. -1.
          6    1    1    2  501    0 -0.41223036853E+00 -0.28036838992E+02  0.62960158071E+02  0.18622356397E+03  0.17300000000E+03 0. -1.
         -6    1    1    2    0  503  0.41223036853E+00  0.28036838992E+02 -0.94494964011E+02  0.19910934809E+03  0.17300000000E+03 0. -1.
</event>
<event>
 4    1  0.5904698E+000  0.1000000E+03  0.7546771E-02  0.1280296E+00
         21   -1    0    0  503  502  0.00000000000E+00  0.00000000000E+00  0.39744314177E+03  0.39744314177E+03  0.00000000000E+00 0.  1.
         21   -1    0    0  501  503 -0.00000000000E+00 -0.00000000000E+00 -0.90120989597E+02  0.90120989597E+02  0.00000000000E+00 0.  1.
          6    1    1    2  501    0  0.24400640684E+02  0.45388504511E+02  0.22690728132E+03  0.28995072326E+03  0.17300000000E+03 0.  1.
         -6    1    1    2    0  502 -0.24400640684E+02 -0.45388504511E+02  0.80414870860E+02  0.19761340811E+03  0.17300000000E+03 0.  1.
</event>
<event>
 4    1  0.5904698E+000  0.1000000E+03  0.7546771E-02  0.1280296E+00
         21   -1    0    0  503  502  0.00000000000E+00  0.00000000000E+00  0.19839873108E+04  0.19839873108E+04  0.00000000000E+00 0.  1.
         21   -1    0    0  501  503 -0.00000000000E+00 -0.00000000000E+00 -0.44184652724E+02  0.44184652724E+02  0.00000000000E+00 0.  1.
          6    1    1    2  501    0 -0.29962568046E+02  0.55205722008E+02  0.17555528299E+03  0.25435031868E+03  0.17300000000E+03 0.  1.
         -6    1    1    2    0  502  0.29962568046E+02 -0.55205722008E+02  0.17642473751E+04  0.17738216449E+04  0.17300000000E+03 0.  1.
</event>
<event>
 4    1  0.5904698E+000  0.1000000E+03  0.7546771E-02  0.1280296E+00
         21   -1    0    0  503  502  0.00000000000E+00  0.00000000000E+00  0.19714011339E+03  0.19714011339E+03  0.00000000000E+00 0. -1.
         21   -1    0    0  501  503 -0.00000000000E+00 -0.00000000000E+00 -0.44079496791E+03  0.44079496791E+03  0.00000000000E+00 0. -1.
          6    1    1    2  501    0  0.14424928876E+03  0.17771552412E+03 -0.19504444122E+03  0.34693226842E+03  0.17300000000E+03 0. -1.
         -6    1    1    2    0  502 -0.14424928876E+03 -0.17771552412E+03 -0.48610413307E+02  0.29100281288E+03  0.17300000000E+03 0. -1.
</event>
<event>
 4    1  0.5904698E+000  0.1000000E+03  0.7546771E-02  0.1280296E+00
         21   -1    0    0  503  502  0.00000000000E+00  0.00000000000E+00  0.83691647226E+03  0.83691647226E+03  0.00000000000E+00 0. -1.
         21   -1    0    0  501  503 -0.00000000000E+00 -0.00000000000E+00 -0.57394328977E+02  0.57394328977E+02  0.00000000000E+00 0. -1.
          6    1    1    2  501    0  0.11602080230E+03  0.56335033415E+02  0.31151559039E+03  0.37895306518E+03  0.17300000000E+03 0. -1.
         -6    1    1    2    0  502 -0.11602080230E+03 -0.56335033415E+02  0.46800655289E+03  0.51535773605E+03  0.17300000000E+03 0. -1.
</event>
<event>
 4    1  0.5904698E+000  0.1000000E+03  0.7546771E-02  0.1280296E+00
         21   -1    0    0  503  502  0.00000000000E+00  0.00000000000E+00  0.19260574263E+03  0.19260574263E+03  0.00000000000E+00 0. -1.
         21   -1    0    0  501  503 -0.00000000000E+00 -0.00000000000E+00 -0.21556762525E+03  0.21556762525E+03  0.00000000000E+00 0. -1.
          6    1    1    2  501    0  0.72760218229E+02  0.30823947975E+02 -0.84715978091E+02  0.20820653705E+03  0.17300000000E+03 0. -1.
         -6    1    1    2    0  502 -0.72760218229E+02 -0.30823947975E+02  0.61754095478E+02  0.19996683083E+03  0.17300000000E+03 0. -1.
</event>
<event>
 4    1  0.5904698E+000  0.1000000E+03  0.7546771E-02  0.1280296E+00
         21   -1    0    0  503  502  0.00000000000E+00  0.00000000000E+00  0.15279207312E+03  0.15279207312E+03  0.00000000000E+00 0. -1.
         21   -1    0    0  501  503 -0.00000000000E+00 -0.00000000000E+00 -0.77608230523E+03  0.77608230523E+03  0.00000000000E+00 0. -1.
          6    1    1    2  501    0  0.90736743783E+02  0.39564731288E+01 -0.69407738373E+03  0.72105563236E+03  0.17300000000E+03 0. -1.
         -6    1    1    2    0  502 -0.90736743783E+02 -0.39564731288E+01  0.70787151622E+02  0.20781874599E+03  0.17300000000E+03 0. -1.
</event>
<event>
 4    1  0.5904698E+000  0.1000000E+03  0.7546771E-02  0.1280296E+00
         21   -1    0    0  501  502  0.00000000000E+00  0.00000000000E+00  0.17707569471E+03  0.17707569471E+03  0.00000000000E+00 0. -1.
         21   -1    0    0  502  503 -0.00000000000E+00 -0.00000000000E+00 -0.80942106771E+03  0.80942106771E+03  0.00000000000E+00 0. -1.
          6    1    1    2  501    0  0.15425221684E+03 -0.29648183585E+02  0.71912376937E+02  0.24448548249E+03  0.17300000000E+03 0. -1.
         -6    1    1    2    0  503 -0.15425221684E+03  0.29648183585E+02 -0.70425774994E+03  0.74201127993E+03  0.17300000000E+03 0. -1.
</event>
<event>
 4    1  0.5904698E+000  0.1000000E+03  0.7546771E-02  0.1280296E+00
         21   -1    0    0  501  502  0.00000000000E+00  0.00000000000E+00  0.49209173381E+02  0.49209173381E+02  0.00000000000E+00 0. -1.
         21   -1    0    0  502  503 -0.00000000000E+00 -0.00000000000E+00 -0.10557228148E+04  0.10557228148E+04  0.00000000000E+00 0. -1.
          6    1    1    2  501    0  0.12102420878E+03 -0.57984865528E+02 -0.65680684739E+03  0.69233903438E+03  0.17300000000E+03 0. -1.
         -6    1    1    2    0  503 -0.12102420878E+03  0.57984865528E+02 -0.34970679404E+03  0.41259295382E+03  0.17300000000E+03 0. -1.
</event>
<event>
 4    1  0.5904698E+000  0.1000000E+03  0.7546771E-02  0.1280296E+00
         21   -1    0    0  501  502  0.00000000000E+00  0.00000000000E+00  0.26602292016E+03  0.26602292016E+03  0.00000000000E+00 0. -1.
         21   -1    0    0  502  503 -0.00000000000E+00 -0.00000000000E+00 -0.47349066051E+03  0.47349066051E+03  0.00000000000E+00 0. -1.
          6    1    1    2  501    0 -0.66421573268E+02 -0.16564452781E+03  0.16020432555E+03  0.29570992698E+03  0.17300000000E+03 0. -1.
         -6    1    1    2    0  503  0.66421573268E+02  0.16564452781E+03 -0.36767206590E+03  0.44380365369E+03  0.17300000000E+03 0. -1.
</event>
<event>
 4    1  0.5904698E+000  0.1000000E+03  0.7546771E-02  0.1280296E+00
         21   -1    0    0  501  502  0.00000000000E+00  0.00000000000E+00  0.38324896953E+03  0.38324896953E+03  0.00000000000E+00 0.  1.
         21   -1    0    0  502  503 -0.00000000000E+00 -0.00000000000E+00 -0.33913537784E+03  0.33913537784E+03  0.00000000000E+00 0.  1.
          6    1    1    2  501    0 -0.29785747361E+03  0.80918154389E+02  0.91305220281E+02  0.36542094295E+03  0.17300000000E+03 0.  1.
         -6    1    1    2    0  503  0.29785747361E+03 -0.80918154389E+02 -0.47191628592E+02  0.35696340443E+03  0.17300000000E+03 0.  1.
</event>
<event>
 4    1  0.5904698E+000  0.1000000E+03  0.7546771E-02  0.1280296E+00
         21   -1    0    0  501  502  0.00000000000E+00  0.00000000000E+00  0.13422011204E+03  0.13422011204E+03  0.00000000000E+00 0.  1.
         21   -1    0    0  502  503 -0.00000000000E+00 -0.00000000000E+00 -0.10995514521E+04  0.10995514521E+04  0.00000000000E+00 0.  1.
          6    1    1    2  501    0  0.13281405245E+03 -0.17913618666E+03 -0.64162794611E+02  0.28943947573E+03  0.17300000000E+03 0.  1.
         -6    1    1    2    0  503 -0.13281405245E+03  0.17913618666E+03 -0.90116854548E+03  0.94433208844E+03  0.17300000000E+03 0.  1.
</event>
<event>
 4    1  0.5904698E+000  0.1000000E+03  0.7546771E-02  0.1280296E+00
         21   -1    0    0  503  502  0.00000000000E+00  0.00000000000E+00  0.40285013469E+03  0.40285013469E+03  0.00000000000E+00 0.  1.
         21   -1    0    0  501  503 -0.00000000000E+00 -0.00000000000E+00 -0.23884472747E+03  0.23884472747E+03  0.00000000000E+00 0.  1.
          6    1    1    2  501    0  0.41117377564E+02  0.11506648922E+03 -0.15240720755E+03  0.26093656814E+03  0.17300000000E+03 0.  1.
         -6    1    1    2    0  502 -0.41117377564E+02 -0.11506648922E+03  0.31641261477E+03  0.38075829402E+03  0.17300000000E+03 0.  1.
</event>
<event>
 4    1  0.5904698E+000  0.1000000E+03  0.7546771E-02  0.1280296E+00
         21   -1    0    0  503  502  0.00000000000E+00  0.00000000000E+00  0.45240348612E+02  0.45240348612E+02  0.00000000000E+00 0.  1.
         21   -1    0    0  501  503 -0.00000000000E+00 -0.00000000000E+00 -0.97114632892E+03  0.97114632892E+03  0.00000000000E+00 0.  1.
          6    1    1    2  501    0  0.45068494234E+02  0.62363284256E+02 -0.68096535787E+03  0.70679782612E+03  0.17300000000E+03 0.  1.
         -6    1    1    2    0  502 -0.45068494234E+02 -0.62363284256E+02 -0.24494062244E+03  0.30958885141E+03  0.17300000000E+03 0.  1.
</event>
<event>
 4    1  0.5904698E+000  0.1000000E+03  0.7546771E-02  0.1280296E+00
         21   -1    0    0  501  502  0.00000000000E+00  0.00000000000E+00  0.28005132965E+02  0.28005132965E+02  0.00000000000E+00 0.  1.
         21   -1    0    0  502  503 -0.00000000000E+00 -0.00000000000E+00 -0.20820547991E+04  0.20820547991E+04  0.00000000000E+00 0.  1.
          6    1    1    2  501    0 -0.16373570799E+03 -0.36792531681E+02 -0.96278912062E+03  0.99249935176E+03  0.17300000000E+03 0.  1.
         -6    1    1    2    0  503  0.16373570799E+03  0.36792531681E+02 -0.10912605456E+04  0.11175605803E+04  0.17300000000E+03 0.  1.
</event>
<event>
 4    1  0.5904698E+000  0.1000000E+03  0.7546771E-02  0.1280296E+00
         21   -1    0    0  501  502  0.00000000000E+00  0.00000000000E+00  0.15595361351E+03  0.15595361351E+03  0.00000000000E+00 0.  1.
         21   -1    0    0  502  503 -0.00000000000E+00 -0.00000000000E+00 -0.15481543402E+04  0.15481543402E+04  0.00000000000E+00 0.  1.
          6    1    1    2  501    0  0.36328433898E+03 -0.93224856319E+02 -0.23455277032E+03  0.47498461749E+03  0.17300000000E+03 0.  1.
         -6    1    1    2    0  503 -0.36328433898E+03  0.93224856319E+02 -0.11576479564E+04  0.12291233362E+04  0.17300000000E+03 0.  1.
</event>
<event>
 4    1  0.5904698E+000  0.1000000E+03  0.7546771E-02  0.1280296E+00
         21   -1    0    0  503  502  0.00000000000E+00  0.00000000000E+00  0.14658561449E+04  0.14658561449E+04  0.00000000000E+00 0.  1.
         21   -1    0    0  501  503 -0.00000000000E+00 -0.00000000000E+00 -0.16361663278E+03  0.16361663278E+03  0.00000000000E+00 0. -1.
          6    1    1    2  501    0 -0.12979310730E+02 -0.42070755610E+03  0.35007037052E+03  0.57414421061E+03  0.17300000000E+03 0.  1.
         -6    1    1    2    0  502  0.12979310730E+02  0.42070755610E+03  0.95216914163E+03  0.10553285671E+04  0.17300000000E+03 0.  1.
</event>
<event>
 4    1  0.5904698E+000  0.1000000E+03  0.7546771E-02  0.1280296E+00
         21   -1    0    0  503  502  0.00000000000E+00  0.00000000000E+00  0.12772092379E+04  0.12772092379E+04  0.00000000000E+00 0.  1.
         21   -1    0    0  501  503 -0.00000000000E+00 -0.00000000000E+00 -0.12155687446E+03  0.12155687446E+03  0.00000000000E+00 0. -1.
          6    1    1    2  501    0  0.67307506939E+02  0.11008580233E+03 -0.73139694979E+01  0.21594369293E+03  0.17300000000E+03 0.  1.
         -6    1    1    2    0  502 -0.67307506939E+02 -0.11008580233E+03  0.11629663330E+04  0.11828224195E+04  0.17300000000E+03 0.  1.
</event>
<event>
 4    1  0.5904698E+000  0.1000000E+03  0.7546771E-02  0.1280296E+00
         21   -1    0    0  501  502  0.00000000000E+00  0.00000000000E+00  0.97007165672E+02  0.97007165672E+02  0.00000000000E+00 0. -1.
         21   -1    0    0  502  503 -0.00000000000E+00 -0.00000000000E+00 -0.91812551950E+03  0.91812551950E+03  0.00000000000E+00 0. -1.
          6    1    1    2  501    0  0.14193991361E+03  0.19121584238E+03 -0.32680159568E+03  0.43981668954E+03  0.17300000000E+03 0. -1.
         -6    1    1    2    0  503 -0.14193991361E+03 -0.19121584238E+03 -0.49431675815E+03  0.57531599564E+03  0.17300000000E+03 0. -1.
</event>
<event>
 4    1  0.5904698E+000  0.1000000E+03  0.7546771E-02  0.1280296E+00
         21   -1    0    0  503  502  0.00000000000E+00  0.00000000000E+00  0.36987444294E+03  0.36987444294E+03  0.00000000000E+00 0. -1.
         21   -1    0    0  501  503 -0.00000000000E+00 -0.00000000000E+00 -0.12169471451E+03  0.12169471451E+03  0.00000000000E+00 0. -1.
          6    1    1    2  501    0 -0.94247202493E+02  0.28484766332E+02  0.20913305826E+03  0.28872054507E+03  0.17300000000E+03 0.  1.
         -6    1    1    2    0  502  0.94247202493E+02 -0.28484766332E+02  0.39046670171E+02  0.20284861237E+03  0.17300000000E+03 0.  1.
</event>
<event>
 4    1  0.5904698E+000  0.1000000E+03  0.7546771E-02  0.1280296E+00
         21   -1    0    0  501  502  0.00000000000E+00  0.00000000000E+00  0.14248381414E+03  0.14248381414E+03  0.00000000000E+00 0.  1.
         21   -1    0    0  502  503 -0.00000000000E+00 -0.00000000000E+00 -0.49558338144E+03  0.49558338144E+03  0.00000000000E+00 0.  1.
          6    1    1    2  501    0 -0.86816051819E+02 -0.13314789023E+03 -0.27472164620E+02  0.23653563654E+03  0.17300000000E+03 0. -1.
         -6    1    1    2    0  503  0.86816051819E+02  0.13314789023E+03 -0.32562740268E+03  0.40153155904E+03  0.17300000000E+03 0. -1.
</event>
<event>
 4    1  0.5904698E+000  0.1000000E+03  0.7546771E-02  0.1280296E+00
         21   -1    0    0  501  502  0.00000000000E+00  0.00000000000E+00  0.39097791239E+02  0.39097791239E+02  0.00000000000E+00 0.  1.
         21   -1    0    0  502  503 -0.00000000000E+00 -0.00000000000E+00 -0.20035972691E+04  0.20035972691E+04  0.00000000000E+00 0.  1.
          6    1    1    2  501    0  0.82996690606E+02 -0.96900299567E+02 -0.32815364288E+03  0.39229062192E+03  0.17300000000E+03 0. -1.
         -6    1    1    2    0  503 -0.82996690606E+02  0.96900299567E+02 -0.16363458350E+04  0.16504044384E+04  0.17300000000E+03 0. -1.
</event>
<event>
 4    1  0.5904698E+000  0.1000000E+03  0.7546771E-02  0.1280296E+00
         21   -1    0    0  501  502  0.00000000000E+00  0.00000000000E+00  0.16102520946E+03  0.16102520946E+03  0.00000000000E+00 0.  1.
         21   -1    0    0  502  503 -0.00000000000E+00 -0.00000000000E+00 -0.30090574626E+03  0.30090574626E+03  0.00000000000E+00 0. -1.
          6    1    1    2  501    0 -0.33445357275E+02 -0.11286636891E+03  0.17407013399E+01  0.20925926310E+03  0.17300000000E+03 0.  1.
         -6    1    1    2    0  503  0.33445357275E+02  0.11286636891E+03 -0.14162123814E+03  0.25267169261E+03  0.17300000000E+03 0. -1.
</event>
<event>
 4    1  0.5904698E+000  0.1000000E+03  0.7546771E-02  0.1280296E+00
         21   -1    0    0  501  502  0.00000000000E+00  0.00000000000E+00  0.32761491567E+03  0.32761491567E+03  0.00000000000E+00 0.  1.
         21   -1    0    0  502  503 -0.00000000000E+00 -0.00000000000E+00 -0.38117674802E+03  0.38117674802E+03  0.00000000000E+00 0. -1.
          6    1    1    2  501    0  0.23808465954E+03  0.12589934727E+03  0.12336559437E+03  0.34304958916E+03  0.17300000000E+03 0.  1.
         -6    1    1    2    0  503 -0.23808465954E+03 -0.12589934727E+03 -0.17692742673E+03  0.36574207453E+03  0.17300000000E+03 0. -1.
</event>
<event>
 4    1  0.5904698E+000  0.1000000E+03  0.7546771E-02  0.1280296E+00
         21   -1    0    0  501  502  0.00000000000E+00  0.00000000000E+00  0.14645342380E+04  0.14645342380E+04  0.00000000000E+00 0.  1.
         21   -1    0    0  502  503 -0.00000000000E+00 -0.00000000000E+00 -0.48479946433E+02  0.48479946433E+02  0.00000000000E+00 0. -1.
          6    1    1    2  501    0 -0.69431881511E+02  0.43749568086E+01  0.12484404348E+04  0.12622885747E+04  0.17300000000E+03 0.  1.
         -6    1    1    2    0  503  0.69431881511E+02 -0.43749568086E+01  0.16761385671E+03  0.25072560973E+03  0.17300000000E+03 0. -1.
</event>
<event>
 4    1  0.5904698E+000  0.1000000E+03  0.7546771E-02  0.1280296E+00
         21   -1    0    0  501  502  0.00000000000E+00  0.00000000000E+00  0.15184473226E+03  0.15184473226E+03  0.00000000000E+00 0. -1.
         21   -1    0    0  502  503 -0.00000000000E+00 -0.00000000000E+00 -0.28031066423E+03  0.28031066423E+03  0.00000000000E+00 0.  1.
          6    1    1    2  501    0 -0.11101464288E+02 -0.52868557291E+02  0.39005682829E+02  0.18538816077E+03  0.17300000000E+03 0. -1.
         -6    1    1    2    0  503  0.11101464288E+02  0.52868557291E+02 -0.16747161480E+03  0.24676723572E+03  0.17300000000E+03 0.  1.
</event>
<event>
 4    1  0.5904698E+000  0.1000000E+03  0.7546771E-02  0.1280296E+00
         21   -1    0    0  501  502  0.00000000000E+00  0.00000000000E+00  0.84073494971E+02  0.84073494971E+02  0.00000000000E+00 0. -1.
         21   -1    0    0  502  503 -0.00000000000E+00 -0.00000000000E+00 -0.53770409622E+03  0.53770409622E+03  0.00000000000E+00 0.  1.
          6    1    1    2  501    0 -0.81707579475E+02  0.92302243964E+02 -0.21358835064E+03  0.30123880280E+03  0.17300000000E+03 0. -1.
         -6    1    1    2    0  503  0.81707579475E+02 -0.92302243964E+02 -0.24004225061E+03  0.32053878839E+03  0.17300000000E+03 0.  1.
</event>
<event>
 4    1  0.5904698E+000  0.1000000E+03  0.7546771E-02  0.1280296E+00
         21   -1    0    0  503  502  0.00000000000E+00  0.00000000000E+00  0.57180162331E+03  0.57180162331E+03  0.00000000000E+00 0.  1.
         21   -1    0    0  501  503 -0.00000000000E+00 -0.00000000000E+00 -0.18361927962E+03  0.18361927962E+03  0.00000000000E+00 0.  1.
          6    1    1    2  501    0  0.30054188795E+02  0.16979541391E+03 -0.54093601589E+02  0.25017764604E+03  0.17300000000E+03 0.  1.
         -6    1    1    2    0  502 -0.30054188795E+02 -0.16979541391E+03  0.44227594529E+03  0.50524325688E+03  0.17300000000E+03 0.  1.
</event>
<event>
 4    1  0.5904698E+000  0.1000000E+03  0.7546771E-02  0.1280296E+00
         21   -1    0    0  503  502  0.00000000000E+00  0.00000000000E+00  0.16253555621E+03  0.16253555621E+03  0.00000000000E+00 0.  1.
         21   -1    0    0  501  503 -0.00000000000E+00 -0.00000000000E+00 -0.74366364097E+03  0.74366364097E+03  0.00000000000E+00 0.  1.
          6    1    1    2  501    0  0.15815013451E+03  0.12803458418E+03 -0.58063381824E+03  0.63911575687E+03  0.17300000000E+03 0.  1.
         -6    1    1    2    0  502 -0.15815013451E+03 -0.12803458418E+03 -0.49426652405E+00  0.26708344031E+03  0.17300000000E+03 0.  1.
</event>
<event>
 4    1  0.5904698E+000  0.1000000E+03  0.7546771E-02  0.1280296E+00
         21   -1    0    0  503  502  0.00000000000E+00  0.00000000000E+00  0.67185679606E+02  0.67185679606E+02  0.00000000000E+00 0.  1.
         21   -1    0    0  501  503 -0.00000000000E+00 -0.00000000000E+00 -0.57543810968E+03  0.57543810968E+03  0.00000000000E+00 0.  1.
          6    1    1    2  501    0  0.77044765719E+02  0.52829301500E+02 -0.25791285461E+03  0.32430675540E+03  0.17300000000E+03 0.  1.
         -6    1    1    2    0  502 -0.77044765719E+02 -0.52829301500E+02 -0.25033957547E+03  0.31831703389E+03  0.17300000000E+03 0.  1.
</event>
<event>
 4    1  0.5904698E+000  0.1000000E+03  0.7546771E-02  0.1280296E+00
         21   -1    0    0  503  502  0.00000000000E+00  0.00000000000E+00  0.80390474722E+03  0.80390474722E+03  0.00000000000E+00 0.  1.
         21   -1    0    0  501  503 -0.00000000000E+00 -0.00000000000E+00 -0.11289816590E+03  0.11289816590E+03  0.00000000000E+00 0.  1.
          6    1    1    2  501    0 -0.24198017510E+02 -0.18008845878E+03  0.91742822039E+02  0.26713880742E+03  0.17300000000E+03 0.  1.
         -6    1    1    2    0  502  0.24198017510E+02  0.18008845878E+03  0.59926375928E+03  0.64966410570E+03  0.17300000000E+03 0.  1.
</event>
<event>
 4    1  0.5904698E+000  0.1000000E+03  0.7546771E-02  0.1280296E+00
         21   -1    0    0  503  502  0.00000000000E+00  0.00000000000E+00  0.84544473390E+03  0.84544473390E+03  0.00000000000E+00 0.  1.
         21   -1    0    0  501  503 -0.00000000000E+00 -0.00000000000E+00 -0.13067293227E+03  0.13067293227E+03  0.00000000000E+00 0.  1.
          6    1    1    2  501    0 -0.15769488149E+02  0.17209111872E+02 -0.57940601958E+02  0.18393189947E+03  0.17300000000E+03 0.  1.
         -6    1    1    2    0  502  0.15769488149E+02 -0.17209111872E+02  0.77271240359E+03  0.79218576669E+03  0.17300000000E+03 0.  1.
</event>
<event>
 4    1  0.5904698E+000  0.1000000E+03  0.7546771E-02  0.1280296E+00
         21   -1    0    0  503  502  0.00000000000E+00  0.00000000000E+00  0.11174490014E+03  0.11174490014E+03  0.00000000000E+00 0.  1.
         21   -1    0    0  501  503 -0.00000000000E+00 -0.00000000000E+00 -0.26167430438E+04  0.26167430438E+04  0.00000000000E+00 0.  1.
          6    1    1    2  501    0 -0.60835811283E+02 -0.27456179448E+03 -0.23329116607E+04  0.23561602219E+04  0.17300000000E+03 0.  1.
         -6    1    1    2    0  502  0.60835811283E+02  0.27456179448E+03 -0.17208648293E+03  0.37232772195E+03  0.17300000000E+03 0.  1.
</event>
<event>
 4    1  0.5904698E+000  0.1000000E+03  0.7546771E-02  0.1280296E+00
         21   -1    0    0  501  502  0.00000000000E+00  0.00000000000E+00  0.70112350057E+03  0.70112350057E+03  0.00000000000E+00 0. -1.
         21   -1    0    0  502  503 -0.00000000000E+00 -0.00000000000E+00 -0.37655174992E+03  0.37655174992E+03  0.00000000000E+00 0. -1.
          6    1    1    2  501    0 -0.12676053734E+03 -0.19102819952E+02  0.65152906404E+03  0.68618676236E+03  0.17300000000E+03 0. -1.
         -6    1    1    2    0  503  0.12676053734E+03  0.19102819952E+02 -0.32695731339E+03  0.39148848812E+03  0.17300000000E+03 0. -1.
</event>
<event>
 4    1  0.5904698E+000  0.1000000E+03  0.7546771E-02  0.1280296E+00
         21   -1    0    0  503  502  0.00000000000E+00  0.00000000000E+00  0.11266121559E+04  0.11266121559E+04  0.00000000000E+00 0.  1.
         21   -1    0    0  501  503 -0.00000000000E+00 -0.00000000000E+00 -0.38999498293E+02  0.38999498293E+02  0.00000000000E+00 0.  1.
          6    1    1    2  501    0 -0.56417168392E+02  0.13274355139E+02  0.25688309227E+03  0.31508257408E+03  0.17300000000E+03 0.  1.
         -6    1    1    2    0  502  0.56417168392E+02 -0.13274355139E+02  0.83072956534E+03  0.85052908012E+03  0.17300000000E+03 0.  1.
</event>
<event>
 4    1  0.5904698E+000  0.1000000E+03  0.7546771E-02  0.1280296E+00
         21   -1    0    0  503  502  0.00000000000E+00  0.00000000000E+00  0.80692069421E+03  0.80692069421E+03  0.00000000000E+00 0.  1.
         21   -1    0    0  501  503 -0.00000000000E+00 -0.00000000000E+00 -0.14912183205E+03  0.14912183205E+03  0.00000000000E+00 0.  1.
          6    1    1    2  501    0 -0.95008734400E+02 -0.26925989088E+03  0.45870551206E+03  0.56733349562E+03  0.17300000000E+03 0.  1.
         -6    1    1    2    0  502  0.95008734400E+02  0.26925989088E+03  0.19909335009E+03  0.38870903064E+03  0.17300000000E+03 0.  1.
</event>
<event>
 4    1  0.5904698E+000  0.1000000E+03  0.7546771E-02  0.1280296E+00
         21   -1    0    0  503  502  0.00000000000E+00  0.00000000000E+00  0.15130650004E+03  0.15130650004E+03  0.00000000000E+00 0.  1.
         21   -1    0    0  501  503 -0.00000000000E+00 -0.00000000000E+00 -0.48662228129E+03  0.48662228129E+03  0.00000000000E+00 0.  1.
          6    1    1    2  501    0 -0.35789146862E+02  0.83143694637E+02 -0.38915629113E+03  0.43539103794E+03  0.17300000000E+03 0.  1.
         -6    1    1    2    0  502  0.35789146862E+02 -0.83143694637E+02  0.53840509888E+02  0.20253774339E+03  0.17300000000E+03 0.  1.
</event>
<event>
 4    1  0.5904698E+000  0.1000000E+03  0.7546771E-02  0.1280296E+00
         21   -1    0    0  501  502  0.00000000000E+00  0.00000000000E+00  0.57929149946E+02  0.57929149946E+02  0.00000000000E+00 0.  1.
         21   -1    0    0  502  503 -0.00000000000E+00 -0.00000000000E+00 -0.74879859600E+03  0.74879859600E+03  0.00000000000E+00 0. -1.
          6    1    1    2  501    0 -0.42292563280E+02  0.37219143879E+01 -0.13643308518E+03  0.22437802987E+03  0.17300000000E+03 0.  1.
         -6    1    1    2    0  503  0.42292563280E+02 -0.37219143879E+01 -0.55443636088E+03  0.58234971608E+03  0.17300000000E+03 0. -1.
</event>
<event>
 4    1  0.5904698E+000  0.1000000E+03  0.7546771E-02  0.1280296E+00
         21   -1    0    0  501  502  0.00000000000E+00  0.00000000000E+00  0.11993652878E+04  0.11993652878E+04  0.00000000000E+00 0.  1.
         21   -1    0    0  502  503 -0.00000000000E+00 -0.00000000000E+00 -0.13077281292E+03  0.13077281292E+03  0.00000000000E+00 0. -1.
          6    1    1    2  501    0  0.21454310256E+03  0.22827563221E+03  0.24942145305E+03  0.43620931714E+03  0.17300000000E+03 0.  1.
         -6    1    1    2    0  503 -0.21454310256E+03 -0.22827563221E+03  0.81917102184E+03  0.89392878360E+03  0.17300000000E+03 0. -1.
</event>
<event>
 4    1  0.5904698E+000  0.1000000E+03  0.7546771E-02  0.1280296E+00
         21   -1    0    0  501  502  0.00000000000E+00  0.00000000000E+00  0.75702953800E+02  0.75702953800E+02  0.00000000000E+00 0. -1.
         21   -1    0    0  502  503 -0.00000000000E+00 -0.00000000000E+00 -0.49831002981E+03  0.49831002981E+03  0.00000000000E+00 0.  1.
          6    1    1    2  501    0  0.11631151139E+02  0.33959768810E+02 -0.92112873229E+02  0.19925443782E+03  0.17300000000E+03 0.  1.
         -6    1    1    2    0  503 -0.11631151139E+02 -0.33959768810E+02 -0.33049420278E+03  0.37475854579E+03  0.17300000000E+03 0. -1.
</event>
<event>
 4    1  0.5904698E+000  0.1000000E+03  0.7546771E-02  0.1280296E+00
         21   -1    0    0  501  502  0.00000000000E+00  0.00000000000E+00  0.97498961253E+02  0.97498961253E+02  0.00000000000E+00 0. -1.
         21   -1    0    0  502  503 -0.00000000000E+00 -0.00000000000E+00 -0.39999382272E+03  0.39999382272E+03  0.00000000000E+00 0.  1.
          6    1    1    2  501    0 -0.38256054777E+02 -0.83085381001E+02 -0.11784384882E+03  0.22843572174E+03  0.17300000000E+03 0.  1.
         -6    1    1    2    0  503  0.38256054777E+02  0.83085381001E+02 -0.18465101265E+03  0.26905706223E+03  0.17300000000E+03 0. -1.
</event>
<event>
 4    1  0.5904698E+000  0.1000000E+03  0.7546771E-02  0.1280296E+00
         21   -1    0    0  501  502  0.00000000000E+00  0.00000000000E+00  0.11121327129E+03  0.11121327129E+03  0.00000000000E+00 0. -1.
         21   -1    0    0  502  503 -0.00000000000E+00 -0.00000000000E+00 -0.56863706854E+03  0.56863706854E+03  0.00000000000E+00 0.  1.
          6    1    1    2  501    0 -0.65322760138E+02  0.16665878902E+03 -0.27686003719E+03  0.37232068858E+03  0.17300000000E+03 0.  1.
         -6    1    1    2    0  503  0.65322760138E+02 -0.16665878902E+03 -0.18056376007E+03  0.30752965125E+03  0.17300000000E+03 0. -1.
</event>
<event>
 4    1  0.5904698E+000  0.1000000E+03  0.7546771E-02  0.1280296E+00
         21   -1    0    0  503  502  0.00000000000E+00  0.00000000000E+00  0.30403509516E+02  0.30403509516E+02  0.00000000000E+00 0. -1.
         21   -1    0    0  501  503 -0.00000000000E+00 -0.00000000000E+00 -0.26333304459E+04  0.26333304459E+04  0.00000000000E+00 0.  1.
          6    1    1    2  501    0 -0.68766529996E+02 -0.14656240731E+03 -0.20295185358E+04  0.20433021954E+04  0.17300000000E+03 0.  1.
         -6    1    1    2    0  502  0.68766529996E+02  0.14656240731E+03 -0.57340840063E+03  0.62043175998E+03  0.17300000000E+03 0. -1.
</event>
<event>
 4    1  0.5904698E+000  0.1000000E+03  0.7546771E-02  0.1280296E+00
         21   -1    0    0  503  502  0.00000000000E+00  0.00000000000E+00  0.20166704933E+04  0.20166704933E+04  0.00000000000E+00 0.  1.
         21   -1    0    0  501  503 -0.00000000000E+00 -0.00000000000E+00 -0.23886716400E+02  0.23886716400E+02  0.00000000000E+00 0.  1.
          6    1    1    2  501    0  0.38713909687E+02  0.11651351463E+03  0.73472552552E+03  0.76473836293E+03  0.17300000000E+03 0.  1.
         -6    1    1    2    0  502 -0.38713909687E+02 -0.11651351463E+03  0.12580582514E+04  0.12758188467E+04  0.17300000000E+03 0.  1.
</event>
<event>
 4    1  0.5904698E+000  0.1000000E+03  0.7546771E-02  0.1280296E+00
         21   -1    0    0  501  502  0.00000000000E+00  0.00000000000E+00  0.67670696604E+03  0.67670696604E+03  0.00000000000E+00 0. -1.
         21   -1    0    0  502  503 -0.00000000000E+00 -0.00000000000E+00 -0.84290490894E+02  0.84290490894E+02  0.00000000000E+00 0. -1.
          6    1    1    2  501    0  0.29216783203E+02 -0.46186594379E+02  0.54365941163E+03  0.57313294947E+03  0.17300000000E+03 0. -1.
         -6    1    1    2    0  503 -0.29216783203E+02  0.46186594379E+02  0.48757063521E+02  0.18786450746E+03  0.17300000000E+03 0. -1.
</event>
<event>
 4    1  0.5904698E+000  0.1000000E+03  0.7546771E-02  0.1280296E+00
         21   -1    0    0  501  502  0.00000000000E+00  0.00000000000E+00  0.21311978540E+03  0.21311978540E+03  0.00000000000E+00 0. -1.
         21   -1    0    0  502  503 -0.00000000000E+00 -0.00000000000E+00 -0.52269712352E+03  0.52269712352E+03  0.00000000000E+00 0. -1.
          6    1    1    2  501    0 -0.53532894764E+02 -0.19682963073E+03  0.65287890012E+02  0.27531651411E+03  0.17300000000E+03 0. -1.
         -6    1    1    2    0  503  0.53532894764E+02  0.19682963073E+03 -0.37486522814E+03  0.46050039481E+03  0.17300000000E+03 0. -1.
</event>
<event>
 4    1  0.5904698E+000  0.1000000E+03  0.7546771E-02  0.1280296E+00
         21   -1    0    0  501  502  0.00000000000E+00  0.00000000000E+00  0.23637302412E+03  0.23637302412E+03  0.00000000000E+00 0. -1.
         21   -1    0    0  502  503 -0.00000000000E+00 -0.00000000000E+00 -0.57500520862E+03  0.57500520862E+03  0.00000000000E+00 0. -1.
          6    1    1    2  501    0  0.16287002879E+03  0.97280775811E+02  0.12182047021E+03  0.28418202368E+03  0.17300000000E+03 0. -1.
         -6    1    1    2    0  503 -0.16287002879E+03 -0.97280775811E+02 -0.46045265471E+03  0.52719620906E+03  0.17300000000E+03 0. -1.
</event>
<event>
 4    1  0.5904698E+000  0.1000000E+03  0.7546771E-02  0.1280296E+00
         21   -1    0    0  501  502  0.00000000000E+00  0.00000000000E+00  0.11120362256E+04  0.11120362256E+04  0.00000000000E+00 0.  1.
         21   -1    0    0  502  503 -0.00000000000E+00 -0.00000000000E+00 -0.93195830590E+02  0.93195830590E+02  0.00000000000E+00 0. -1.
          6    1    1    2  501    0 -0.12473771628E+03  0.15539893440E+03  0.85458081223E+03  0.89439683101E+03  0.17300000000E+03 0.  1.
         -6    1    1    2    0  503  0.12473771628E+03 -0.15539893440E+03  0.16425958275E+03  0.31083522516E+03  0.17300000000E+03 0. -1.
</event>
<event>
 4    1  0.5904698E+000  0.1000000E+03  0.7546771E-02  0.1280296E+00
         21   -1    0    0  501  502  0.00000000000E+00  0.00000000000E+00  0.39191671042E+03  0.39191671042E+03  0.00000000000E+00 0.  1.
         21   -1    0    0  502  503 -0.00000000000E+00 -0.00000000000E+00 -0.54663053018E+03  0.54663053018E+03  0.00000000000E+00 0. -1.
          6    1    1    2  501    0  0.35316114622E+03  0.85570081025E+02  0.15441743986E+03  0.43106702460E+03  0.17300000000E+03 0.  1.
         -6    1    1    2    0  503 -0.35316114622E+03 -0.85570081025E+02 -0.30913125962E+03  0.50748021601E+03  0.17300000000E+03 0. -1.
</event>
<event>
 4    1  0.5904698E+000  0.1000000E+03  0.7546771E-02  0.1280296E+00
         21   -1    0    0  501  502  0.00000000000E+00  0.00000000000E+00  0.11079383824E+04  0.11079383824E+04  0.00000000000E+00 0.  1.
         21   -1    0    0  502  503 -0.00000000000E+00 -0.00000000000E+00 -0.29583118119E+02  0.29583118119E+02  0.00000000000E+00 0. -1.
          6    1    1    2  501    0  0.51961768204E+02  0.10304653960E+02  0.55930854521E+03  0.58784458830E+03  0.17300000000E+03 0.  1.
         -6    1    1    2    0  503 -0.51961768204E+02 -0.10304653960E+02  0.51904671906E+03  0.54967691221E+03  0.17300000000E+03 0. -1.
</event>
<event>
 4    1  0.5904698E+000  0.1000000E+03  0.7546771E-02  0.1280296E+00
         21   -1    0    0  501  502  0.00000000000E+00  0.00000000000E+00  0.63453004659E+03  0.63453004659E+03  0.00000000000E+00 0. -1.
         21   -1    0    0  502  503 -0.00000000000E+00 -0.00000000000E+00 -0.53207007248E+02  0.53207007248E+02  0.00000000000E+00 0.  1.
          6    1    1    2  501    0 -0.34006800626E+02  0.15181298342E+02  0.38320944352E+03  0.42209644859E+03  0.17300000000E+03 0.  1.
         -6    1    1    2    0  503  0.34006800626E+02 -0.15181298342E+02  0.19811359582E+03  0.26564060525E+03  0.17300000000E+03 0.  1.
</event>
<event>
 4    1  0.5904698E+000  0.1000000E+03  0.7546771E-02  0.1280296E+00
         21   -1    0    0  501  502  0.00000000000E+00  0.00000000000E+00  0.22178833106E+03  0.22178833106E+03  0.00000000000E+00 0. -1.
         21   -1    0    0  502  503 -0.00000000000E+00 -0.00000000000E+00 -0.21594032833E+03  0.21594032833E+03  0.00000000000E+00 0. -1.
          6    1    1    2  501    0  0.94134130101E+02 -0.22935309472E+02  0.95543185504E+02  0.22010171096E+03  0.17300000000E+03 0. -1.
         -6    1    1    2    0  503 -0.94134130101E+02  0.22935309472E+02 -0.89695182772E+02  0.21762694843E+03  0.17300000000E+03 0. -1.
</event>
<event>
 4    1  0.5904698E+000  0.1000000E+03  0.7546771E-02  0.1280296E+00
         21   -1    0    0  501  502  0.00000000000E+00  0.00000000000E+00  0.26379915734E+03  0.26379915734E+03  0.00000000000E+00 0. -1.
         21   -1    0    0  502  503 -0.00000000000E+00 -0.00000000000E+00 -0.16918128664E+03  0.16918128664E+03  0.00000000000E+00 0. -1.
          6    1    1    2  501    0  0.74684114381E+02 -0.95029222826E+02  0.57170732308E+02  0.21864528983E+03  0.17300000000E+03 0. -1.
         -6    1    1    2    0  503 -0.74684114381E+02  0.95029222826E+02  0.37447138390E+02  0.21433515415E+03  0.17300000000E+03 0. -1.
</event>
<event>
 4    1  0.5904698E+000  0.1000000E+03  0.7546771E-02  0.1280296E+00
         21   -1    0    0  503  502  0.00000000000E+00  0.00000000000E+00  0.17369589093E+03  0.17369589093E+03  0.00000000000E+00 0. -1.
         21   -1    0    0  501  503 -0.00000000000E+00 -0.00000000000E+00 -0.30278997930E+03  0.30278997930E+03  0.00000000000E+00 0. -1.
          6    1    1    2  501    0 -0.40971206144E+02  0.63584974280E+02 -0.19976851246E+03  0.27487842268E+03  0.17300000000E+03 0. -1.
         -6    1    1    2    0  502  0.40971206144E+02 -0.63584974280E+02  0.70674424091E+02  0.20160744755E+03  0.17300000000E+03 0. -1.
</event>
<event>
 4    1  0.5904698E+000  0.1000000E+03  0.7546771E-02  0.1280296E+00
         21   -1    0    0  503  502  0.00000000000E+00  0.00000000000E+00  0.15328267750E+03  0.15328267750E+03  0.00000000000E+00 0. -1.
         21   -1    0    0  501  503 -0.00000000000E+00 -0.00000000000E+00 -0.27758031813E+03  0.27758031813E+03  0.00000000000E+00 0. -1.
          6    1    1    2  501    0 -0.50044611926E+02  0.76574297621E+02 -0.13024495623E+03  0.23507623202E+03  0.17300000000E+03 0. -1.
         -6    1    1    2    0  502  0.50044611926E+02 -0.76574297621E+02  0.59473155977E+01  0.19578676360E+03  0.17300000000E+03 0. -1.
</event>
<event>
 4    1  0.5904698E+000  0.1000000E+03  0.7546771E-02  0.1280296E+00
         21   -1    0    0  503  502  0.00000000000E+00  0.00000000000E+00  0.52037223322E+03  0.52037223322E+03  0.00000000000E+00 0. -1.
         21   -1    0    0  501  503 -0.00000000000E+00 -0.00000000000E+00 -0.49121669363E+03  0.49121669363E+03  0.00000000000E+00 0. -1.
          6    1    1    2  501    0 -0.24878423053E+03  0.91304223475E+02 -0.37986578168E+03  0.49442599717E+03  0.17300000000E+03 0. -1.
         -6    1    1    2    0  502  0.24878423053E+03 -0.91304223475E+02  0.40902132127E+03  0.51716292968E+03  0.17300000000E+03 0. -1.
</event>
<event>
 4    1  0.5904698E+000  0.1000000E+03  0.7546771E-02  0.1280296E+00
         21   -1    0    0  503  502  0.00000000000E+00  0.00000000000E+00  0.33697499971E+02  0.33697499971E+02  0.00000000000E+00 0. -1.
         21   -1    0    0  501  503 -0.00000000000E+00 -0.00000000000E+00 -0.15229813536E+04  0.15229813536E+04  0.00000000000E+00 0. -1.
          6    1    1    2  501    0 -0.54446831651E+01  0.99338963323E+02 -0.11129867102E+04  0.11307370566E+04  0.17300000000E+03 0. -1.
         -6    1    1    2    0  502  0.54446831651E+01 -0.99338963323E+02 -0.37629714344E+03  0.42594179693E+03  0.17300000000E+03 0. -1.
</event>
<event>
 4    1  0.5904698E+000  0.1000000E+03  0.7546771E-02  0.1280296E+00
         21   -1    0    0  503  502  0.00000000000E+00  0.00000000000E+00  0.12056063997E+04  0.12056063997E+04  0.00000000000E+00 0. -1.
         21   -1    0    0  501  503 -0.00000000000E+00 -0.00000000000E+00 -0.32828662792E+02  0.32828662792E+02  0.00000000000E+00 0. -1.
          6    1    1    2  501    0  0.38273083855E+02 -0.35100358146E+02  0.32685924873E+03  0.37344722862E+03  0.17300000000E+03 0. -1.
         -6    1    1    2    0  502 -0.38273083855E+02  0.35100358146E+02  0.84591848816E+03  0.86498783385E+03  0.17300000000E+03 0. -1.
</event>
<event>
 4    1  0.5904698E+000  0.1000000E+03  0.7546771E-02  0.1280296E+00
         21   -1    0    0  503  502  0.00000000000E+00  0.00000000000E+00  0.49451790823E+02  0.49451790823E+02  0.00000000000E+00 0.  1.
         21   -1    0    0  501  503 -0.00000000000E+00 -0.00000000000E+00 -0.82361081501E+03  0.82361081501E+03  0.00000000000E+00 0.  1.
          6    1    1    2  501    0  0.39326857022E+02 -0.75696947303E+02 -0.51547339961E+03  0.55038028237E+03  0.17300000000E+03 0.  1.
         -6    1    1    2    0  502 -0.39326857022E+02  0.75696947303E+02 -0.25868562458E+03  0.32268232346E+03  0.17300000000E+03 0.  1.
</event>
<event>
 4    1  0.5904698E+000  0.1000000E+03  0.7546771E-02  0.1280296E+00
         21   -1    0    0  503  502  0.00000000000E+00  0.00000000000E+00  0.95550964199E+02  0.95550964199E+02  0.00000000000E+00 0.  1.
         21   -1    0    0  501  503 -0.00000000000E+00 -0.00000000000E+00 -0.12511986876E+04  0.12511986876E+04  0.00000000000E+00 0.  1.
          6    1    1    2  501    0  0.15342068142E+03  0.87115637489E+02 -0.10488486285E+04  0.10775618243E+04  0.17300000000E+03 0.  1.
         -6    1    1    2    0  502 -0.15342068142E+03 -0.87115637489E+02 -0.10679909492E+03  0.26918782747E+03  0.17300000000E+03 0.  1.
</event>
<event>
 4    1  0.5904698E+000  0.1000000E+03  0.7546771E-02  0.1280296E+00
         21   -1    0    0  503  502  0.00000000000E+00  0.00000000000E+00  0.56632097634E+02  0.56632097634E+02  0.00000000000E+00 0.  1.
         21   -1    0    0  501  503 -0.00000000000E+00 -0.00000000000E+00 -0.11080416378E+04  0.11080416378E+04  0.00000000000E+00 0.  1.
          6    1    1    2  501    0 -0.15456661336E+02  0.57818168508E+01 -0.94511238530E+03  0.96095720957E+03  0.17300000000E+03 0.  1.
         -6    1    1    2    0  502  0.15456661336E+02 -0.57818168508E+01 -0.10629715492E+03  0.20371652591E+03  0.17300000000E+03 0.  1.
</event>
<event>
 4    1  0.5904698E+000  0.1000000E+03  0.7546771E-02  0.1280296E+00
         21   -1    0    0  503  502  0.00000000000E+00  0.00000000000E+00  0.52950878815E+03  0.52950878815E+03  0.00000000000E+00 0. -1.
         21   -1    0    0  501  503 -0.00000000000E+00 -0.00000000000E+00 -0.78908023667E+02  0.78908023667E+02  0.00000000000E+00 0.  1.
          6    1    1    2  501    0  0.19028721350E+02  0.79229933647E+02  0.11783705629E+03  0.22461978198E+03  0.17300000000E+03 0.  1.
         -6    1    1    2    0  502 -0.19028721350E+02 -0.79229933647E+02  0.33276370819E+03  0.38379702984E+03  0.17300000000E+03 0.  1.
</event>
<event>
 4    1  0.5904698E+000  0.1000000E+03  0.7546771E-02  0.1280296E+00
         21   -1    0    0  501  502  0.00000000000E+00  0.00000000000E+00  0.48153240749E+03  0.48153240749E+03  0.00000000000E+00 0.  1.
         21   -1    0    0  502  503 -0.00000000000E+00 -0.00000000000E+00 -0.15938206825E+03  0.15938206825E+03  0.00000000000E+00 0.  1.
          6    1    1    2  501    0  0.19869673282E+03  0.85644412040E+02  0.15898210454E+03  0.31940517609E+03  0.17300000000E+03 0.  1.
         -6    1    1    2    0  503 -0.19869673282E+03 -0.85644412040E+02  0.16316823470E+03  0.32150929965E+03  0.17300000000E+03 0.  1.
</event>
<event>
 4    1  0.5904698E+000  0.1000000E+03  0.7546771E-02  0.1280296E+00
         21   -1    0    0  501  502  0.00000000000E+00  0.00000000000E+00  0.21629920063E+02  0.21629920063E+02  0.00000000000E+00 0. -1.
         21   -1    0    0  502  503 -0.00000000000E+00 -0.00000000000E+00 -0.20085539622E+04  0.20085539622E+04  0.00000000000E+00 0. -1.
          6    1    1    2  501    0 -0.60656481352E+02  0.53661677185E+02 -0.58725297978E+03  0.61753853854E+03  0.17300000000E+03 0. -1.
         -6    1    1    2    0  503  0.60656481352E+02 -0.53661677185E+02 -0.13996710624E+04  0.14126453437E+04  0.17300000000E+03 0. -1.
</event>
<event>
 4    1  0.5904698E+000  0.1000000E+03  0.7546771E-02  0.1280296E+00
         21   -1    0    0  501  502  0.00000000000E+00  0.00000000000E+00  0.23118419418E+03  0.23118419418E+03  0.00000000000E+00 0. -1.
         21   -1    0    0  502  503 -0.00000000000E+00 -0.00000000000E+00 -0.57760893052E+03  0.57760893052E+03  0.00000000000E+00 0. -1.
          6    1    1    2  501    0  0.38400150336E+02 -0.34048338306E+02  0.17843727636E+03  0.25377691479E+03  0.17300000000E+03 0. -1.
         -6    1    1    2    0  503 -0.38400150336E+02  0.34048338306E+02 -0.52486201270E+03  0.55501620991E+03  0.17300000000E+03 0. -1.
</event>
<event>
 4    1  0.5904698E+000  0.1000000E+03  0.7546771E-02  0.1280296E+00
         21   -1    0    0  501  502  0.00000000000E+00  0.00000000000E+00  0.11144639567E+04  0.11144639567E+04  0.00000000000E+00 0. -1.
         21   -1    0    0  502  503 -0.00000000000E+00 -0.00000000000E+00 -0.64334738016E+02  0.64334738016E+02  0.00000000000E+00 0. -1.
          6    1    1    2  501    0 -0.21364360876E+02  0.17534926142E+03  0.75132476860E+03  0.79096251953E+03  0.17300000000E+03 0. -1.
         -6    1    1    2    0  503  0.21364360876E+02 -0.17534926142E+03  0.29880445013E+03  0.38783617523E+03  0.17300000000E+03 0. -1.
</event>
<event>
 4    1  0.5904698E+000  0.1000000E+03  0.7546771E-02  0.1280296E+00
         21   -1    0    0  503  502  0.00000000000E+00  0.00000000000E+00  0.90928900529E+03  0.90928900529E+03  0.00000000000E+00 0.  1.
         21   -1    0    0  501  503 -0.00000000000E+00 -0.00000000000E+00 -0.45738023990E+02  0.45738023990E+02  0.00000000000E+00 0.  1.
          6    1    1    2  501    0 -0.84465256640E+02 -0.41212113269E+02  0.30727266242E+03  0.36493603128E+03  0.17300000000E+03 0.  1.
         -6    1    1    2    0  502  0.84465256640E+02  0.41212113269E+02  0.55627831888E+03  0.59009099800E+03  0.17300000000E+03 0.  1.
</event>
<event>
 4    1  0.5904698E+000  0.1000000E+03  0.7546771E-02  0.1280296E+00
         21   -1    0    0  503  502  0.00000000000E+00  0.00000000000E+00  0.94749629754E+02  0.94749629754E+02  0.00000000000E+00 0.  1.
         21   -1    0    0  501  503 -0.00000000000E+00 -0.00000000000E+00 -0.18789255150E+04  0.18789255150E+04  0.00000000000E+00 0.  1.
          6    1    1    2  501    0 -0.24673973284E+02 -0.23648137431E+03 -0.15998216028E+04  0.16266193181E+04  0.17300000000E+03 0.  1.
         -6    1    1    2    0  502  0.24673973284E+02  0.23648137431E+03 -0.18435428252E+03  0.34705582669E+03  0.17300000000E+03 0.  1.
</event>
<event>
 4    1  0.5904698E+000  0.1000000E+03  0.7546771E-02  0.1280296E+00
         21   -1    0    0  503  502  0.00000000000E+00  0.00000000000E+00  0.60587148900E+03  0.60587148900E+03  0.00000000000E+00 0.  1.
         21   -1    0    0  501  503 -0.00000000000E+00 -0.00000000000E+00 -0.84954485950E+02  0.84954485950E+02  0.00000000000E+00 0.  1.
          6    1    1    2  501    0  0.11869654609E+03 -0.82566138163E+02  0.22204870047E+03  0.31645009497E+03  0.17300000000E+03 0.  1.
         -6    1    1    2    0  502 -0.11869654609E+03  0.82566138163E+02  0.29886830258E+03  0.37437587998E+03  0.17300000000E+03 0.  1.
</event>
<event>
 4    1  0.5904698E+000  0.1000000E+03  0.7546771E-02  0.1280296E+00
         21   -1    0    0  503  502  0.00000000000E+00  0.00000000000E+00  0.19615308603E+03  0.19615308603E+03  0.00000000000E+00 0.  1.
         21   -1    0    0  501  503 -0.00000000000E+00 -0.00000000000E+00 -0.34150046959E+03  0.34150046959E+03  0.00000000000E+00 0.  1.
          6    1    1    2  501    0 -0.77345549128E+02 -0.65048240292E+02 -0.24285074650E+03  0.31483184815E+03  0.17300000000E+03 0.  1.
         -6    1    1    2    0  502  0.77345549128E+02  0.65048240292E+02  0.97503362944E+02  0.22282170747E+03  0.17300000000E+03 0.  1.
</event>
<event>
 4    1  0.5904698E+000  0.1000000E+03  0.7546771E-02  0.1280296E+00
         21   -1    0    0  503  502  0.00000000000E+00  0.00000000000E+00  0.51504651829E+03  0.51504651829E+03  0.00000000000E+00 0.  1.
         21   -1    0    0  501  503 -0.00000000000E+00 -0.00000000000E+00 -0.71547173067E+02  0.71547173067E+02  0.00000000000E+00 0.  1.
          6    1    1    2  501    0 -0.69718181128E+02  0.45358312345E+02  0.21905042966E+03  0.29125605918E+03  0.17300000000E+03 0.  1.
         -6    1    1    2    0  502  0.69718181128E+02 -0.45358312345E+02  0.22444891557E+03  0.29533763217E+03  0.17300000000E+03 0.  1.
</event>
<event>
 4    1  0.5904698E+000  0.1000000E+03  0.7546771E-02  0.1280296E+00
         21   -1    0    0  501  502  0.00000000000E+00  0.00000000000E+00  0.12535985913E+04  0.12535985913E+04  0.00000000000E+00 0. -1.
         21   -1    0    0  502  503 -0.00000000000E+00 -0.00000000000E+00 -0.38679587683E+02  0.38679587683E+02  0.00000000000E+00 0.  1.
          6    1    1    2  501    0 -0.65306882607E+02  0.94423104957E+01  0.95719086274E+03  0.97493461004E+03  0.17300000000E+03 0.  1.
         -6    1    1    2    0  503  0.65306882607E+02 -0.94423104957E+01  0.25772814084E+03  0.31734356890E+03  0.17300000000E+03 0.  1.
</event>
<event>
 4    1  0.5904698E+000  0.1000000E+03  0.7546771E-02  0.1280296E+00
         21   -1    0    0  501  502  0.00000000000E+00  0.00000000000E+00  0.72060795646E+03  0.72060795646E+03  0.00000000000E+00 0. -1.
         21   -1    0    0  502  503 -0.00000000000E+00 -0.00000000000E+00 -0.78637879818E+02  0.78637879818E+02  0.00000000000E+00 0.  1.
          6    1    1    2  501    0  0.14460356452E+03 -0.76071343124E+02  0.33173972955E+03  0.40826129902E+03  0.17300000000E+03 0.  1.
         -6    1    1    2    0  503 -0.14460356452E+03  0.76071343124E+02  0.31023034710E+03  0.39098453726E+03  0.17300000000E+03 0.  1.
</event>
<event>
 4    1  0.5904698E+000  0.1000000E+03  0.7546771E-02  0.1280296E+00
         21   -1    0    0  501  502  0.00000000000E+00  0.00000000000E+00  0.16467325653E+02  0.16467325653E+02  0.00000000000E+00 0. -1.
         21   -1    0    0  502  503 -0.00000000000E+00 -0.00000000000E+00 -0.26621986781E+04  0.26621986781E+04  0.00000000000E+00 0.  1.
          6    1    1    2  501    0 -0.79509307926E+01 -0.10092564173E+03 -0.93582018601E+03  0.95704630139E+03  0.17300000000E+03 0.  1.
         -6    1    1    2    0  503  0.79509307926E+01  0.10092564173E+03 -0.17099111664E+04  0.17216197024E+04  0.17300000000E+03 0.  1.
</event>
<event>
 4    1  0.5904698E+000  0.1000000E+03  0.7546771E-02  0.1280296E+00
         21   -1    0    0  503  502  0.00000000000E+00  0.00000000000E+00  0.76200406074E+02  0.76200406074E+02  0.00000000000E+00 0. -1.
         21   -1    0    0  501  503 -0.00000000000E+00 -0.00000000000E+00 -0.13433484125E+04  0.13433484125E+04  0.00000000000E+00 0. -1.
          6    1    1    2  501    0 -0.40303378267E+01  0.16607842569E+01 -0.12305593970E+04  0.12426682709E+04  0.17300000000E+03 0. -1.
         -6    1    1    2    0  502  0.40303378267E+01 -0.16607842569E+01 -0.36588609437E+02  0.17688054774E+03  0.17300000000E+03 0. -1.
</event>
<event>
 4    1  0.5904698E+000  0.1000000E+03  0.7546771E-02  0.1280296E+00
         21   -1    0    0  501  502  0.00000000000E+00  0.00000000000E+00  0.48043657325E+03  0.48043657325E+03  0.00000000000E+00 0.  1.
         21   -1    0    0  502  503 -0.00000000000E+00 -0.00000000000E+00 -0.17447310073E+03  0.17447310073E+03  0.00000000000E+00 0. -1.
          6    1    1    2  501    0  0.14253178299E+03  0.10807852590E+03  0.32034925758E+03  0.40564630376E+03  0.17300000000E+03 0. -1.
         -6    1    1    2    0  503 -0.14253178299E+03 -0.10807852590E+03 -0.14385785062E+02  0.24926337022E+03  0.17300000000E+03 0.  1.
</event>
<event>
 4    1  0.5904698E+000  0.1000000E+03  0.7546771E-02  0.1280296E+00
         21   -1    0    0  501  502  0.00000000000E+00  0.00000000000E+00  0.56200298300E+02  0.56200298300E+02  0.00000000000E+00 0.  1.
         21   -1    0    0  502  503 -0.00000000000E+00 -0.00000000000E+00 -0.58913156564E+03  0.58913156564E+03  0.00000000000E+00 0. -1.
          6    1    1    2  501    0  0.53709259722E+02  0.10994761494E+02 -0.24302070983E+03  0.30330452480E+03  0.17300000000E+03 0. -1.
         -6    1    1    2    0  503 -0.53709259722E+02 -0.10994761494E+02 -0.28991055751E+03  0.34202733914E+03  0.17300000000E+03 0.  1.
</event>
<event>
 4    1  0.5904698E+000  0.1000000E+03  0.7546771E-02  0.1280296E+00
         21   -1    0    0  501  502  0.00000000000E+00  0.00000000000E+00  0.20119959503E+04  0.20119959503E+04  0.00000000000E+00 0.  1.
         21   -1    0    0  502  503 -0.00000000000E+00 -0.00000000000E+00 -0.44178194907E+02  0.44178194907E+02  0.00000000000E+00 0. -1.
          6    1    1    2  501    0 -0.18639633863E+03  0.12212759124E+03  0.13164315627E+04  0.13463208395E+04  0.17300000000E+03 0. -1.
         -6    1    1    2    0  503  0.18639633863E+03 -0.12212759124E+03  0.65138619274E+03  0.70985330576E+03  0.17300000000E+03 0.  1.
</event>
<event>
 4    1  0.5904698E+000  0.1000000E+03  0.7546771E-02  0.1280296E+00
         21   -1    0    0  503  502  0.00000000000E+00  0.00000000000E+00  0.96817602789E+02  0.96817602789E+02  0.00000000000E+00 0. -1.
         21   -1    0    0  501  503 -0.00000000000E+00 -0.00000000000E+00 -0.49662229190E+03  0.49662229190E+03  0.00000000000E+00 0. -1.
          6    1    1    2  501    0  0.15915781945E+02 -0.10054239345E+03 -0.31934090799E+03  0.37718655929E+03  0.17300000000E+03 0. -1.
         -6    1    1    2    0  502 -0.15915781945E+02  0.10054239345E+03 -0.80463781117E+02  0.21625333539E+03  0.17300000000E+03 0. -1.
</event>
<event>
 4    1  0.5904698E+000  0.1000000E+03  0.7546771E-02  0.1280296E+00
         21   -1    0    0  503  502  0.00000000000E+00  0.00000000000E+00  0.22398434582E+03  0.22398434582E+03  0.00000000000E+00 0. -1.
         21   -1    0    0  501  503 -0.00000000000E+00 -0.00000000000E+00 -0.56884341127E+03  0.56884341127E+03  0.00000000000E+00 0. -1.
          6    1    1    2  501    0 -0.59826276130E+02 -0.46628590851E+02 -0.50878494959E+03  0.54271957191E+03  0.17300000000E+03 0. -1.
         -6    1    1    2    0  502  0.59826276130E+02  0.46628590851E+02  0.16392588415E+03  0.25010818518E+03  0.17300000000E+03 0. -1.
</event>
<event>
 4    1  0.5904698E+000  0.1000000E+03  0.7546771E-02  0.1280296E+00
         21   -1    0    0  503  502  0.00000000000E+00  0.00000000000E+00  0.99720447299E+02  0.99720447299E+02  0.00000000000E+00 0. -1.
         21   -1    0    0  501  503 -0.00000000000E+00 -0.00000000000E+00 -0.37636501480E+03  0.37636501480E+03  0.00000000000E+00 0. -1.
          6    1    1    2  501    0 -0.65743594281E+02  0.21201494149E+01 -0.20864599688E+03  0.27890655646E+03  0.17300000000E+03 0. -1.
         -6    1    1    2    0  502  0.65743594281E+02 -0.21201494149E+01 -0.67998570621E+02  0.19717890564E+03  0.17300000000E+03 0. -1.
</event>
<event>
 4    1  0.5904698E+000  0.1000000E+03  0.7546771E-02  0.1280296E+00
         21   -1    0    0  501  502  0.00000000000E+00  0.00000000000E+00  0.19640314224E+03  0.19640314224E+03  0.00000000000E+00 0. -1.
         21   -1    0    0  502  503 -0.00000000000E+00 -0.00000000000E+00 -0.20678485378E+03  0.20678485378E+03  0.00000000000E+00 0. -1.
          6    1    1    2  501    0  0.35883855277E+02  0.68736897659E+02  0.63182255860E+02  0.19983345472E+03  0.17300000000E+03 0. -1.
         -6    1    1    2    0  503 -0.35883855277E+02 -0.68736897659E+02 -0.73563967398E+02  0.20335454130E+03  0.17300000000E+03 0. -1.
</event>
<event>
 4    1  0.5904698E+000  0.1000000E+03  0.7546771E-02  0.1280296E+00
         21   -1    0    0  501  502  0.00000000000E+00  0.00000000000E+00  0.43820362371E+03  0.43820362371E+03  0.00000000000E+00 0. -1.
         21   -1    0    0  502  503 -0.00000000000E+00 -0.00000000000E+00 -0.13209618866E+03  0.13209618866E+03  0.00000000000E+00 0. -1.
          6    1    1    2  501    0 -0.88675748022E+02  0.13738929160E+03  0.19439688812E+03  0.30734078129E+03  0.17300000000E+03 0. -1.
         -6    1    1    2    0  503  0.88675748022E+02 -0.13738929160E+03  0.11171054693E+03  0.26295903108E+03  0.17300000000E+03 0. -1.
</event>
<event>
 4    1  0.5904698E+000  0.1000000E+03  0.7546771E-02  0.1280296E+00
         21   -1    0    0  501  502  0.00000000000E+00  0.00000000000E+00  0.17653240504E+03  0.17653240504E+03  0.00000000000E+00 0. -1.
         21   -1    0    0  502  503 -0.00000000000E+00 -0.00000000000E+00 -0.41840795139E+03  0.41840795139E+03  0.00000000000E+00 0. -1.
          6    1    1    2  501    0 -0.66338291787E+02  0.10069947849E+03  0.66712341405E+02  0.22118022159E+03  0.17300000000E+03 0. -1.
         -6    1    1    2    0  503  0.66338291787E+02 -0.10069947849E+03 -0.30858788776E+03  0.37376013484E+03  0.17300000000E+03 0. -1.
</event>
<event>
 4    1  0.5904698E+000  0.1000000E+03  0.7546771E-02  0.1280296E+00
         21   -1    0    0  501  502  0.00000000000E+00  0.00000000000E+00  0.83087019765E+02  0.83087019765E+02  0.00000000000E+00 0. -1.
         21   -1    0    0  502  503 -0.00000000000E+00 -0.00000000000E+00 -0.53293470815E+03  0.53293470815E+03  0.00000000000E+00 0. -1.
          6    1    1    2  501    0  0.60044171036E+02  0.33590874322E+02 -0.36846921400E+03  0.41283436265E+03  0.17300000000E+03 0. -1.
         -6    1    1    2    0  503 -0.60044171036E+02 -0.33590874322E+02 -0.81378474386E+02  0.20318736527E+03  0.17300000000E+03 0. -1.
</event>
<event>
 4    1  0.5904698E+000  0.1000000E+03  0.7546771E-02  0.1280296E+00
         21   -1    0    0  501  502  0.00000000000E+00  0.00000000000E+00  0.33867227557E+02  0.33867227557E+02  0.00000000000E+00 0.  1.
         21   -1    0    0  502  503 -0.00000000000E+00 -0.00000000000E+00 -0.17661288551E+04  0.17661288551E+04  0.00000000000E+00 0.  1.
          6    1    1    2  501    0 -0.12538467509E+03 -0.59898981016E+02 -0.48769279180E+03  0.53580076880E+03  0.17300000000E+03 0.  1.
         -6    1    1    2    0  503  0.12538467509E+03  0.59898981016E+02 -0.12445688358E+04  0.12641953139E+04  0.17300000000E+03 0.  1.
</event>
<event>
 4    1  0.5904698E+000  0.1000000E+03  0.7546771E-02  0.1280296E+00
         21   -1    0    0  501  502  0.00000000000E+00  0.00000000000E+00  0.37308668358E+03  0.37308668358E+03  0.00000000000E+00 0.  1.
         21   -1    0    0  502  503 -0.00000000000E+00 -0.00000000000E+00 -0.13011581229E+03  0.13011581229E+03  0.00000000000E+00 0.  1.
          6    1    1    2  501    0 -0.97588970403E+01  0.84684219965E+02 -0.16629816432E+00  0.19286181799E+03  0.17300000000E+03 0.  1.
         -6    1    1    2    0  503  0.97588970403E+01 -0.84684219965E+02  0.24313716945E+03  0.31034067788E+03  0.17300000000E+03 0.  1.
</event>
<event>
 4    1  0.5904698E+000  0.1000000E+03  0.7546771E-02  0.1280296E+00
         21   -1    0    0  501  502  0.00000000000E+00  0.00000000000E+00  0.30077356480E+03  0.30077356480E+03  0.00000000000E+00 0.  1.
         21   -1    0    0  502  503 -0.00000000000E+00 -0.00000000000E+00 -0.17825629120E+03  0.17825629120E+03  0.00000000000E+00 0.  1.
          6    1    1    2  501    0  0.13380327068E+03 -0.45939357493E+02  0.12394080977E+03  0.25554659876E+03  0.17300000000E+03 0.  1.
         -6    1    1    2    0  503 -0.13380327068E+03  0.45939357493E+02 -0.14235361623E+01  0.22348325724E+03  0.17300000000E+03 0.  1.
</event>
<event>
 4    1  0.5904698E+000  0.1000000E+03  0.7546771E-02  0.1280296E+00
         21   -1    0    0  501  502  0.00000000000E+00  0.00000000000E+00  0.72779048187E+03  0.72779048187E+03  0.00000000000E+00 0.  1.
         21   -1    0    0  502  503 -0.00000000000E+00 -0.00000000000E+00 -0.60428721769E+02  0.60428721769E+02  0.00000000000E+00 0.  1.
          6    1    1    2  501    0 -0.10056887052E+03 -0.45175721634E+02  0.41549996013E+03  0.46338338383E+03  0.17300000000E+03 0.  1.
         -6    1    1    2    0  503  0.10056887052E+03  0.45175721634E+02  0.25186179997E+03  0.32483581980E+03  0.17300000000E+03 0.  1.
</event>
<event>
 4    1  0.5904698E+000  0.1000000E+03  0.7546771E-02  0.1280296E+00
         21   -1    0    0  501  502  0.00000000000E+00  0.00000000000E+00  0.48040816279E+03  0.48040816279E+03  0.00000000000E+00 0.  1.
         21   -1    0    0  502  503 -0.00000000000E+00 -0.00000000000E+00 -0.32041661472E+03  0.32041661472E+03  0.00000000000E+00 0.  1.
          6    1    1    2  501    0  0.82344143696E+02 -0.15173303883E+03  0.39322790078E+03  0.46299098806E+03  0.17300000000E+03 0.  1.
         -6    1    1    2    0  503 -0.82344143696E+02  0.15173303883E+03 -0.23323635271E+03  0.33783378946E+03  0.17300000000E+03 0.  1.
</event>
<event>
 4    1  0.5904698E+000  0.1000000E+03  0.7546771E-02  0.1280296E+00
         21   -1    0    0  503  502  0.00000000000E+00  0.00000000000E+00  0.70859336426E+03  0.70859336426E+03  0.00000000000E+00 0.  1.
         21   -1    0    0  501  503 -0.00000000000E+00 -0.00000000000E+00 -0.21043159535E+03  0.21043159535E+03  0.00000000000E+00 0.  1.
          6    1    1    2  501    0  0.50810058122E+02 -0.17765611761E+03 -0.97935518759E+02  0.27141061874E+03  0.17300000000E+03 0.  1.
         -6    1    1    2    0  502 -0.50810058122E+02  0.17765611761E+03  0.59609728767E+03  0.64761434087E+03  0.17300000000E+03 0.  1.
</event>
<event>
 4    1  0.5904698E+000  0.1000000E+03  0.7546771E-02  0.1280296E+00
         21   -1    0    0  503  502  0.00000000000E+00  0.00000000000E+00  0.14645055812E+03  0.14645055812E+03  0.00000000000E+00 0.  1.
         21   -1    0    0  501  503 -0.00000000000E+00 -0.00000000000E+00 -0.26160281115E+03  0.26160281115E+03  0.00000000000E+00 0.  1.
          6    1    1    2  501    0 -0.12534327395E+02 -0.68324069071E+02  0.45963542678E+01  0.18648167269E+03  0.17300000000E+03 0.  1.
         -6    1    1    2    0  502  0.12534327395E+02  0.68324069071E+02 -0.11974860730E+03  0.22157169658E+03  0.17300000000E+03 0.  1.
</event>
<event>
 4    1  0.5904698E+000  0.1000000E+03  0.7546771E-02  0.1280296E+00
         21   -1    0    0  503  502  0.00000000000E+00  0.00000000000E+00  0.53463450128E+03  0.53463450128E+03  0.00000000000E+00 0. -1.
         21   -1    0    0  501  503 -0.00000000000E+00 -0.00000000000E+00 -0.12202401548E+03  0.12202401548E+03  0.00000000000E+00 0. -1.
          6    1    1    2  501    0 -0.99172612267E+02 -0.14234177160E+02  0.19558526607E+01  0.19992659699E+03  0.17300000000E+03 0. -1.
         -6    1    1    2    0  502  0.99172612267E+02  0.14234177160E+02  0.41065463314E+03  0.45673191977E+03  0.17300000000E+03 0. -1.
</event>
<event>
 4    1  0.5904698E+000  0.1000000E+03  0.7546771E-02  0.1280296E+00
         21   -1    0    0  503  502  0.00000000000E+00  0.00000000000E+00  0.31299974019E+03  0.31299974019E+03  0.00000000000E+00 0. -1.
         21   -1    0    0  501  503 -0.00000000000E+00 -0.00000000000E+00 -0.15453112671E+03  0.15453112671E+03  0.00000000000E+00 0. -1.
          6    1    1    2  501    0  0.32754422806E+02  0.95258385153E+02 -0.17556687413E+02  0.20095832759E+03  0.17300000000E+03 0. -1.
         -6    1    1    2    0  502 -0.32754422806E+02 -0.95258385153E+02  0.17602530090E+03  0.26657253931E+03  0.17300000000E+03 0. -1.
</event>
<event>
 4    1  0.5904698E+000  0.1000000E+03  0.7546771E-02  0.1280296E+00
         21   -1    0    0  503  502  0.00000000000E+00  0.00000000000E+00  0.16280422018E+04  0.16280422018E+04  0.00000000000E+00 0. -1.
         21   -1    0    0  501  503 -0.00000000000E+00 -0.00000000000E+00 -0.50804586338E+02  0.50804586338E+02  0.00000000000E+00 0. -1.
          6    1    1    2  501    0  0.54874957996E+02  0.17611420711E+03  0.38889361981E+03  0.46389085192E+03  0.17300000000E+03 0. -1.
         -6    1    1    2    0  502 -0.54874957996E+02 -0.17611420711E+03  0.11883439957E+04  0.12149559362E+04  0.17300000000E+03 0. -1.
</event>
<event>
 4    1  0.5904698E+000  0.1000000E+03  0.7546771E-02  0.1280296E+00
         21   -1    0    0  503  502  0.00000000000E+00  0.00000000000E+00  0.40229659760E+03  0.40229659760E+03  0.00000000000E+00 0.  1.
         21   -1    0    0  501  503 -0.00000000000E+00 -0.00000000000E+00 -0.21226758180E+03  0.21226758180E+03  0.00000000000E+00 0. -1.
          6    1    1    2  501    0  0.12149752311E+03 -0.21195639498E+02 -0.11596006277E+03  0.24204677113E+03  0.17300000000E+03 0. -1.
         -6    1    1    2    0  502 -0.12149752311E+03  0.21195639498E+02  0.30598907857E+03  0.37251740827E+03  0.17300000000E+03 0.  1.
</event>
<event>
 4    1  0.5904698E+000  0.1000000E+03  0.7546771E-02  0.1280296E+00
         21   -1    0    0  503  502  0.00000000000E+00  0.00000000000E+00  0.14757480328E+03  0.14757480328E+03  0.00000000000E+00 0.  1.
         21   -1    0    0  501  503 -0.00000000000E+00 -0.00000000000E+00 -0.54813725030E+03  0.54813725030E+03  0.00000000000E+00 0. -1.
          6    1    1    2  501    0  0.92727259975E+02  0.45055601562E+02 -0.44591260366E+03  0.48928049427E+03  0.17300000000E+03 0. -1.
         -6    1    1    2    0  502 -0.92727259975E+02 -0.45055601562E+02  0.45350156635E+02  0.20643155932E+03  0.17300000000E+03 0.  1.
</event>
<event>
 4    1  0.5904698E+000  0.1000000E+03  0.7546771E-02  0.1280296E+00
         21   -1    0    0  503  502  0.00000000000E+00  0.00000000000E+00  0.77465722924E+02  0.77465722924E+02  0.00000000000E+00 0.  1.
         21   -1    0    0  501  503 -0.00000000000E+00 -0.00000000000E+00 -0.11681577047E+04  0.11681577047E+04  0.00000000000E+00 0. -1.
          6    1    1    2  501    0 -0.36603263875E+02 -0.10271216366E+03 -0.10021163881E+04  0.10227687143E+04  0.17300000000E+03 0. -1.
         -6    1    1    2    0  502  0.36603263875E+02  0.10271216366E+03 -0.88575593674E+02  0.22285471340E+03  0.17300000000E+03 0.  1.
</event>
<event>
 4    1  0.5904698E+000  0.1000000E+03  0.7546771E-02  0.1280296E+00
         21   -1    0    0  503  502  0.00000000000E+00  0.00000000000E+00  0.81099047751E+02  0.81099047751E+02  0.00000000000E+00 0.  1.
         21   -1    0    0  501  503 -0.00000000000E+00 -0.00000000000E+00 -0.53773740260E+03  0.53773740260E+03  0.00000000000E+00 0. -1.
          6    1    1    2  501    0  0.13526659400E+01 -0.17164257995E+02 -0.39973652675E+03  0.43590679311E+03  0.17300000000E+03 0. -1.
         -6    1    1    2    0  502 -0.13526659400E+01  0.17164257995E+02 -0.56901828093E+02  0.18292965724E+03  0.17300000000E+03 0.  1.
</event>
<event>
 4    1  0.5904698E+000  0.1000000E+03  0.7546771E-02  0.1280296E+00
         21   -1    0    0  503  502  0.00000000000E+00  0.00000000000E+00  0.22537064900E+03  0.22537064900E+03  0.00000000000E+00 0.  1.
         21   -1    0    0  501  503 -0.00000000000E+00 -0.00000000000E+00 -0.16428651923E+03  0.16428651923E+03  0.00000000000E+00 0.  1.
          6    1    1    2  501    0 -0.56341911776E+02 -0.55350238430E+02  0.87855930662E+00  0.19017842092E+03  0.17300000000E+03 0. -1.
         -6    1    1    2    0  502  0.56341911776E+02  0.55350238430E+02  0.60205570462E+02  0.19947874732E+03  0.17300000000E+03 0. -1.
</event>
<event>
 4    1  0.5904698E+000  0.1000000E+03  0.7546771E-02  0.1280296E+00
         21   -1    0    0  503  502  0.00000000000E+00  0.00000000000E+00  0.23325258295E+03  0.23325258295E+03  0.00000000000E+00 0.  1.
         21   -1    0    0  501  503 -0.00000000000E+00 -0.00000000000E+00 -0.46438911940E+03  0.46438911940E+03  0.00000000000E+00 0.  1.
          6    1    1    2  501    0  0.11191440763E+03 -0.15241442604E+03 -0.33441308308E+03  0.42132659783E+03  0.17300000000E+03 0. -1.
         -6    1    1    2    0  502 -0.11191440763E+03  0.15241442604E+03  0.10327654663E+03  0.27631510452E+03  0.17300000000E+03 0. -1.
</event>
<event>
 4    1  0.5904698E+000  0.1000000E+03  0.7546771E-02  0.1280296E+00
         21   -1    0    0  503  502  0.00000000000E+00  0.00000000000E+00  0.16716176498E+04  0.16716176498E+04  0.00000000000E+00 0. -1.
         21   -1    0    0  501  503 -0.00000000000E+00 -0.00000000000E+00 -0.38579211356E+02  0.38579211356E+02  0.00000000000E+00 0.  1.
          6    1    1    2  501    0 -0.84904236111E+02  0.15022690083E+03  0.10494137374E+04  0.10774855189E+04  0.17300000000E+03 0.  1.
         -6    1    1    2    0  502  0.84904236111E+02 -0.15022690083E+03  0.58362470106E+03  0.63271134235E+03  0.17300000000E+03 0. -1.
</event>
<event>
 4    1  0.5904698E+000  0.1000000E+03  0.7546771E-02  0.1280296E+00
         21   -1    0    0  503  502  0.00000000000E+00  0.00000000000E+00  0.55261709401E+03  0.55261709401E+03  0.00000000000E+00 0. -1.
         21   -1    0    0  501  503 -0.00000000000E+00 -0.00000000000E+00 -0.94337547707E+02  0.94337547707E+02  0.00000000000E+00 0.  1.
          6    1    1    2  501    0  0.94145077189E+02 -0.10944693771E+03  0.17686208774E+03  0.28644567689E+03  0.17300000000E+03 0.  1.
         -6    1    1    2    0  502 -0.94145077189E+02  0.10944693771E+03  0.28141745857E+03  0.36050896482E+03  0.17300000000E+03 0. -1.
</event>
<event>
 4    1  0.5904698E+000  0.1000000E+03  0.7546771E-02  0.1280296E+00
         21   -1    0    0  503  502  0.00000000000E+00  0.00000000000E+00  0.23060308015E+03  0.23060308015E+03  0.00000000000E+00 0. -1.
         21   -1    0    0  501  503 -0.00000000000E+00 -0.00000000000E+00 -0.71785763303E+03  0.71785763303E+03  0.00000000000E+00 0.  1.
          6    1    1    2  501    0  0.14649566368E+03  0.29338867324E+03 -0.43891919851E+03  0.57455805266E+03  0.17300000000E+03 0.  1.
         -6    1    1    2    0  502 -0.14649566368E+03 -0.29338867324E+03 -0.48335354371E+02  0.37390266052E+03  0.17300000000E+03 0. -1.
</event>
<event>
 4    1  0.5904698E+000  0.1000000E+03  0.7546771E-02  0.1280296E+00
         21   -1    0    0  501  502  0.00000000000E+00  0.00000000000E+00  0.67992960421E+02  0.67992960421E+02  0.00000000000E+00 0. -1.
         21   -1    0    0  502  503 -0.00000000000E+00 -0.00000000000E+00 -0.15113671197E+04  0.15113671197E+04  0.00000000000E+00 0.  1.
          6    1    1    2  501    0 -0.15293176387E+03 -0.86157424211E+01 -0.12690432619E+04  0.12899078091E+04  0.17300000000E+03 0. -1.
         -6    1    1    2    0  503  0.15293176387E+03  0.86157424211E+01 -0.17433089739E+03  0.28945227103E+03  0.17300000000E+03 0.  1.
</event>
<event>
 4    1  0.5904698E+000  0.1000000E+03  0.7546771E-02  0.1280296E+00
         21   -1    0    0  501  502  0.00000000000E+00  0.00000000000E+00  0.60837076577E+03  0.60837076577E+03  0.00000000000E+00 0. -1.
         21   -1    0    0  502  503 -0.00000000000E+00 -0.00000000000E+00 -0.61245773077E+02  0.61245773077E+02  0.00000000000E+00 0.  1.
          6    1    1    2  501    0  0.46520166157E+02  0.28891050264E+02  0.38772780947E+03  0.42808956175E+03  0.17300000000E+03 0. -1.
         -6    1    1    2    0  503 -0.46520166157E+02 -0.28891050264E+02  0.15939718322E+03  0.24152697709E+03  0.17300000000E+03 0.  1.
</event>
<event>
 4    1  0.5904698E+000  0.1000000E+03  0.7546771E-02  0.1280296E+00
         21   -1    0    0  503  502  0.00000000000E+00  0.00000000000E+00  0.22326519020E+03  0.22326519020E+03  0.00000000000E+00 0.  1.
         21   -1    0    0  501  503 -0.00000000000E+00 -0.00000000000E+00 -0.16643370880E+03  0.16643370880E+03  0.00000000000E+00 0.  1.
          6    1    1    2  501    0  0.32380821154E+02 -0.66229042367E+02 -0.14410140375E+02  0.18860396543E+03  0.17300000000E+03 0.  1.
         -6    1    1    2    0  502 -0.32380821154E+02  0.66229042367E+02  0.71241621782E+02  0.20109493357E+03  0.17300000000E+03 0.  1.
</event>
<event>
 4    1  0.5904698E+000  0.1000000E+03  0.7546771E-02  0.1280296E+00
         21   -1    0    0  501  502  0.00000000000E+00  0.00000000000E+00  0.10857944560E+03  0.10857944560E+03  0.00000000000E+00 0.  1.
         21   -1    0    0  502  503 -0.00000000000E+00 -0.00000000000E+00 -0.90655690694E+03  0.90655690694E+03  0.00000000000E+00 0. -1.
          6    1    1    2  501    0  0.56184955336E+02 -0.32402271097E+01  0.14537718588E+02  0.18250368089E+03  0.17300000000E+03 0.  1.
         -6    1    1    2    0  503 -0.56184955336E+02  0.32402271097E+01 -0.81251517993E+03  0.83263267164E+03  0.17300000000E+03 0. -1.
</event>
<event>
 4    1  0.5904698E+000  0.1000000E+03  0.7546771E-02  0.1280296E+00
         21   -1    0    0  501  502  0.00000000000E+00  0.00000000000E+00  0.33305693584E+03  0.33305693584E+03  0.00000000000E+00 0.  1.
         21   -1    0    0  502  503 -0.00000000000E+00 -0.00000000000E+00 -0.11556845579E+03  0.11556845579E+03  0.00000000000E+00 0.  1.
          6    1    1    2  501    0  0.87753837442E+02 -0.28408401684E+02  0.11715399990E+03  0.22838965161E+03  0.17300000000E+03 0.  1.
         -6    1    1    2    0  503 -0.87753837442E+02  0.28408401684E+02  0.10033448015E+03  0.22023574001E+03  0.17300000000E+03 0.  1.
</event>
<event>
 4    1  0.5904698E+000  0.1000000E+03  0.7546771E-02  0.1280296E+00
         21   -1    0    0  503  502  0.00000000000E+00  0.00000000000E+00  0.52688454552E+02  0.52688454552E+02  0.00000000000E+00 0.  1.
         21   -1    0    0  501  503 -0.00000000000E+00 -0.00000000000E+00 -0.87903831250E+03  0.87903831250E+03  0.00000000000E+00 0. -1.
          6    1    1    2  501    0  0.96737204866E+02  0.66527647707E+02 -0.52359895168E+03  0.56379861379E+03  0.17300000000E+03 0. -1.
         -6    1    1    2    0  502 -0.96737204866E+02 -0.66527647707E+02 -0.30275090627E+03  0.36792815326E+03  0.17300000000E+03 0.  1.
</event>
<event>
 4    1  0.5904698E+000  0.1000000E+03  0.7546771E-02  0.1280296E+00
         21   -1    0    0  503  502  0.00000000000E+00  0.00000000000E+00  0.36591495414E+03  0.36591495414E+03  0.00000000000E+00 0.  1.
         21   -1    0    0  501  503 -0.00000000000E+00 -0.00000000000E+00 -0.12105522454E+03  0.12105522454E+03  0.00000000000E+00 0. -1.
          6    1    1    2  501    0 -0.10451152201E+03 -0.57049953227E+02  0.13835802580E+03  0.25149413254E+03  0.17300000000E+03 0. -1.
         -6    1    1    2    0  502  0.10451152201E+03  0.57049953227E+02  0.10650170379E+03  0.23547604614E+03  0.17300000000E+03 0.  1.
</event>
<event>
 4    1  0.5904698E+000  0.1000000E+03  0.7546771E-02  0.1280296E+00
         21   -1    0    0  503  502  0.00000000000E+00  0.00000000000E+00  0.30100123234E+02  0.30100123234E+02  0.00000000000E+00 0. -1.
         21   -1    0    0  501  503 -0.00000000000E+00 -0.00000000000E+00 -0.17384406477E+04  0.17384406477E+04  0.00000000000E+00 0. -1.
          6    1    1    2  501    0  0.23814979111E+02  0.10498658337E+03 -0.12560652586E+04  0.12724850765E+04  0.17300000000E+03 0. -1.
         -6    1    1    2    0  502 -0.23814979111E+02 -0.10498658337E+03 -0.45227526587E+03  0.49605569449E+03  0.17300000000E+03 0. -1.
</event>
<event>
 4    1  0.5904698E+000  0.1000000E+03  0.7546771E-02  0.1280296E+00
         21   -1    0    0  503  502  0.00000000000E+00  0.00000000000E+00  0.26647519828E+03  0.26647519828E+03  0.00000000000E+00 0.  1.
         21   -1    0    0  501  503 -0.00000000000E+00 -0.00000000000E+00 -0.37036091392E+03  0.37036091392E+03  0.00000000000E+00 0.  1.
          6    1    1    2  501    0  0.47635303429E+02 -0.63127772924E+02 -0.30535484730E+03  0.35975661303E+03  0.17300000000E+03 0.  1.
         -6    1    1    2    0  502 -0.47635303429E+02  0.63127772924E+02  0.20146913166E+03  0.27707949917E+03  0.17300000000E+03 0.  1.
</event>
<event>
 4    1  0.5904698E+000  0.1000000E+03  0.7546771E-02  0.1280296E+00
         21   -1    0    0  503  502  0.00000000000E+00  0.00000000000E+00  0.62122745388E+03  0.62122745388E+03  0.00000000000E+00 0. -1.
         21   -1    0    0  501  503 -0.00000000000E+00 -0.00000000000E+00 -0.12262344866E+03  0.12262344866E+03  0.00000000000E+00 0.  1.
          6    1    1    2  501    0  0.12908602054E+03  0.28194462923E+02  0.20655755537E+02  0.21866364278E+03  0.17300000000E+03 0.  1.
         -6    1    1    2    0  502 -0.12908602054E+03 -0.28194462923E+02  0.47794824968E+03  0.52518725976E+03  0.17300000000E+03 0. -1.
</event>
<event>
 4    1  0.5904698E+000  0.1000000E+03  0.7546771E-02  0.1280296E+00
         21   -1    0    0  503  502  0.00000000000E+00  0.00000000000E+00  0.78803112480E+02  0.78803112480E+02  0.00000000000E+00 0. -1.
         21   -1    0    0  501  503 -0.00000000000E+00 -0.00000000000E+00 -0.44712783454E+03  0.44712783454E+03  0.00000000000E+00 0.  1.
          6    1    1    2  501    0 -0.36953385827E+02 -0.24500847033E+02 -0.26512763331E+03  0.31966780597E+03  0.17300000000E+03 0.  1.
         -6    1    1    2    0  502  0.36953385827E+02  0.24500847033E+02 -0.10319708875E+03  0.20626314105E+03  0.17300000000E+03 0. -1.
</event>
<event>
 4    1  0.5904698E+000  0.1000000E+03  0.7546771E-02  0.1280296E+00
         21   -1    0    0  501  502  0.00000000000E+00  0.00000000000E+00  0.67698958586E+03  0.67698958586E+03  0.00000000000E+00 0.  1.
         21   -1    0    0  502  503 -0.00000000000E+00 -0.00000000000E+00 -0.68332141130E+02  0.68332141130E+02  0.00000000000E+00 0.  1.
          6    1    1    2  501    0  0.24863208243E+02  0.12415959735E+03  0.33420688442E+03  0.39706048196E+03  0.17300000000E+03 0.  1.
         -6    1    1    2    0  503 -0.24863208243E+02 -0.12415959735E+03  0.27445056031E+03  0.34826124504E+03  0.17300000000E+03 0.  1.
</event>
<event>
 4    1  0.5904698E+000  0.1000000E+03  0.7546771E-02  0.1280296E+00
         21   -1    0    0  501  502  0.00000000000E+00  0.00000000000E+00  0.19519391022E+03  0.19519391022E+03  0.00000000000E+00 0.  1.
         21   -1    0    0  502  503 -0.00000000000E+00 -0.00000000000E+00 -0.42434904884E+03  0.42434904884E+03  0.00000000000E+00 0.  1.
          6    1    1    2  501    0  0.18739044863E+02 -0.67002441530E+02  0.12138466552E+03  0.22249430554E+03  0.17300000000E+03 0.  1.
         -6    1    1    2    0  503 -0.18739044863E+02  0.67002441530E+02 -0.35053980415E+03  0.39704865352E+03  0.17300000000E+03 0.  1.
</event>
<event>
 4    1  0.5904698E+000  0.1000000E+03  0.7546771E-02  0.1280296E+00
         21   -1    0    0  503  502  0.00000000000E+00  0.00000000000E+00  0.15485956356E+03  0.15485956356E+03  0.00000000000E+00 0. -1.
         21   -1    0    0  501  503 -0.00000000000E+00 -0.00000000000E+00 -0.87510968548E+03  0.87510968548E+03  0.00000000000E+00 0. -1.
          6    1    1    2  501    0 -0.14868735631E+03  0.28867287398E+03 -0.37726663457E+03  0.52697160422E+03  0.17300000000E+03 0. -1.
         -6    1    1    2    0  502  0.14868735631E+03 -0.28867287398E+03 -0.34298348735E+03  0.50299764482E+03  0.17300000000E+03 0. -1.
</event>
<event>
 4    1  0.5904698E+000  0.1000000E+03  0.7546771E-02  0.1280296E+00
         21   -1    0    0  503  502  0.00000000000E+00  0.00000000000E+00  0.40683442753E+03  0.40683442753E+03  0.00000000000E+00 0.  1.
         21   -1    0    0  501  503 -0.00000000000E+00 -0.00000000000E+00 -0.14060138932E+03  0.14060138932E+03  0.00000000000E+00 0. -1.
          6    1    1    2  501    0  0.34219532272E+02  0.38382134427E+02 -0.46487876695E+02  0.18637136935E+03  0.17300000000E+03 0. -1.
         -6    1    1    2    0  502 -0.34219532272E+02 -0.38382134427E+02  0.31272091491E+03  0.36106444751E+03  0.17300000000E+03 0.  1.
</event>
<event>
 4    1  0.5904698E+000  0.1000000E+03  0.7546771E-02  0.1280296E+00
         21   -1    0    0  503  502  0.00000000000E+00  0.00000000000E+00  0.83092275370E+02  0.83092275370E+02  0.00000000000E+00 0.  1.
         21   -1    0    0  501  503 -0.00000000000E+00 -0.00000000000E+00 -0.39987715422E+03  0.39987715422E+03  0.00000000000E+00 0. -1.
          6    1    1    2  501    0  0.56233843091E+01  0.21043644324E+01 -0.23405217568E+03  0.29111075511E+03  0.17300000000E+03 0. -1.
         -6    1    1    2    0  502 -0.56233843091E+01 -0.21043644324E+01 -0.82732703178E+02  0.19185867449E+03  0.17300000000E+03 0.  1.
</event>
<event>
 4    1  0.5904698E+000  0.1000000E+03  0.7546771E-02  0.1280296E+00
         21   -1    0    0  503  502  0.00000000000E+00  0.00000000000E+00  0.52341532318E+03  0.52341532318E+03  0.00000000000E+00 0.  1.
         21   -1    0    0  501  503 -0.00000000000E+00 -0.00000000000E+00 -0.99300169876E+02  0.99300169876E+02  0.00000000000E+00 0. -1.
          6    1    1    2  501    0  0.54278528149E+02  0.78198689376E+02  0.56431253502E+02  0.20536474870E+03  0.17300000000E+03 0. -1.
         -6    1    1    2    0  502 -0.54278528149E+02 -0.78198689376E+02  0.36768389980E+03  0.41735074435E+03  0.17300000000E+03 0.  1.
</event>
<event>
 4    1  0.5904698E+000  0.1000000E+03  0.7546771E-02  0.1280296E+00
         21   -1    0    0  503  502  0.00000000000E+00  0.00000000000E+00  0.59710840883E+03  0.59710840883E+03  0.00000000000E+00 0.  1.
         21   -1    0    0  501  503 -0.00000000000E+00 -0.00000000000E+00 -0.10541687782E+03  0.10541687782E+03  0.00000000000E+00 0. -1.
          6    1    1    2  501    0 -0.16414588193E+03 -0.57357284185E+02  0.17199180648E+03  0.29957287945E+03  0.17300000000E+03 0. -1.
         -6    1    1    2    0  502  0.16414588193E+03  0.57357284185E+02  0.31969972454E+03  0.40295240721E+03  0.17300000000E+03 0.  1.
</event>
<event>
 4    1  0.5904698E+000  0.1000000E+03  0.7546771E-02  0.1280296E+00
         21   -1    0    0  501  502  0.00000000000E+00  0.00000000000E+00  0.11242117392E+03  0.11242117392E+03  0.00000000000E+00 0. -1.
         21   -1    0    0  502  503 -0.00000000000E+00 -0.00000000000E+00 -0.95370242839E+03  0.95370242839E+03  0.00000000000E+00 0.  1.
          6    1    1    2  501    0  0.10784298068E+03  0.51198462298E+02 -0.11906189563E+02  0.21052826027E+03  0.17300000000E+03 0. -1.
         -6    1    1    2    0  503 -0.10784298068E+03 -0.51198462298E+02 -0.82937506491E+03  0.85559534204E+03  0.17300000000E+03 0.  1.
</event>
<event>
 4    1  0.5904698E+000  0.1000000E+03  0.7546771E-02  0.1280296E+00
         21   -1    0    0  501  502  0.00000000000E+00  0.00000000000E+00  0.54383158706E+03  0.54383158706E+03  0.00000000000E+00 0. -1.
         21   -1    0    0  502  503 -0.00000000000E+00 -0.00000000000E+00 -0.11698377973E+03  0.11698377973E+03  0.00000000000E+00 0.  1.
          6    1    1    2  501    0  0.78220165201E+02 -0.15206628354E+03  0.30078817594E+03  0.38683985785E+03  0.17300000000E+03 0. -1.
         -6    1    1    2    0  503 -0.78220165201E+02  0.15206628354E+03  0.12605963139E+03  0.27397550894E+03  0.17300000000E+03 0.  1.
</event>
<event>
 4    1  0.5904698E+000  0.1000000E+03  0.7546771E-02  0.1280296E+00
         21   -1    0    0  501  502  0.00000000000E+00  0.00000000000E+00  0.68165225852E+02  0.68165225852E+02  0.00000000000E+00 0.  1.
         21   -1    0    0  502  503 -0.00000000000E+00 -0.00000000000E+00 -0.10898651788E+04  0.10898651788E+04  0.00000000000E+00 0.  1.
          6    1    1    2  501    0 -0.30125580417E+02 -0.16200799119E+02 -0.69357567200E+02  0.18949799106E+03  0.17300000000E+03 0. -1.
         -6    1    1    2    0  503  0.30125580417E+02  0.16200799119E+02 -0.95234238578E+03  0.96853241362E+03  0.17300000000E+03 0. -1.
</event>
<event>
 4    1  0.5904698E+000  0.1000000E+03  0.7546771E-02  0.1280296E+00
         21   -1    0    0  501  502  0.00000000000E+00  0.00000000000E+00  0.52313724054E+02  0.52313724054E+02  0.00000000000E+00 0.  1.
         21   -1    0    0  502  503 -0.00000000000E+00 -0.00000000000E+00 -0.61558462286E+03  0.61558462286E+03  0.00000000000E+00 0.  1.
          6    1    1    2  501    0 -0.21405993586E+02 -0.38319663545E+02 -0.24692480306E+03  0.30467601077E+03  0.17300000000E+03 0. -1.
         -6    1    1    2    0  503  0.21405993586E+02  0.38319663545E+02 -0.31634609574E+03  0.36322233613E+03  0.17300000000E+03 0. -1.
</event>
<event>
 4    1  0.5904698E+000  0.1000000E+03  0.7546771E-02  0.1280296E+00
         21   -1    0    0  501  502  0.00000000000E+00  0.00000000000E+00  0.78319631874E+02  0.78319631874E+02  0.00000000000E+00 0. -1.
         21   -1    0    0  502  503 -0.00000000000E+00 -0.00000000000E+00 -0.54269813153E+03  0.54269813153E+03  0.00000000000E+00 0. -1.
          6    1    1    2  501    0  0.10170552492E+03 -0.35498449437E+02 -0.18526293889E+03  0.27541879064E+03  0.17300000000E+03 0.  1.
         -6    1    1    2    0  503 -0.10170552492E+03  0.35498449437E+02 -0.27911556076E+03  0.34559897276E+03  0.17300000000E+03 0.  1.
</event>
<event>
 4    1  0.5904698E+000  0.1000000E+03  0.7546771E-02  0.1280296E+00
         21   -1    0    0  501  502  0.00000000000E+00  0.00000000000E+00  0.34249490971E+02  0.34249490971E+02  0.00000000000E+00 0. -1.
         21   -1    0    0  502  503 -0.00000000000E+00 -0.00000000000E+00 -0.18514195083E+04  0.18514195083E+04  0.00000000000E+00 0. -1.
          6    1    1    2  501    0 -0.21033806820E+01 -0.11167818718E+03 -0.36594153947E+03  0.41990314599E+03  0.17300000000E+03 0. -1.
         -6    1    1    2    0  503  0.21033806820E+01  0.11167818718E+03 -0.14512284778E+04  0.14657658533E+04  0.17300000000E+03 0. -1.
</event>
<event>
 4    1  0.5904698E+000  0.1000000E+03  0.7546771E-02  0.1280296E+00
         21   -1    0    0  501  502  0.00000000000E+00  0.00000000000E+00  0.11047050938E+03  0.11047050938E+03  0.00000000000E+00 0. -1.
         21   -1    0    0  502  503 -0.00000000000E+00 -0.00000000000E+00 -0.57778444215E+03  0.57778444215E+03  0.00000000000E+00 0. -1.
          6    1    1    2  501    0  0.22605458595E+02  0.15696514577E+03 -0.10624236252E+03  0.25761502933E+03  0.17300000000E+03 0. -1.
         -6    1    1    2    0  503 -0.22605458595E+02 -0.15696514577E+03 -0.36107157026E+03  0.43063992220E+03  0.17300000000E+03 0. -1.
</event>
<event>
 4    1  0.5904698E+000  0.1000000E+03  0.7546771E-02  0.1280296E+00
         21   -1    0    0  501  502  0.00000000000E+00  0.00000000000E+00  0.12836287430E+04  0.12836287430E+04  0.00000000000E+00 0. -1.
         21   -1    0    0  502  503 -0.00000000000E+00 -0.00000000000E+00 -0.59667340707E+02  0.59667340707E+02  0.00000000000E+00 0. -1.
          6    1    1    2  501    0  0.19022845922E+03 -0.10130466466E+03  0.57662671138E+03  0.63943480203E+03  0.17300000000E+03 0. -1.
         -6    1    1    2    0  503 -0.19022845922E+03  0.10130466466E+03  0.64733469096E+03  0.70386128171E+03  0.17300000000E+03 0. -1.
</event>
<event>
 4    1  0.5904698E+000  0.1000000E+03  0.7546771E-02  0.1280296E+00
         21   -1    0    0  501  502  0.00000000000E+00  0.00000000000E+00  0.84352625853E+03  0.84352625853E+03  0.00000000000E+00 0. -1.
         21   -1    0    0  502  503 -0.00000000000E+00 -0.00000000000E+00 -0.60457390986E+02  0.60457390986E+02  0.00000000000E+00 0.  1.
          6    1    1    2  501    0 -0.12534563011E+03  0.47096063928E+02  0.50366925998E+03  0.54912775351E+03  0.17300000000E+03 0. -1.
         -6    1    1    2    0  503  0.12534563011E+03 -0.47096063928E+02  0.27939960757E+03  0.35485589601E+03  0.17300000000E+03 0.  1.
</event>
<event>
 4    1  0.5904698E+000  0.1000000E+03  0.7546771E-02  0.1280296E+00
         21   -1    0    0  501  502  0.00000000000E+00  0.00000000000E+00  0.12984252010E+03  0.12984252010E+03  0.00000000000E+00 0. -1.
         21   -1    0    0  502  503 -0.00000000000E+00 -0.00000000000E+00 -0.70263851843E+03  0.70263851843E+03  0.00000000000E+00 0.  1.
          6    1    1    2  501    0 -0.39719703269E+02  0.86776884534E+02  0.28439410255E+02  0.19961383362E+03  0.17300000000E+03 0. -1.
         -6    1    1    2    0  503  0.39719703269E+02 -0.86776884534E+02 -0.60123540859E+03  0.63286720491E+03  0.17300000000E+03 0.  1.
</event>
<event>
 4    1  0.5904698E+000  0.1000000E+03  0.7546771E-02  0.1280296E+00
         21   -1    0    0  501  502  0.00000000000E+00  0.00000000000E+00  0.64484718518E+03  0.64484718518E+03  0.00000000000E+00 0. -1.
         21   -1    0    0  502  503 -0.00000000000E+00 -0.00000000000E+00 -0.60643876433E+02  0.60643876433E+02  0.00000000000E+00 0.  1.
          6    1    1    2  501    0 -0.88190357861E+00  0.94973876176E+02  0.31439654383E+03  0.37120749141E+03  0.17300000000E+03 0.  1.
         -6    1    1    2    0  503  0.88190357861E+00 -0.94973876176E+02  0.26980676491E+03  0.33428357020E+03  0.17300000000E+03 0. -1.
</event>
<event>
 4    1  0.5904698E+000  0.1000000E+03  0.7546771E-02  0.1280296E+00
         21   -1    0    0  503  502  0.00000000000E+00  0.00000000000E+00  0.11238973232E+04  0.11238973232E+04  0.00000000000E+00 0.  1.
         21   -1    0    0  501  503 -0.00000000000E+00 -0.00000000000E+00 -0.45518367001E+02  0.45518367001E+02  0.00000000000E+00 0. -1.
          6    1    1    2  501    0  0.14818085892E+02  0.13529933526E+03  0.40477555680E+03  0.46075778580E+03  0.17300000000E+03 0. -1.
         -6    1    1    2    0  502 -0.14818085892E+02 -0.13529933526E+03  0.67360339937E+03  0.70865790438E+03  0.17300000000E+03 0.  1.
</event>
<event>
 4    1  0.5904698E+000  0.1000000E+03  0.7546771E-02  0.1280296E+00
         21   -1    0    0  503  502  0.00000000000E+00  0.00000000000E+00  0.25325218948E+03  0.25325218948E+03  0.00000000000E+00 0.  1.
         21   -1    0    0  501  503 -0.00000000000E+00 -0.00000000000E+00 -0.22555053112E+03  0.22555053112E+03  0.00000000000E+00 0. -1.
          6    1    1    2  501    0 -0.49168316569E+02 -0.15511420645E+03 -0.12919008742E+02  0.23785256186E+03  0.17300000000E+03 0. -1.
         -6    1    1    2    0  502  0.49168316569E+02  0.15511420645E+03  0.40620667105E+02  0.24095015873E+03  0.17300000000E+03 0.  1.
</event>
<event>
 4    1  0.5904698E+000  0.1000000E+03  0.7546771E-02  0.1280296E+00
         21   -1    0    0  503  502  0.00000000000E+00  0.00000000000E+00  0.21348167270E+03  0.21348167270E+03  0.00000000000E+00 0.  1.
         21   -1    0    0  501  503 -0.00000000000E+00 -0.00000000000E+00 -0.21996374478E+03  0.21996374478E+03  0.00000000000E+00 0. -1.
          6    1    1    2  501    0  0.11214994444E+03  0.29886421018E+02 -0.62900201058E+02  0.21761489722E+03  0.17300000000E+03 0. -1.
         -6    1    1    2    0  502 -0.11214994444E+03 -0.29886421018E+02  0.56418128980E+02  0.21583052026E+03  0.17300000000E+03 0.  1.
</event>
<event>
 4    1  0.5904698E+000  0.1000000E+03  0.7546771E-02  0.1280296E+00
         21   -1    0    0  501  502  0.00000000000E+00  0.00000000000E+00  0.12786707959E+04  0.12786707959E+04  0.00000000000E+00 0. -1.
         21   -1    0    0  502  503 -0.00000000000E+00 -0.00000000000E+00 -0.95381421849E+02  0.95381421849E+02  0.00000000000E+00 0. -1.
          6    1    1    2  501    0  0.34592712103E+02  0.27522893464E+03  0.83326419004E+03  0.89510101810E+03  0.17300000000E+03 0. -1.
         -6    1    1    2    0  503 -0.34592712103E+02 -0.27522893464E+03  0.35002518396E+03  0.47895119961E+03  0.17300000000E+03 0. -1.
</event>
<event>
 4    1  0.5904698E+000  0.1000000E+03  0.7546771E-02  0.1280296E+00
         21   -1    0    0  501  502  0.00000000000E+00  0.00000000000E+00  0.22555374393E+03  0.22555374393E+03  0.00000000000E+00 0. -1.
         21   -1    0    0  502  503 -0.00000000000E+00 -0.00000000000E+00 -0.23269865448E+03  0.23269865448E+03  0.00000000000E+00 0. -1.
          6    1    1    2  501    0  0.83736103978E+02 -0.53959900271E+02  0.10884070570E+03  0.22737349266E+03  0.17300000000E+03 0. -1.
         -6    1    1    2    0  503 -0.83736103978E+02  0.53959900271E+02 -0.11598561624E+03  0.23087890575E+03  0.17300000000E+03 0. -1.
</event>
<event>
 4    1  0.5904698E+000  0.1000000E+03  0.7546771E-02  0.1280296E+00
         21   -1    0    0  503  502  0.00000000000E+00  0.00000000000E+00  0.11237193928E+04  0.11237193928E+04  0.00000000000E+00 0.  1.
         21   -1    0    0  501  503 -0.00000000000E+00 -0.00000000000E+00 -0.55200474581E+03  0.55200474581E+03  0.00000000000E+00 0. -1.
          6    1    1    2  501    0 -0.12167491813E+03 -0.69380558077E+02 -0.51784555381E+03  0.56365899722E+03  0.17300000000E+03 0. -1.
         -6    1    1    2    0  502  0.12167491813E+03  0.69380558077E+02  0.10895602008E+04  0.11120651414E+04  0.17300000000E+03 0.  1.
</event>
<event>
 4    1  0.5904698E+000  0.1000000E+03  0.7546771E-02  0.1280296E+00
         21   -1    0    0  501  502  0.00000000000E+00  0.00000000000E+00  0.22058533475E+03  0.22058533475E+03  0.00000000000E+00 0.  1.
         21   -1    0    0  502  503 -0.00000000000E+00 -0.00000000000E+00 -0.17052978663E+03  0.17052978663E+03  0.00000000000E+00 0.  1.
          6    1    1    2  501    0 -0.18573478818E+02 -0.40170360246E+02  0.10134378362E+03  0.20532460748E+03  0.17300000000E+03 0.  1.
         -6    1    1    2    0  503  0.18573478818E+02  0.40170360246E+02 -0.51288235490E+02  0.18579051391E+03  0.17300000000E+03 0.  1.
</event>
<event>
 4    1  0.5904698E+000  0.1000000E+03  0.7546771E-02  0.1280296E+00
         21   -1    0    0  503  502  0.00000000000E+00  0.00000000000E+00  0.22165321006E+03  0.22165321006E+03  0.00000000000E+00 0. -1.
         21   -1    0    0  501  503 -0.00000000000E+00 -0.00000000000E+00 -0.14013353447E+03  0.14013353447E+03  0.00000000000E+00 0.  1.
          6    1    1    2  501    0 -0.10472828937E+02  0.80031722138E+00  0.73568011860E+02  0.18828588110E+03  0.17300000000E+03 0.  1.
         -6    1    1    2    0  502  0.10472828937E+02 -0.80031722138E+00  0.79516637382E+01  0.17350086343E+03  0.17300000000E+03 0. -1.
</event>
<event>
 4    1  0.5904698E+000  0.1000000E+03  0.7546771E-02  0.1280296E+00
         21   -1    0    0  503  502  0.00000000000E+00  0.00000000000E+00  0.72477893743E+02  0.72477893743E+02  0.00000000000E+00 0. -1.
         21   -1    0    0  501  503 -0.00000000000E+00 -0.00000000000E+00 -0.73529207744E+03  0.73529207744E+03  0.00000000000E+00 0. -1.
          6    1    1    2  501    0  0.15235029082E+02  0.28710235492E+02 -0.59271101508E+03  0.61829744552E+03  0.17300000000E+03 0. -1.
         -6    1    1    2    0  502 -0.15235029082E+02 -0.28710235492E+02 -0.70103168617E+02  0.18947252567E+03  0.17300000000E+03 0. -1.
</event>
<event>
 4    1  0.5904698E+000  0.1000000E+03  0.7546771E-02  0.1280296E+00
         21   -1    0    0  503  502  0.00000000000E+00  0.00000000000E+00  0.66968968528E+03  0.66968968528E+03  0.00000000000E+00 0. -1.
         21   -1    0    0  501  503 -0.00000000000E+00 -0.00000000000E+00 -0.16319634532E+03  0.16319634532E+03  0.00000000000E+00 0. -1.
          6    1    1    2  501    0 -0.18289344696E+03 -0.20831377335E+03  0.19004503795E+03  0.37800893846E+03  0.17300000000E+03 0. -1.
         -6    1    1    2    0  502  0.18289344696E+03  0.20831377335E+03  0.31644830202E+03  0.45487709214E+03  0.17300000000E+03 0. -1.
</event>
<event>
 4    1  0.5904698E+000  0.1000000E+03  0.7546771E-02  0.1280296E+00
         21   -1    0    0  501  502  0.00000000000E+00  0.00000000000E+00  0.39970284625E+02  0.39970284625E+02  0.00000000000E+00 0.  1.
         21   -1    0    0  502  503 -0.00000000000E+00 -0.00000000000E+00 -0.12550703572E+04  0.12550703572E+04  0.00000000000E+00 0.  1.
          6    1    1    2  501    0  0.43385294713E+02  0.79322679429E+02 -0.29003589349E+03  0.34960576480E+03  0.17300000000E+03 0.  1.
         -6    1    1    2    0  503 -0.43385294713E+02 -0.79322679429E+02 -0.92506417913E+03  0.94543487707E+03  0.17300000000E+03 0.  1.
</event>
<event>
 4    1  0.5904698E+000  0.1000000E+03  0.7546771E-02  0.1280296E+00
         21   -1    0    0  503  502  0.00000000000E+00  0.00000000000E+00  0.99053208013E+03  0.99053208013E+03  0.00000000000E+00 0.  1.
         21   -1    0    0  501  503 -0.00000000000E+00 -0.00000000000E+00 -0.59987499735E+02  0.59987499735E+02  0.00000000000E+00 0.  1.
          6    1    1    2  501    0  0.14810839110E+03 -0.55033558558E+02  0.32031000945E+03  0.39685298315E+03  0.17300000000E+03 0.  1.
         -6    1    1    2    0  502 -0.14810839110E+03  0.55033558558E+02  0.61023457094E+03  0.65366659671E+03  0.17300000000E+03 0.  1.
</event>
<event>
 4    1  0.5904698E+000  0.1000000E+03  0.7546771E-02  0.1280296E+00
         21   -1    0    0  503  502  0.00000000000E+00  0.00000000000E+00  0.37474191922E+03  0.37474191922E+03  0.00000000000E+00 0.  1.
         21   -1    0    0  501  503 -0.00000000000E+00 -0.00000000000E+00 -0.15151954393E+03  0.15151954393E+03  0.00000000000E+00 0.  1.
          6    1    1    2  501    0 -0.27817509887E+02 -0.16378744971E+02 -0.65792296342E+02  0.18788215296E+03  0.17300000000E+03 0.  1.
         -6    1    1    2    0  502  0.27817509887E+02  0.16378744971E+02  0.28901467164E+03  0.33837931019E+03  0.17300000000E+03 0.  1.
</event>
<event>
 4    1  0.5904698E+000  0.1000000E+03  0.7546771E-02  0.1280296E+00
         21   -1    0    0  503  502  0.00000000000E+00  0.00000000000E+00  0.10041229052E+04  0.10041229052E+04  0.00000000000E+00 0.  1.
         21   -1    0    0  501  503 -0.00000000000E+00 -0.00000000000E+00 -0.78726633895E+02  0.78726633895E+02  0.00000000000E+00 0. -1.
          6    1    1    2  501    0 -0.14521445593E+03 -0.12944576421E+03  0.25818803816E+03  0.36665175185E+03  0.17300000000E+03 0. -1.
         -6    1    1    2    0  502  0.14521445593E+03  0.12944576421E+03  0.66720823310E+03  0.71619778720E+03  0.17300000000E+03 0.  1.
</event>
<event>
 4    1  0.5904698E+000  0.1000000E+03  0.7546771E-02  0.1280296E+00
         21   -1    0    0  503  502  0.00000000000E+00  0.00000000000E+00  0.27212167248E+03  0.27212167248E+03  0.00000000000E+00 0.  1.
         21   -1    0    0  501  503 -0.00000000000E+00 -0.00000000000E+00 -0.16764906082E+03  0.16764906082E+03  0.00000000000E+00 0. -1.
          6    1    1    2  501    0  0.96907765333E+02 -0.29615083001E+02 -0.23580419121E+02  0.20187422889E+03  0.17300000000E+03 0. -1.
         -6    1    1    2    0  502 -0.96907765333E+02  0.29615083001E+02  0.12805303078E+03  0.23789650442E+03  0.17300000000E+03 0.  1.
</event>
<event>
 4    1  0.5904698E+000  0.1000000E+03  0.7546771E-02  0.1280296E+00
         21   -1    0    0  503  502  0.00000000000E+00  0.00000000000E+00  0.40777968009E+03  0.40777968009E+03  0.00000000000E+00 0.  1.
         21   -1    0    0  501  503 -0.00000000000E+00 -0.00000000000E+00 -0.12449582915E+03  0.12449582915E+03  0.00000000000E+00 0.  1.
          6    1    1    2  501    0 -0.33789003698E+02 -0.24635111653E+02 -0.21554677859E+02  0.17928242980E+03  0.17300000000E+03 0.  1.
         -6    1    1    2    0  502  0.33789003698E+02  0.24635111653E+02  0.30483852880E+03  0.35299307945E+03  0.17300000000E+03 0.  1.
</event>
<event>
 4    1  0.5904698E+000  0.1000000E+03  0.7546771E-02  0.1280296E+00
         21   -1    0    0  503  502  0.00000000000E+00  0.00000000000E+00  0.12845099877E+04  0.12845099877E+04  0.00000000000E+00 0. -1.
         21   -1    0    0  501  503 -0.00000000000E+00 -0.00000000000E+00 -0.42167966546E+03  0.42167966546E+03  0.00000000000E+00 0. -1.
          6    1    1    2  501    0 -0.91375352784E+02 -0.65490437868E+03  0.11508672096E+03  0.69312564060E+03  0.17300000000E+03 0. -1.
         -6    1    1    2    0  502  0.91375352784E+02  0.65490437868E+03  0.74774360131E+03  0.10130640126E+04  0.17300000000E+03 0. -1.
</event>
<event>
 4    1  0.5904698E+000  0.1000000E+03  0.7546771E-02  0.1280296E+00
         21   -1    0    0  503  502  0.00000000000E+00  0.00000000000E+00  0.39733024006E+03  0.39733024006E+03  0.00000000000E+00 0. -1.
         21   -1    0    0  501  503 -0.00000000000E+00 -0.00000000000E+00 -0.19321401470E+03  0.19321401470E+03  0.00000000000E+00 0. -1.
          6    1    1    2  501    0  0.11867651226E+03 -0.99018161010E+02 -0.59391931020E+02  0.23946839508E+03  0.17300000000E+03 0. -1.
         -6    1    1    2    0  502 -0.11867651226E+03  0.99018161010E+02  0.26350815638E+03  0.35107585968E+03  0.17300000000E+03 0. -1.
</event>
<event>
 4    1  0.5904698E+000  0.1000000E+03  0.7546771E-02  0.1280296E+00
         21   -1    0    0  503  502  0.00000000000E+00  0.00000000000E+00  0.18660503141E+03  0.18660503141E+03  0.00000000000E+00 0. -1.
         21   -1    0    0  501  503 -0.00000000000E+00 -0.00000000000E+00 -0.21859830070E+04  0.21859830070E+04  0.00000000000E+00 0. -1.
          6    1    1    2  501    0  0.16566009346E+03  0.70786308541E+02 -0.20915106364E+04  0.21063712185E+04  0.17300000000E+03 0. -1.
         -6    1    1    2    0  502 -0.16566009346E+03 -0.70786308541E+02  0.92132660762E+02  0.26621681994E+03  0.17300000000E+03 0. -1.
</event>
<event>
 4    1  0.5904698E+000  0.1000000E+03  0.7546771E-02  0.1280296E+00
         21   -1    0    0  503  502  0.00000000000E+00  0.00000000000E+00  0.31162962748E+03  0.31162962748E+03  0.00000000000E+00 0.  1.
         21   -1    0    0  501  503 -0.00000000000E+00 -0.00000000000E+00 -0.38670158693E+03  0.38670158693E+03  0.00000000000E+00 0.  1.
          6    1    1    2  501    0  0.11420028390E+03  0.27845036729E+03 -0.35990928567E+02  0.34899951121E+03  0.17300000000E+03 0.  1.
         -6    1    1    2    0  502 -0.11420028390E+03 -0.27845036729E+03 -0.39081030885E+02  0.34933170320E+03  0.17300000000E+03 0.  1.
</event>
<event>
 4    1  0.5904698E+000  0.1000000E+03  0.7546771E-02  0.1280296E+00
         21   -1    0    0  503  502  0.00000000000E+00  0.00000000000E+00  0.33019404958E+03  0.33019404958E+03  0.00000000000E+00 0.  1.
         21   -1    0    0  501  503 -0.00000000000E+00 -0.00000000000E+00 -0.15185152043E+03  0.15185152043E+03  0.00000000000E+00 0.  1.
          6    1    1    2  501    0 -0.74769660524E+02 -0.86504746128E+02 -0.17674877131E+01  0.20737815037E+03  0.17300000000E+03 0.  1.
         -6    1    1    2    0  502  0.74769660524E+02  0.86504746128E+02  0.18011001686E+03  0.27466741964E+03  0.17300000000E+03 0.  1.
</event>
<event>
 4    1  0.5904698E+000  0.1000000E+03  0.7546771E-02  0.1280296E+00
         21   -1    0    0  503  502  0.00000000000E+00  0.00000000000E+00  0.51183229702E+03  0.51183229702E+03  0.00000000000E+00 0.  1.
         21   -1    0    0  501  503 -0.00000000000E+00 -0.00000000000E+00 -0.18839590005E+03  0.18839590005E+03  0.00000000000E+00 0.  1.
          6    1    1    2  501    0  0.12618896843E+03  0.22196138428E+03  0.20248874748E+03  0.36894607292E+03  0.17300000000E+03 0.  1.
         -6    1    1    2    0  502 -0.12618896843E+03 -0.22196138428E+03  0.12094764949E+03  0.33128212415E+03  0.17300000000E+03 0.  1.
</event>
<event>
 4    1  0.5904698E+000  0.1000000E+03  0.7546771E-02  0.1280296E+00
         21   -1    0    0  503  502  0.00000000000E+00  0.00000000000E+00  0.12810968271E+03  0.12810968271E+03  0.00000000000E+00 0.  1.
         21   -1    0    0  501  503 -0.00000000000E+00 -0.00000000000E+00 -0.49378645258E+03  0.49378645258E+03  0.00000000000E+00 0.  1.
          6    1    1    2  501    0 -0.13283166008E+03 -0.62354719527E+01 -0.33748435389E+03  0.40188035552E+03  0.17300000000E+03 0.  1.
         -6    1    1    2    0  502  0.13283166008E+03  0.62354719527E+01 -0.28192415981E+02  0.22001577977E+03  0.17300000000E+03 0.  1.
</event>
<event>
 4    1  0.5904698E+000  0.1000000E+03  0.7546771E-02  0.1280296E+00
         21   -1    0    0  501  502  0.00000000000E+00  0.00000000000E+00  0.47433346416E+03  0.47433346416E+03  0.00000000000E+00 0.  1.
         21   -1    0    0  502  503 -0.00000000000E+00 -0.00000000000E+00 -0.76859415470E+02  0.76859415470E+02  0.00000000000E+00 0.  1.
          6    1    1    2  501    0  0.53082592898E+02 -0.60847932725E+02  0.20275789267E+03  0.27849595262E+03  0.17300000000E+03 0.  1.
         -6    1    1    2    0  503 -0.53082592898E+02  0.60847932725E+02  0.19471615603E+03  0.27269692701E+03  0.17300000000E+03 0.  1.
</event>
<event>
 4    1  0.5904698E+000  0.1000000E+03  0.7546771E-02  0.1280296E+00
         21   -1    0    0  501  502  0.00000000000E+00  0.00000000000E+00  0.78493818018E+03  0.78493818018E+03  0.00000000000E+00 0.  1.
         21   -1    0    0  502  503 -0.00000000000E+00 -0.00000000000E+00 -0.31659619057E+03  0.31659619057E+03  0.00000000000E+00 0.  1.
          6    1    1    2  501    0 -0.95423780197E+02 -0.12445627611E+03  0.72078080793E+03  0.75766023755E+03  0.17300000000E+03 0.  1.
         -6    1    1    2    0  503  0.95423780197E+02  0.12445627611E+03 -0.25243881832E+03  0.34387413320E+03  0.17300000000E+03 0.  1.
</event>
<event>
 4    1  0.5904698E+000  0.1000000E+03  0.7546771E-02  0.1280296E+00
         21   -1    0    0  501  502  0.00000000000E+00  0.00000000000E+00  0.27984029290E+03  0.27984029290E+03  0.00000000000E+00 0.  1.
         21   -1    0    0  502  503 -0.00000000000E+00 -0.00000000000E+00 -0.13538573842E+03  0.13538573842E+03  0.00000000000E+00 0.  1.
          6    1    1    2  501    0 -0.74878682659E+01  0.34076460415E+02  0.15979549901E+03  0.23807745552E+03  0.17300000000E+03 0.  1.
         -6    1    1    2    0  503  0.74878682659E+01 -0.34076460415E+02 -0.15340944534E+02  0.17714857579E+03  0.17300000000E+03 0.  1.
</event>
<event>
 4    1  0.5904698E+000  0.1000000E+03  0.7546771E-02  0.1280296E+00
         21   -1    0    0  503  502  0.00000000000E+00  0.00000000000E+00  0.17074031122E+04  0.17074031122E+04  0.00000000000E+00 0. -1.
         21   -1    0    0  501  503 -0.00000000000E+00 -0.00000000000E+00 -0.39114483378E+02  0.39114483378E+02  0.00000000000E+00 0. -1.
          6    1    1    2  501    0  0.66189512969E+02  0.17952101375E+02  0.22823281563E+03  0.29448692280E+03  0.17300000000E+03 0. -1.
         -6    1    1    2    0  502 -0.66189512969E+02 -0.17952101375E+02  0.14400558132E+04  0.14520306728E+04  0.17300000000E+03 0. -1.
</event>
<event>
 4    1  0.5904698E+000  0.1000000E+03  0.7546771E-02  0.1280296E+00
         21   -1    0    0  501  502  0.00000000000E+00  0.00000000000E+00  0.52126005982E+03  0.52126005982E+03  0.00000000000E+00 0.  1.
         21   -1    0    0  502  503 -0.00000000000E+00 -0.00000000000E+00 -0.65879931753E+02  0.65879931753E+02  0.00000000000E+00 0.  1.
          6    1    1    2  501    0 -0.65858333142E+02 -0.83838301932E+01  0.23084595375E+03  0.29601767349E+03  0.17300000000E+03 0. -1.
         -6    1    1    2    0  503  0.65858333142E+02  0.83838301932E+01  0.22453417432E+03  0.29112231809E+03  0.17300000000E+03 0. -1.
</event>
<event>
 4    1  0.5904698E+000  0.1000000E+03  0.7546771E-02  0.1280296E+00
         21   -1    0    0  501  502  0.00000000000E+00  0.00000000000E+00  0.32165231144E+03  0.32165231144E+03  0.00000000000E+00 0.  1.
         21   -1    0    0  502  503 -0.00000000000E+00 -0.00000000000E+00 -0.30085330867E+03  0.30085330867E+03  0.00000000000E+00 0.  1.
          6    1    1    2  501    0 -0.33771696911E+02  0.63917141857E+02  0.25876232940E+03  0.31955104702E+03  0.17300000000E+03 0. -1.
         -6    1    1    2    0  503  0.33771696911E+02 -0.63917141857E+02 -0.23796332663E+03  0.30295457309E+03  0.17300000000E+03 0. -1.
</event>
<event>
 4    1  0.5904698E+000  0.1000000E+03  0.7546771E-02  0.1280296E+00
         21   -1    0    0  501  502  0.00000000000E+00  0.00000000000E+00  0.61353884435E+03  0.61353884435E+03  0.00000000000E+00 0.  1.
         21   -1    0    0  502  503 -0.00000000000E+00 -0.00000000000E+00 -0.10004414522E+03  0.10004414522E+03  0.00000000000E+00 0.  1.
          6    1    1    2  501    0 -0.12649522590E+02 -0.80339994636E+02  0.48370826439E+03  0.52011268990E+03  0.17300000000E+03 0. -1.
         -6    1    1    2    0  503  0.12649522590E+02  0.80339994636E+02  0.29786434744E+02  0.19347029967E+03  0.17300000000E+03 0. -1.
</event>
<event>
 4    1  0.5904698E+000  0.1000000E+03  0.7546771E-02  0.1280296E+00
         21   -1    0    0  501  502  0.00000000000E+00  0.00000000000E+00  0.50397891231E+03  0.50397891231E+03  0.00000000000E+00 0.  1.
         21   -1    0    0  502  503 -0.00000000000E+00 -0.00000000000E+00 -0.30653527476E+03  0.30653527476E+03  0.00000000000E+00 0.  1.
          6    1    1    2  501    0 -0.24187968034E+03  0.23997986720E+03  0.19356930027E+03  0.42836221872E+03  0.17300000000E+03 0.  1.
         -6    1    1    2    0  503  0.24187968034E+03 -0.23997986720E+03  0.38743372798E+01  0.38215196835E+03  0.17300000000E+03 0.  1.
</event>
<event>
 4    1  0.5904698E+000  0.1000000E+03  0.7546771E-02  0.1280296E+00
         21   -1    0    0  501  502  0.00000000000E+00  0.00000000000E+00  0.90576194202E+02  0.90576194202E+02  0.00000000000E+00 0.  1.
         21   -1    0    0  502  503 -0.00000000000E+00 -0.00000000000E+00 -0.52703235713E+03  0.52703235713E+03  0.00000000000E+00 0.  1.
          6    1    1    2  501    0 -0.56226853055E+02 -0.32442274807E+02 -0.53440199315E+02  0.19235076060E+03  0.17300000000E+03 0.  1.
         -6    1    1    2    0  503  0.56226853055E+02  0.32442274807E+02 -0.38301596361E+03  0.42525779073E+03  0.17300000000E+03 0.  1.
</event>
<event>
 4    1  0.5904698E+000  0.1000000E+03  0.7546771E-02  0.1280296E+00
         21   -1    0    0  503  502  0.00000000000E+00  0.00000000000E+00  0.84617617499E+02  0.84617617499E+02  0.00000000000E+00 0.  1.
         21   -1    0    0  501  503 -0.00000000000E+00 -0.00000000000E+00 -0.64223944450E+03  0.64223944450E+03  0.00000000000E+00 0.  1.
          6    1    1    2  501    0  0.10071433947E+03 -0.10308048817E+03 -0.37295574686E+03  0.43565347965E+03  0.17300000000E+03 0.  1.
         -6    1    1    2    0  502 -0.10071433947E+03  0.10308048817E+03 -0.18466608014E+03  0.29120358235E+03  0.17300000000E+03 0.  1.
</event>
<event>
 4    1  0.5904698E+000  0.1000000E+03  0.7546771E-02  0.1280296E+00
         21   -1    0    0  501  502  0.00000000000E+00  0.00000000000E+00  0.69689319746E+03  0.69689319746E+03  0.00000000000E+00 0.  1.
         21   -1    0    0  502  503 -0.00000000000E+00 -0.00000000000E+00 -0.52124834353E+02  0.52124834353E+02  0.00000000000E+00 0.  1.
          6    1    1    2  501    0  0.38376477967E+02 -0.38933010477E+02  0.43709406084E+03  0.47325336912E+03  0.17300000000E+03 0.  1.
         -6    1    1    2    0  503 -0.38376477967E+02  0.38933010477E+02  0.20767430227E+03  0.27576466269E+03  0.17300000000E+03 0.  1.
</event>
<event>
 4    1  0.5904698E+000  0.1000000E+03  0.7546771E-02  0.1280296E+00
         21   -1    0    0  503  502  0.00000000000E+00  0.00000000000E+00  0.23926233352E+03  0.23926233352E+03  0.00000000000E+00 0. -1.
         21   -1    0    0  501  503 -0.00000000000E+00 -0.00000000000E+00 -0.13282739741E+03  0.13282739741E+03  0.00000000000E+00 0. -1.
          6    1    1    2  501    0 -0.45288446403E+01  0.20154294504E+02  0.13823755814E+02  0.17477643504E+03  0.17300000000E+03 0. -1.
         -6    1    1    2    0  502  0.45288446403E+01 -0.20154294504E+02  0.92611180296E+02  0.19731329589E+03  0.17300000000E+03 0. -1.
</event>
<event>
 4    1  0.5904698E+000  0.1000000E+03  0.7546771E-02  0.1280296E+00
         21   -1    0    0  503  502  0.00000000000E+00  0.00000000000E+00  0.17717442087E+03  0.17717442087E+03  0.00000000000E+00 0. -1.
         21   -1    0    0  501  503 -0.00000000000E+00 -0.00000000000E+00 -0.48095505854E+03  0.48095505854E+03  0.00000000000E+00 0. -1.
          6    1    1    2  501    0 -0.16331780608E+03 -0.40768632836E+01 -0.34251128138E+03  0.41705192060E+03  0.17300000000E+03 0. -1.
         -6    1    1    2    0  502  0.16331780608E+03  0.40768632836E+01  0.38730643713E+02  0.24107755881E+03  0.17300000000E+03 0. -1.
</event>
<event>
 4    1  0.5904698E+000  0.1000000E+03  0.7546771E-02  0.1280296E+00
         21   -1    0    0  501  502  0.00000000000E+00  0.00000000000E+00  0.10265769326E+04  0.10265769326E+04  0.00000000000E+00 0.  1.
         21   -1    0    0  502  503 -0.00000000000E+00 -0.00000000000E+00 -0.52893992774E+02  0.52893992774E+02  0.00000000000E+00 0.  1.
          6    1    1    2  501    0  0.88934944210E+02 -0.21857510013E+02  0.77967380264E+03  0.80387027160E+03  0.17300000000E+03 0.  1.
         -6    1    1    2    0  503 -0.88934944210E+02  0.21857510013E+02  0.19400913718E+03  0.27560065376E+03  0.17300000000E+03 0.  1.
</event>
<event>
 4    1  0.5904698E+000  0.1000000E+03  0.7546771E-02  0.1280296E+00
         21   -1    0    0  501  502  0.00000000000E+00  0.00000000000E+00  0.70678062602E+02  0.70678062602E+02  0.00000000000E+00 0.  1.
         21   -1    0    0  502  503 -0.00000000000E+00 -0.00000000000E+00 -0.58994775198E+03  0.58994775198E+03  0.00000000000E+00 0.  1.
          6    1    1    2  501    0  0.35366147088E+02  0.34343277212E+02 -0.10332606758E+03  0.20744999709E+03  0.17300000000E+03 0.  1.
         -6    1    1    2    0  503 -0.35366147088E+02 -0.34343277212E+02 -0.41594362180E+03  0.45317581750E+03  0.17300000000E+03 0.  1.
</event>
<event>
 4    1  0.5904698E+000  0.1000000E+03  0.7546771E-02  0.1280296E+00
         21   -1    0    0  503  502  0.00000000000E+00  0.00000000000E+00  0.36156011940E+02  0.36156011940E+02  0.00000000000E+00 0. -1.
         21   -1    0    0  501  503 -0.00000000000E+00 -0.00000000000E+00 -0.15661432230E+04  0.15661432230E+04  0.00000000000E+00 0.  1.
          6    1    1    2  501    0  0.76227090337E+02  0.36707441410E+02 -0.12355948835E+04  0.12505125836E+04  0.17300000000E+03 0.  1.
         -6    1    1    2    0  502 -0.76227090337E+02 -0.36707441410E+02 -0.29439232761E+03  0.35178665141E+03  0.17300000000E+03 0. -1.
</event>
<event>
 4    1  0.5904698E+000  0.1000000E+03  0.7546771E-02  0.1280296E+00
         21   -1    0    0  503  502  0.00000000000E+00  0.00000000000E+00  0.69716573358E+03  0.69716573358E+03  0.00000000000E+00 0. -1.
         21   -1    0    0  501  503 -0.00000000000E+00 -0.00000000000E+00 -0.29218521750E+03  0.29218521750E+03  0.00000000000E+00 0.  1.
          6    1    1    2  501    0  0.16981135371E+03  0.22606715797E+02 -0.21403877360E+03  0.32417365107E+03  0.17300000000E+03 0.  1.
         -6    1    1    2    0  502 -0.16981135371E+03 -0.22606715797E+02  0.61901928967E+03  0.66517730000E+03  0.17300000000E+03 0. -1.
</event>
<event>
 4    1  0.5904698E+000  0.1000000E+03  0.7546771E-02  0.1280296E+00
         21   -1    0    0  501  502  0.00000000000E+00  0.00000000000E+00  0.77036655998E+03  0.77036655998E+03  0.00000000000E+00 0. -1.
         21   -1    0    0  502  503 -0.00000000000E+00 -0.00000000000E+00 -0.24438737251E+03  0.24438737251E+03  0.00000000000E+00 0. -1.
          6    1    1    2  501    0  0.45137775954E+02 -0.11747001323E+03  0.70441110708E+03  0.73617975428E+03  0.17300000000E+03 0. -1.
         -6    1    1    2    0  503 -0.45137775954E+02  0.11747001323E+03 -0.17843191961E+03  0.27857417821E+03  0.17300000000E+03 0. -1.
</event>
<event>
 4    1  0.5904698E+000  0.1000000E+03  0.7546771E-02  0.1280296E+00
         21   -1    0    0  501  502  0.00000000000E+00  0.00000000000E+00  0.20782981322E+02  0.20782981322E+02  0.00000000000E+00 0.  1.
         21   -1    0    0  502  503 -0.00000000000E+00 -0.00000000000E+00 -0.28224936221E+04  0.28224936221E+04  0.00000000000E+00 0.  1.
          6    1    1    2  501    0 -0.82386991975E+02  0.97807479159E+02 -0.74783774051E+03  0.77816720926E+03  0.17300000000E+03 0.  1.
         -6    1    1    2    0  503  0.82386991975E+02 -0.97807479159E+02 -0.20538729002E+04  0.20651093941E+04  0.17300000000E+03 0.  1.
</event>
<event>
 4    1  0.5904698E+000  0.1000000E+03  0.7546771E-02  0.1280296E+00
         21   -1    0    0  501  502  0.00000000000E+00  0.00000000000E+00  0.37013066447E+03  0.37013066447E+03  0.00000000000E+00 0.  1.
         21   -1    0    0  502  503 -0.00000000000E+00 -0.00000000000E+00 -0.13122583938E+03  0.13122583938E+03  0.00000000000E+00 0.  1.
          6    1    1    2  501    0  0.10021156261E+02  0.18886179516E+02  0.27283684022E+03  0.32376851720E+03  0.17300000000E+03 0.  1.
         -6    1    1    2    0  503 -0.10021156261E+02 -0.18886179516E+02 -0.33932015134E+02  0.17758798664E+03  0.17300000000E+03 0.  1.
</event>
<event>
 4    1  0.5904698E+000  0.1000000E+03  0.7546771E-02  0.1280296E+00
         21   -1    0    0  501  502  0.00000000000E+00  0.00000000000E+00  0.73848797960E+03  0.73848797960E+03  0.00000000000E+00 0. -1.
         21   -1    0    0  502  503 -0.00000000000E+00 -0.00000000000E+00 -0.70601450924E+02  0.70601450924E+02  0.00000000000E+00 0. -1.
          6    1    1    2  501    0 -0.14409233331E+03  0.13621825053E+02  0.39686120678E+03  0.45648217061E+03  0.17300000000E+03 0. -1.
         -6    1    1    2    0  503  0.14409233331E+03 -0.13621825053E+02  0.27102532190E+03  0.35260725992E+03  0.17300000000E+03 0. -1.
</event>
<event>
 4    1  0.5904698E+000  0.1000000E+03  0.7546771E-02  0.1280296E+00
         21   -1    0    0  501  502  0.00000000000E+00  0.00000000000E+00  0.14772384525E+03  0.14772384525E+03  0.00000000000E+00 0. -1.
         21   -1    0    0  502  503 -0.00000000000E+00 -0.00000000000E+00 -0.64899325580E+03  0.64899325580E+03  0.00000000000E+00 0. -1.
          6    1    1    2  501    0  0.11587943793E+03 -0.21566232544E+03 -0.15094115806E+03  0.33563449755E+03  0.17300000000E+03 0. -1.
         -6    1    1    2    0  503 -0.11587943793E+03  0.21566232544E+03 -0.35032825249E+03  0.46108260350E+03  0.17300000000E+03 0. -1.
</event>
<event>
 4    1  0.5904698E+000  0.1000000E+03  0.7546771E-02  0.1280296E+00
         21   -1    0    0  501  502  0.00000000000E+00  0.00000000000E+00  0.25259857350E+03  0.25259857350E+03  0.00000000000E+00 0. -1.
         21   -1    0    0  502  503 -0.00000000000E+00 -0.00000000000E+00 -0.89378328346E+03  0.89378328346E+03  0.00000000000E+00 0. -1.
          6    1    1    2  501    0 -0.58865433899E+00  0.10902361769E+03  0.19680124404E+03  0.28380666902E+03  0.17300000000E+03 0. -1.
         -6    1    1    2    0  503  0.58865433899E+00 -0.10902361769E+03 -0.83798595401E+03  0.86257518793E+03  0.17300000000E+03 0. -1.
</event>
<event>
 4    1  0.5904698E+000  0.1000000E+03  0.7546771E-02  0.1280296E+00
         21   -1    0    0  501  502  0.00000000000E+00  0.00000000000E+00  0.40724381628E+03  0.40724381628E+03  0.00000000000E+00 0.  1.
         21   -1    0    0  502  503 -0.00000000000E+00 -0.00000000000E+00 -0.10807223204E+03  0.10807223204E+03  0.00000000000E+00 0.  1.
          6    1    1    2  501    0  0.54355216993E+02  0.72625512842E+02  0.24355337605E+03  0.31221178984E+03  0.17300000000E+03 0.  1.
         -6    1    1    2    0  503 -0.54355216993E+02 -0.72625512842E+02  0.55618208185E+02  0.20310425848E+03  0.17300000000E+03 0.  1.
</event>
<event>
 4    1  0.5904698E+000  0.1000000E+03  0.7546771E-02  0.1280296E+00
         21   -1    0    0  503  502  0.00000000000E+00  0.00000000000E+00  0.31213752708E+03  0.31213752708E+03  0.00000000000E+00 0.  1.
         21   -1    0    0  501  503 -0.00000000000E+00 -0.00000000000E+00 -0.21448539335E+03  0.21448539335E+03  0.00000000000E+00 0. -1.
          6    1    1    2  501    0  0.14145011809E+03 -0.16648404563E+02 -0.82819436696E+02  0.23890032310E+03  0.17300000000E+03 0. -1.
         -6    1    1    2    0  502 -0.14145011809E+03  0.16648404563E+02  0.18047157042E+03  0.28772259733E+03  0.17300000000E+03 0.  1.
</event>
<event>
 4    1  0.5904698E+000  0.1000000E+03  0.7546771E-02  0.1280296E+00
         21   -1    0    0  503  502  0.00000000000E+00  0.00000000000E+00  0.99261071719E+03  0.99261071719E+03  0.00000000000E+00 0.  1.
         21   -1    0    0  501  503 -0.00000000000E+00 -0.00000000000E+00 -0.37909946988E+02  0.37909946988E+02  0.00000000000E+00 0. -1.
          6    1    1    2  501    0  0.61344040253E+02 -0.53729771862E+01  0.31128249372E+03  0.36141077883E+03  0.17300000000E+03 0. -1.
         -6    1    1    2    0  502 -0.61344040253E+02  0.53729771862E+01  0.64341827648E+03  0.66910988535E+03  0.17300000000E+03 0.  1.
</event>
<event>
 4    1  0.5904698E+000  0.1000000E+03  0.7546771E-02  0.1280296E+00
         21   -1    0    0  503  502  0.00000000000E+00  0.00000000000E+00  0.99835001918E+02  0.99835001918E+02  0.00000000000E+00 0.  1.
         21   -1    0    0  501  503 -0.00000000000E+00 -0.00000000000E+00 -0.51340721171E+03  0.51340721171E+03  0.00000000000E+00 0. -1.
          6    1    1    2  501    0  0.10373116885E+03  0.17607637709E+02 -0.34394883991E+03  0.39912402680E+03  0.17300000000E+03 0. -1.
         -6    1    1    2    0  502 -0.10373116885E+03 -0.17607637709E+02 -0.69623369890E+02  0.21411818683E+03  0.17300000000E+03 0.  1.
</event>
<event>
 4    1  0.5904698E+000  0.1000000E+03  0.7546771E-02  0.1280296E+00
         21   -1    0    0  503  502  0.00000000000E+00  0.00000000000E+00  0.40789893719E+03  0.40789893719E+03  0.00000000000E+00 0.  1.
         21   -1    0    0  501  503 -0.00000000000E+00 -0.00000000000E+00 -0.11853058394E+03  0.11853058394E+03  0.00000000000E+00 0. -1.
          6    1    1    2  501    0 -0.70774206040E+01  0.93691817195E+02  0.27449414022E+02  0.19877302841E+03  0.17300000000E+03 0. -1.
         -6    1    1    2    0  502  0.70774206040E+01 -0.93691817195E+02  0.26191893923E+03  0.32765649272E+03  0.17300000000E+03 0.  1.
</event>
<event>
 4    1  0.5904698E+000  0.1000000E+03  0.7546771E-02  0.1280296E+00
         21   -1    0    0  501  502  0.00000000000E+00  0.00000000000E+00  0.18203100541E+03  0.18203100541E+03  0.00000000000E+00 0.  1.
         21   -1    0    0  502  503 -0.00000000000E+00 -0.00000000000E+00 -0.51901788063E+03  0.51901788063E+03  0.00000000000E+00 0. -1.
          6    1    1    2  501    0 -0.39737910850E+02 -0.21290516454E+01  0.11766270664E+03  0.21297217413E+03  0.17300000000E+03 0. -1.
         -6    1    1    2    0  503  0.39737910850E+02  0.21290516454E+01 -0.45464958186E+03  0.48807671191E+03  0.17300000000E+03 0.  1.
</event>
<event>
 4    1  0.5904698E+000  0.1000000E+03  0.7546771E-02  0.1280296E+00
         21   -1    0    0  501  502  0.00000000000E+00  0.00000000000E+00  0.84557794192E+03  0.84557794192E+03  0.00000000000E+00 0.  1.
         21   -1    0    0  502  503 -0.00000000000E+00 -0.00000000000E+00 -0.41143629157E+02  0.41143629157E+02  0.00000000000E+00 0. -1.
          6    1    1    2  501    0  0.39305955335E+02 -0.54018997152E+02  0.44964620176E+03  0.48638844243E+03  0.17300000000E+03 0. -1.
         -6    1    1    2    0  503 -0.39305955335E+02  0.54018997152E+02  0.35478811100E+03  0.40033312864E+03  0.17300000000E+03 0.  1.
</event>
<event>
 4    1  0.5904698E+000  0.1000000E+03  0.7546771E-02  0.1280296E+00
         21   -1    0    0  501  502  0.00000000000E+00  0.00000000000E+00  0.24898979666E+03  0.24898979666E+03  0.00000000000E+00 0.  1.
         21   -1    0    0  502  503 -0.00000000000E+00 -0.00000000000E+00 -0.18439998074E+03  0.18439998074E+03  0.00000000000E+00 0. -1.
          6    1    1    2  501    0  0.87300577153E+02 -0.15402081009E+02  0.12345788658E+03  0.23028127286E+03  0.17300000000E+03 0. -1.
         -6    1    1    2    0  503 -0.87300577153E+02  0.15402081009E+02 -0.58868070663E+02  0.20310850453E+03  0.17300000000E+03 0.  1.
</event>
<event>
 4    1  0.5904698E+000  0.1000000E+03  0.7546771E-02  0.1280296E+00
         21   -1    0    0  503  502  0.00000000000E+00  0.00000000000E+00  0.40959610219E+02  0.40959610219E+02  0.00000000000E+00 0. -1.
         21   -1    0    0  501  503 -0.00000000000E+00 -0.00000000000E+00 -0.16650586888E+04  0.16650586888E+04  0.00000000000E+00 0. -1.
          6    1    1    2  501    0  0.43367967257E+02 -0.88304159972E+02 -0.13643672502E+04  0.13788057871E+04  0.17300000000E+03 0. -1.
         -6    1    1    2    0  502 -0.43367967257E+02  0.88304159972E+02 -0.25973182839E+03  0.32721251188E+03  0.17300000000E+03 0. -1.
</event>
<event>
 4    1  0.5904698E+000  0.1000000E+03  0.7546771E-02  0.1280296E+00
         21   -1    0    0  503  502  0.00000000000E+00  0.00000000000E+00  0.10542902948E+03  0.10542902948E+03  0.00000000000E+00 0.  1.
         21   -1    0    0  501  503 -0.00000000000E+00 -0.00000000000E+00 -0.87566670721E+03  0.87566670721E+03  0.00000000000E+00 0. -1.
          6    1    1    2  501    0 -0.62884124989E+02  0.87540959820E+02 -0.74890984052E+03  0.77615255076E+03  0.17300000000E+03 0. -1.
         -6    1    1    2    0  502  0.62884124989E+02 -0.87540959820E+02 -0.21327837213E+02  0.20494318594E+03  0.17300000000E+03 0.  1.
</event>
<event>
 4    1  0.5904698E+000  0.1000000E+03  0.7546771E-02  0.1280296E+00
         21   -1    0    0  503  502  0.00000000000E+00  0.00000000000E+00  0.19873502211E+03  0.19873502211E+03  0.00000000000E+00 0.  1.
         21   -1    0    0  501  503 -0.00000000000E+00 -0.00000000000E+00 -0.61009222435E+03  0.61009222435E+03  0.00000000000E+00 0. -1.
          6    1    1    2  501    0 -0.16404556680E+03 -0.15581244807E+03 -0.43833832755E+03  0.52274081183E+03  0.17300000000E+03 0. -1.
         -6    1    1    2    0  502  0.16404556680E+03  0.15581244807E+03  0.26981125309E+02  0.28608643463E+03  0.17300000000E+03 0.  1.
</event>
<event>
 4    1  0.5904698E+000  0.1000000E+03  0.7546771E-02  0.1280296E+00
         21   -1    0    0  503  502  0.00000000000E+00  0.00000000000E+00  0.28958734562E+03  0.28958734562E+03  0.00000000000E+00 0.  1.
         21   -1    0    0  501  503 -0.00000000000E+00 -0.00000000000E+00 -0.22888685149E+03  0.22888685149E+03  0.00000000000E+00 0. -1.
          6    1    1    2  501    0  0.63338619911E+02 -0.10242949210E+03  0.17919179980E+03  0.27666275994E+03  0.17300000000E+03 0. -1.
         -6    1    1    2    0  502 -0.63338619911E+02  0.10242949210E+03 -0.11849130568E+03  0.24181143717E+03  0.17300000000E+03 0.  1.
</event>
<event>
 4    1  0.5904698E+000  0.1000000E+03  0.7546771E-02  0.1280296E+00
         21   -1    0    0  501  502  0.00000000000E+00  0.00000000000E+00  0.25552249302E+03  0.25552249302E+03  0.00000000000E+00 0. -1.
         21   -1    0    0  502  503 -0.00000000000E+00 -0.00000000000E+00 -0.69895731112E+03  0.69895731112E+03  0.00000000000E+00 0. -1.
          6    1    1    2  501    0 -0.27839226723E+03 -0.14438936826E+03  0.31600666409E+02  0.35955270300E+03  0.17300000000E+03 0. -1.
         -6    1    1    2    0  503  0.27839226723E+03  0.14438936826E+03 -0.47503548451E+03  0.59492710113E+03  0.17300000000E+03 0. -1.
</event>
<event>
 4    1  0.5904698E+000  0.1000000E+03  0.7546771E-02  0.1280296E+00
         21   -1    0    0  503  502  0.00000000000E+00  0.00000000000E+00  0.58284933291E+03  0.58284933291E+03  0.00000000000E+00 0. -1.
         21   -1    0    0  501  503 -0.00000000000E+00 -0.00000000000E+00 -0.23518113580E+03  0.23518113580E+03  0.00000000000E+00 0. -1.
          6    1    1    2  501    0 -0.16247120628E+03 -0.27423359964E+03  0.25609983955E+03  0.44397870204E+03  0.17300000000E+03 0. -1.
         -6    1    1    2    0  502  0.16247120628E+03  0.27423359964E+03  0.91568357566E+02  0.37405176667E+03  0.17300000000E+03 0. -1.
</event>
<event>
 4    1  0.5904698E+000  0.1000000E+03  0.7546771E-02  0.1280296E+00
         21   -1    0    0  503  502  0.00000000000E+00  0.00000000000E+00  0.68759757540E+03  0.68759757540E+03  0.00000000000E+00 0. -1.
         21   -1    0    0  501  503 -0.00000000000E+00 -0.00000000000E+00 -0.68680662840E+02  0.68680662840E+02  0.00000000000E+00 0. -1.
          6    1    1    2  501    0  0.50343791348E+01  0.80174545941E+02  0.12827063557E+03  0.22986008514E+03  0.17300000000E+03 0. -1.
         -6    1    1    2    0  502 -0.50343791348E+01 -0.80174545941E+02  0.49064627699E+03  0.52641815310E+03  0.17300000000E+03 0. -1.
</event>
<event>
 4    1  0.5904698E+000  0.1000000E+03  0.7546771E-02  0.1280296E+00
         21   -1    0    0  501  502  0.00000000000E+00  0.00000000000E+00  0.27316851622E+03  0.27316851622E+03  0.00000000000E+00 0.  1.
         21   -1    0    0  502  503 -0.00000000000E+00 -0.00000000000E+00 -0.28760848021E+03  0.28760848021E+03  0.00000000000E+00 0. -1.
          6    1    1    2  501    0  0.51838690313E+02  0.14849464639E+03  0.14742324840E+03  0.27640644708E+03  0.17300000000E+03 0. -1.
         -6    1    1    2    0  503 -0.51838690313E+02 -0.14849464639E+03 -0.16186321238E+03  0.28437054936E+03  0.17300000000E+03 0.  1.
</event>
<event>
 4    1  0.5904698E+000  0.1000000E+03  0.7546771E-02  0.1280296E+00
         21   -1    0    0  503  502  0.00000000000E+00  0.00000000000E+00  0.62254479789E+03  0.62254479789E+03  0.00000000000E+00 0.  1.
         21   -1    0    0  501  503 -0.00000000000E+00 -0.00000000000E+00 -0.12143129072E+03  0.12143129072E+03  0.00000000000E+00 0.  1.
          6    1    1    2  501    0 -0.13317398605E+03  0.12862505304E+03  0.10618027407E+03  0.27474163396E+03  0.17300000000E+03 0. -1.
         -6    1    1    2    0  502  0.13317398605E+03 -0.12862505304E+03  0.39493323310E+03  0.46923445465E+03  0.17300000000E+03 0. -1.
</event>
<event>
 4    1  0.5904698E+000  0.1000000E+03  0.7546771E-02  0.1280296E+00
         21   -1    0    0  503  502  0.00000000000E+00  0.00000000000E+00  0.73354042060E+03  0.73354042060E+03  0.00000000000E+00 0. -1.
         21   -1    0    0  501  503 -0.00000000000E+00 -0.00000000000E+00 -0.81091980569E+02  0.81091980569E+02  0.00000000000E+00 0. -1.
          6    1    1    2  501    0 -0.96434770219E+02  0.14003859486E+03  0.28381756828E+03  0.37335222648E+03  0.17300000000E+03 0. -1.
         -6    1    1    2    0  502  0.96434770219E+02 -0.14003859486E+03  0.36863087176E+03  0.44128017469E+03  0.17300000000E+03 0. -1.
</event>
<event>
 4    1  0.5904698E+000  0.1000000E+03  0.7546771E-02  0.1280296E+00
         21   -1    0    0  503  502  0.00000000000E+00  0.00000000000E+00  0.59373921690E+03  0.59373921690E+03  0.00000000000E+00 0. -1.
         21   -1    0    0  501  503 -0.00000000000E+00 -0.00000000000E+00 -0.14807841593E+03  0.14807841593E+03  0.00000000000E+00 0. -1.
          6    1    1    2  501    0 -0.18127169753E+03 -0.27182076145E+02  0.27462562110E+02  0.25353793781E+03  0.17300000000E+03 0. -1.
         -6    1    1    2    0  502  0.18127169753E+03  0.27182076145E+02  0.41819823885E+03  0.48827969502E+03  0.17300000000E+03 0. -1.
</event>
<event>
 4    1  0.5904698E+000  0.1000000E+03  0.7546771E-02  0.1280296E+00
         21   -1    0    0  501  502  0.00000000000E+00  0.00000000000E+00  0.24016857876E+03  0.24016857876E+03  0.00000000000E+00 0.  1.
         21   -1    0    0  502  503 -0.00000000000E+00 -0.00000000000E+00 -0.53014997168E+03  0.53014997168E+03  0.00000000000E+00 0.  1.
          6    1    1    2  501    0  0.37999404329E+02  0.50878990036E+02  0.18482552594E+03  0.26100210995E+03  0.17300000000E+03 0.  1.
         -6    1    1    2    0  503 -0.37999404329E+02 -0.50878990036E+02 -0.47480691886E+03  0.50931644049E+03  0.17300000000E+03 0.  1.
</event>
<event>
 4    1  0.5904698E+000  0.1000000E+03  0.7546771E-02  0.1280296E+00
         21   -1    0    0  503  502  0.00000000000E+00  0.00000000000E+00  0.23826443577E+03  0.23826443577E+03  0.00000000000E+00 0. -1.
         21   -1    0    0  501  503 -0.00000000000E+00 -0.00000000000E+00 -0.47060725324E+03  0.47060725324E+03  0.00000000000E+00 0. -1.
          6    1    1    2  501    0  0.82465994851E+02  0.18768906371E+03 -0.32832052970E+03  0.42397074801E+03  0.17300000000E+03 0. -1.
         -6    1    1    2    0  502 -0.82465994851E+02 -0.18768906371E+03  0.95977712232E+02  0.28490094101E+03  0.17300000000E+03 0. -1.
</event>
<event>
 4    1  0.5904698E+000  0.1000000E+03  0.7546771E-02  0.1280296E+00
         21   -1    0    0  503  502  0.00000000000E+00  0.00000000000E+00  0.12235931580E+03  0.12235931580E+03  0.00000000000E+00 0. -1.
         21   -1    0    0  501  503 -0.00000000000E+00 -0.00000000000E+00 -0.33508493844E+03  0.33508493844E+03  0.00000000000E+00 0. -1.
          6    1    1    2  501    0  0.51002537384E+02  0.61507154508E+02 -0.18369798301E+03  0.26468535630E+03  0.17300000000E+03 0. -1.
         -6    1    1    2    0  502 -0.51002537384E+02 -0.61507154508E+02 -0.29027639622E+02  0.19275889795E+03  0.17300000000E+03 0. -1.
</event>
<event>
 4    1  0.5904698E+000  0.1000000E+03  0.7546771E-02  0.1280296E+00
         21   -1    0    0  501  502  0.00000000000E+00  0.00000000000E+00  0.11351312450E+03  0.11351312450E+03  0.00000000000E+00 0.  1.
         21   -1    0    0  502  503 -0.00000000000E+00 -0.00000000000E+00 -0.62237720811E+03  0.62237720811E+03  0.00000000000E+00 0. -1.
          6    1    1    2  501    0  0.35144376615E+02  0.14063486149E+02  0.19948008070E+02  0.17821288359E+03  0.17300000000E+03 0.  1.
         -6    1    1    2    0  503 -0.35144376615E+02 -0.14063486149E+02 -0.52881209168E+03  0.55767744903E+03  0.17300000000E+03 0. -1.
</event>
<event>
 4    1  0.5904698E+000  0.1000000E+03  0.7546771E-02  0.1280296E+00
         21   -1    0    0  501  502  0.00000000000E+00  0.00000000000E+00  0.94911397856E+02  0.94911397856E+02  0.00000000000E+00 0.  1.
         21   -1    0    0  502  503 -0.00000000000E+00 -0.00000000000E+00 -0.59320730388E+03  0.59320730388E+03  0.00000000000E+00 0. -1.
          6    1    1    2  501    0 -0.35976676778E+02 -0.32184431174E+01 -0.19567600506E+02  0.17781049080E+03  0.17300000000E+03 0.  1.
         -6    1    1    2    0  503  0.35976676778E+02  0.32184431174E+01 -0.47872830552E+03  0.51030821094E+03  0.17300000000E+03 0. -1.
</event>
<event>
 4    1  0.5904698E+000  0.1000000E+03  0.7546771E-02  0.1280296E+00
         21   -1    0    0  501  502  0.00000000000E+00  0.00000000000E+00  0.67572957485E+02  0.67572957485E+02  0.00000000000E+00 0.  1.
         21   -1    0    0  502  503 -0.00000000000E+00 -0.00000000000E+00 -0.86575831755E+03  0.86575831755E+03  0.00000000000E+00 0.  1.
          6    1    1    2  501    0  0.42500123035E+02 -0.68654726704E+02 -0.11257196640E+03  0.22163298395E+03  0.17300000000E+03 0. -1.
         -6    1    1    2    0  503 -0.42500123035E+02  0.68654726704E+02 -0.68561339367E+03  0.71169829109E+03  0.17300000000E+03 0. -1.
</event>
<event>
 4    1  0.5904698E+000  0.1000000E+03  0.7546771E-02  0.1280296E+00
         21   -1    0    0  501  502  0.00000000000E+00  0.00000000000E+00  0.61220974308E+02  0.61220974308E+02  0.00000000000E+00 0.  1.
         21   -1    0    0  502  503 -0.00000000000E+00 -0.00000000000E+00 -0.86885409095E+03  0.86885409095E+03  0.00000000000E+00 0.  1.
          6    1    1    2  501    0  0.13589988063E+03 -0.67875119536E+02 -0.43141060937E+03  0.48899889906E+03  0.17300000000E+03 0. -1.
         -6    1    1    2    0  503 -0.13589988063E+03  0.67875119536E+02 -0.37622250727E+03  0.44107616619E+03  0.17300000000E+03 0. -1.
</event>
<event>
 4    1  0.5904698E+000  0.1000000E+03  0.7546771E-02  0.1280296E+00
         21   -1    0    0  501  502  0.00000000000E+00  0.00000000000E+00  0.81059339868E+03  0.81059339868E+03  0.00000000000E+00 0.  1.
         21   -1    0    0  502  503 -0.00000000000E+00 -0.00000000000E+00 -0.47042218355E+02  0.47042218355E+02  0.00000000000E+00 0.  1.
          6    1    1    2  501    0  0.47390615599E+02  0.26779592418E+02  0.54073891962E+03  0.57034252533E+03  0.17300000000E+03 0. -1.
         -6    1    1    2    0  503 -0.47390615599E+02 -0.26779592418E+02  0.22281226071E+03  0.28729309170E+03  0.17300000000E+03 0. -1.
</event>
<event>
 4    1  0.5904698E+000  0.1000000E+03  0.7546771E-02  0.1280296E+00
         21   -1    0    0  503  502  0.00000000000E+00  0.00000000000E+00  0.78768492240E+02  0.78768492240E+02  0.00000000000E+00 0. -1.
         21   -1    0    0  501  503 -0.00000000000E+00 -0.00000000000E+00 -0.97971759313E+03  0.97971759313E+03  0.00000000000E+00 0. -1.
          6    1    1    2  501    0  0.13561510018E+02 -0.10901856997E+03 -0.80777422117E+03  0.83336495939E+03  0.17300000000E+03 0. -1.
         -6    1    1    2    0  502 -0.13561510018E+02  0.10901856997E+03 -0.93174879722E+02  0.22512112598E+03  0.17300000000E+03 0. -1.
</event>
<event>
 4    1  0.5904698E+000  0.1000000E+03  0.7546771E-02  0.1280296E+00
         21   -1    0    0  501  502  0.00000000000E+00  0.00000000000E+00  0.38934071065E+03  0.38934071065E+03  0.00000000000E+00 0. -1.
         21   -1    0    0  502  503 -0.00000000000E+00 -0.00000000000E+00 -0.26499289889E+03  0.26499289889E+03  0.00000000000E+00 0. -1.
          6    1    1    2  501    0 -0.59768272622E+02 -0.21084371083E+03  0.22391749810E+03  0.35790412510E+03  0.17300000000E+03 0. -1.
         -6    1    1    2    0  503  0.59768272622E+02  0.21084371083E+03 -0.99569686339E+02  0.29642948444E+03  0.17300000000E+03 0. -1.
</event>
<event>
 4    1  0.5904698E+000  0.1000000E+03  0.7546771E-02  0.1280296E+00
         21   -1    0    0  501  502  0.00000000000E+00  0.00000000000E+00  0.11400184190E+03  0.11400184190E+03  0.00000000000E+00 0. -1.
         21   -1    0    0  502  503 -0.00000000000E+00 -0.00000000000E+00 -0.47690461778E+03  0.47690461778E+03  0.00000000000E+00 0. -1.
          6    1    1    2  501    0 -0.88239455009E+02  0.11880960887E+03 -0.24527540678E+03  0.33465048894E+03  0.17300000000E+03 0. -1.
         -6    1    1    2    0  503  0.88239455009E+02 -0.11880960887E+03 -0.11762736910E+03  0.25625597074E+03  0.17300000000E+03 0. -1.
</event>
<event>
 4    1  0.5904698E+000  0.1000000E+03  0.7546771E-02  0.1280296E+00
         21   -1    0    0  501  502  0.00000000000E+00  0.00000000000E+00  0.10965629370E+03  0.10965629370E+03  0.00000000000E+00 0.  1.
         21   -1    0    0  502  503 -0.00000000000E+00 -0.00000000000E+00 -0.71959568857E+03  0.71959568857E+03  0.00000000000E+00 0. -1.
          6    1    1    2  501    0 -0.22028765612E+03 -0.75887407070E+01 -0.27563580580E+03  0.39305004499E+03  0.17300000000E+03 0.  1.
         -6    1    1    2    0  503  0.22028765612E+03  0.75887407070E+01 -0.33430358906E+03  0.43620193728E+03  0.17300000000E+03 0. -1.
</event>
<event>
 4    1  0.5904698E+000  0.1000000E+03  0.7546771E-02  0.1280296E+00
         21   -1    0    0  503  502  0.00000000000E+00  0.00000000000E+00  0.18140451772E+04  0.18140451772E+04  0.00000000000E+00 0.  1.
         21   -1    0    0  501  503 -0.00000000000E+00 -0.00000000000E+00 -0.62754807084E+02  0.62754807084E+02  0.00000000000E+00 0.  1.
          6    1    1    2  501    0  0.17920026907E+03 -0.18254075301E+03  0.49758718302E+03  0.58562434004E+03  0.17300000000E+03 0.  1.
         -6    1    1    2    0  502 -0.17920026907E+03  0.18254075301E+03  0.12537031871E+04  0.12911756442E+04  0.17300000000E+03 0.  1.
</event>
<event>
 4    1  0.5904698E+000  0.1000000E+03  0.7546771E-02  0.1280296E+00
         21   -1    0    0  503  502  0.00000000000E+00  0.00000000000E+00  0.15052624179E+03  0.15052624179E+03  0.00000000000E+00 0.  1.
         21   -1    0    0  501  503 -0.00000000000E+00 -0.00000000000E+00 -0.20874181610E+03  0.20874181610E+03  0.00000000000E+00 0.  1.
          6    1    1    2  501    0 -0.19968704913E+02  0.31310974796E+02 -0.39880049744E+02  0.18137955973E+03  0.17300000000E+03 0.  1.
         -6    1    1    2    0  502  0.19968704913E+02 -0.31310974796E+02 -0.18335524559E+02  0.17788849817E+03  0.17300000000E+03 0.  1.
</event>
<event>
 4    1  0.5904698E+000  0.1000000E+03  0.7546771E-02  0.1280296E+00
         21   -1    0    0  503  502  0.00000000000E+00  0.00000000000E+00  0.57089948764E+03  0.57089948764E+03  0.00000000000E+00 0. -1.
         21   -1    0    0  501  503 -0.00000000000E+00 -0.00000000000E+00 -0.36860025731E+03  0.36860025731E+03  0.00000000000E+00 0.  1.
          6    1    1    2  501    0 -0.76446391281E+02 -0.40778208158E+02 -0.32477162523E+03  0.37803772505E+03  0.17300000000E+03 0.  1.
         -6    1    1    2    0  502  0.76446391281E+02  0.40778208158E+02  0.52707085557E+03  0.56146201990E+03  0.17300000000E+03 0.  1.
</event>
<event>
 4    1  0.5904698E+000  0.1000000E+03  0.7546771E-02  0.1280296E+00
         21   -1    0    0  501  502  0.00000000000E+00  0.00000000000E+00  0.78518123207E+03  0.78518123207E+03  0.00000000000E+00 0. -1.
         21   -1    0    0  502  503 -0.00000000000E+00 -0.00000000000E+00 -0.31808042794E+03  0.31808042794E+03  0.00000000000E+00 0. -1.
          6    1    1    2  501    0  0.24235516537E+03  0.23462942127E+03 -0.12588371190E+03  0.39945300152E+03  0.17300000000E+03 0. -1.
         -6    1    1    2    0  503 -0.24235516537E+03 -0.23462942127E+03  0.59298451603E+03  0.70380865848E+03  0.17300000000E+03 0. -1.
</event>
<event>
 4    1  0.5904698E+000  0.1000000E+03  0.7546771E-02  0.1280296E+00
         21   -1    0    0  501  502  0.00000000000E+00  0.00000000000E+00  0.14719286570E+04  0.14719286570E+04  0.00000000000E+00 0. -1.
         21   -1    0    0  502  503 -0.00000000000E+00 -0.00000000000E+00 -0.98929515248E+02  0.98929515248E+02  0.00000000000E+00 0. -1.
          6    1    1    2  501    0  0.74120325507E+02 -0.46817660575E+01  0.13696827373E+04  0.13825612256E+04  0.17300000000E+03 0. -1.
         -6    1    1    2    0  503 -0.74120325507E+02  0.46817660575E+01  0.33164044418E+01  0.18829694667E+03  0.17300000000E+03 0. -1.
</event>
<event>
 4    1  0.5904698E+000  0.1000000E+03  0.7546771E-02  0.1280296E+00
         21   -1    0    0  501  502  0.00000000000E+00  0.00000000000E+00  0.33907637605E+03  0.33907637605E+03  0.00000000000E+00 0. -1.
         21   -1    0    0  502  503 -0.00000000000E+00 -0.00000000000E+00 -0.17739503591E+03  0.17739503591E+03  0.00000000000E+00 0. -1.
          6    1    1    2  501    0 -0.98691947508E+02  0.13154823999E+03  0.14018321426E+03  0.27681288537E+03  0.17300000000E+03 0. -1.
         -6    1    1    2    0  503  0.98691947508E+02 -0.13154823999E+03  0.21498125878E+02  0.23965852658E+03  0.17300000000E+03 0. -1.
</event>
<event>
 4    1  0.5904698E+000  0.1000000E+03  0.7546771E-02  0.1280296E+00
         21   -1    0    0  501  502  0.00000000000E+00  0.00000000000E+00  0.67949135196E+03  0.67949135196E+03  0.00000000000E+00 0. -1.
         21   -1    0    0  502  503 -0.00000000000E+00 -0.00000000000E+00 -0.10902221079E+03  0.10902221079E+03  0.00000000000E+00 0. -1.
          6    1    1    2  501    0 -0.10010396452E+03  0.14028623627E+02  0.18400599652E+02  0.20120931405E+03  0.17300000000E+03 0. -1.
         -6    1    1    2    0  503  0.10010396452E+03 -0.14028623627E+02  0.55206854152E+03  0.58730424869E+03  0.17300000000E+03 0. -1.
</event>
<event>
 4    1  0.5904698E+000  0.1000000E+03  0.7546771E-02  0.1280296E+00
         21   -1    0    0  501  502  0.00000000000E+00  0.00000000000E+00  0.14262811678E+03  0.14262811678E+03  0.00000000000E+00 0. -1.
         21   -1    0    0  502  503 -0.00000000000E+00 -0.00000000000E+00 -0.16570522537E+04  0.16570522537E+04  0.00000000000E+00 0. -1.
          6    1    1    2  501    0  0.61335925693E+02 -0.40423418834E+02  0.72660106352E+02  0.20150592951E+03  0.17300000000E+03 0. -1.
         -6    1    1    2    0  503 -0.61335925693E+02  0.40423418834E+02 -0.15870842433E+04  0.15981744410E+04  0.17300000000E+03 0. -1.
</event>
<event>
 4    1  0.5904698E+000  0.1000000E+03  0.7546771E-02  0.1280296E+00
         21   -1    0    0  501  502  0.00000000000E+00  0.00000000000E+00  0.13411987035E+04  0.13411987035E+04  0.00000000000E+00 0. -1.
         21   -1    0    0  502  503 -0.00000000000E+00 -0.00000000000E+00 -0.38652607511E+02  0.38652607511E+02  0.00000000000E+00 0. -1.
          6    1    1    2  501    0 -0.64673897688E+02  0.12240513274E+03  0.81006347319E+03  0.83981995699E+03  0.17300000000E+03 0. -1.
         -6    1    1    2    0  503  0.64673897688E+02 -0.12240513274E+03  0.49248262276E+03  0.54003135398E+03  0.17300000000E+03 0. -1.
</event>
<event>
 4    1  0.5904698E+000  0.1000000E+03  0.7546771E-02  0.1280296E+00
         21   -1    0    0  503  502  0.00000000000E+00  0.00000000000E+00  0.43716543165E+03  0.43716543165E+03  0.00000000000E+00 0.  1.
         21   -1    0    0  501  503 -0.00000000000E+00 -0.00000000000E+00 -0.15492081949E+03  0.15492081949E+03  0.00000000000E+00 0.  1.
          6    1    1    2  501    0 -0.45255762150E+02  0.15415342787E+03  0.16582489055E+02  0.23667560558E+03  0.17300000000E+03 0. -1.
         -6    1    1    2    0  502  0.45255762150E+02 -0.15415342787E+03  0.26566212310E+03  0.35541064557E+03  0.17300000000E+03 0. -1.
</event>
<event>
 4    1  0.5904698E+000  0.1000000E+03  0.7546771E-02  0.1280296E+00
         21   -1    0    0  503  502  0.00000000000E+00  0.00000000000E+00  0.27653128853E+03  0.27653128853E+03  0.00000000000E+00 0.  1.
         21   -1    0    0  501  503 -0.00000000000E+00 -0.00000000000E+00 -0.41011860699E+03  0.41011860699E+03  0.00000000000E+00 0.  1.
          6    1    1    2  501    0  0.93643188481E+02 -0.20487905823E+03  0.11766495088E+03  0.30743863764E+03  0.17300000000E+03 0. -1.
         -6    1    1    2    0  502 -0.93643188481E+02  0.20487905823E+03 -0.25125226935E+03  0.37921125788E+03  0.17300000000E+03 0. -1.
</event>
<event>
 4    1  0.5904698E+000  0.1000000E+03  0.7546771E-02  0.1280296E+00
         21   -1    0    0  503  502  0.00000000000E+00  0.00000000000E+00  0.26788688526E+03  0.26788688526E+03  0.00000000000E+00 0.  1.
         21   -1    0    0  501  503 -0.00000000000E+00 -0.00000000000E+00 -0.18920723726E+03  0.18920723726E+03  0.00000000000E+00 0.  1.
          6    1    1    2  501    0 -0.85304047646E+02  0.13819233558E+02 -0.77686481829E+02  0.20840331384E+03  0.17300000000E+03 0. -1.
         -6    1    1    2    0  502  0.85304047646E+02 -0.13819233558E+02  0.15636612984E+03  0.24869080868E+03  0.17300000000E+03 0. -1.
</event>
<event>
 4    1  0.5904698E+000  0.1000000E+03  0.7546771E-02  0.1280296E+00
         21   -1    0    0  501  502  0.00000000000E+00  0.00000000000E+00  0.87527463240E+03  0.87527463240E+03  0.00000000000E+00 0.  1.
         21   -1    0    0  502  503 -0.00000000000E+00 -0.00000000000E+00 -0.74815699009E+02  0.74815699009E+02  0.00000000000E+00 0. -1.
          6    1    1    2  501    0 -0.63451192807E+02 -0.91286762853E+02  0.11749906781E+03  0.23684247482E+03  0.17300000000E+03 0.  1.
         -6    1    1    2    0  503  0.63451192807E+02  0.91286762853E+02  0.68295986558E+03  0.71324785659E+03  0.17300000000E+03 0. -1.
</event>
<event>
 4    1  0.5904698E+000  0.1000000E+03  0.7546771E-02  0.1280296E+00
         21   -1    0    0  501  502  0.00000000000E+00  0.00000000000E+00  0.80841398712E+03  0.80841398712E+03  0.00000000000E+00 0.  1.
         21   -1    0    0  502  503 -0.00000000000E+00 -0.00000000000E+00 -0.93885424347E+02  0.93885424347E+02  0.00000000000E+00 0. -1.
          6    1    1    2  501    0 -0.27578975871E+02 -0.14032966237E+02  0.70469459569E+03  0.72627887016E+03  0.17300000000E+03 0.  1.
         -6    1    1    2    0  503  0.27578975871E+02  0.14032966237E+02  0.98339670805E+01  0.17602054130E+03  0.17300000000E+03 0. -1.
</event>
<event>
 4    1  0.5904698E+000  0.1000000E+03  0.7546771E-02  0.1280296E+00
         21   -1    0    0  501  502  0.00000000000E+00  0.00000000000E+00  0.12007679377E+03  0.12007679377E+03  0.00000000000E+00 0.  1.
         21   -1    0    0  502  503 -0.00000000000E+00 -0.00000000000E+00 -0.50363514454E+03  0.50363514454E+03  0.00000000000E+00 0. -1.
          6    1    1    2  501    0 -0.88220140712E+02 -0.13055970418E+03 -0.95891978820E+02  0.25288910847E+03  0.17300000000E+03 0.  1.
         -6    1    1    2    0  503  0.88220140712E+02  0.13055970418E+03 -0.28766637194E+03  0.37082282984E+03  0.17300000000E+03 0. -1.
</event>
<event>
 4    1  0.5904698E+000  0.1000000E+03  0.7546771E-02  0.1280296E+00
         21   -1    0    0  501  502  0.00000000000E+00  0.00000000000E+00  0.24870796916E+03  0.24870796916E+03  0.00000000000E+00 0.  1.
         21   -1    0    0  502  503 -0.00000000000E+00 -0.00000000000E+00 -0.22745040008E+03  0.22745040008E+03  0.00000000000E+00 0. -1.
          6    1    1    2  501    0  0.14913727205E+03 -0.62253517859E+02  0.33505492226E+02  0.23910049019E+03  0.17300000000E+03 0.  1.
         -6    1    1    2    0  503 -0.14913727205E+03  0.62253517859E+02 -0.12247923151E+02  0.23705787905E+03  0.17300000000E+03 0. -1.
</event>
<event>
 4    1  0.5904698E+000  0.1000000E+03  0.7546771E-02  0.1280296E+00
         21   -1    0    0  503  502  0.00000000000E+00  0.00000000000E+00  0.34339889482E+03  0.34339889482E+03  0.00000000000E+00 0. -1.
         21   -1    0    0  501  503 -0.00000000000E+00 -0.00000000000E+00 -0.32453228088E+03  0.32453228088E+03  0.00000000000E+00 0. -1.
          6    1    1    2  501    0  0.19029544435E+03  0.17752912771E+03 -0.10802769655E+03  0.33064774391E+03  0.17300000000E+03 0. -1.
         -6    1    1    2    0  502 -0.19029544435E+03 -0.17752912771E+03  0.12689431050E+03  0.33728343180E+03  0.17300000000E+03 0. -1.
</event>
<event>
 4    1  0.5904698E+000  0.1000000E+03  0.7546771E-02  0.1280296E+00
         21   -1    0    0  503  502  0.00000000000E+00  0.00000000000E+00  0.13399833667E+03  0.13399833667E+03  0.00000000000E+00 0. -1.
         21   -1    0    0  501  503 -0.00000000000E+00 -0.00000000000E+00 -0.32195476257E+03  0.32195476257E+03  0.00000000000E+00 0. -1.
          6    1    1    2  501    0  0.55216946085E+02  0.50647897380E+02 -0.18965371511E+03  0.26741662682E+03  0.17300000000E+03 0. -1.
         -6    1    1    2    0  502 -0.55216946085E+02 -0.50647897380E+02  0.16972892007E+01  0.18853647243E+03  0.17300000000E+03 0. -1.
</event>
<event>
 4    1  0.5904698E+000  0.1000000E+03  0.7546771E-02  0.1280296E+00
         21   -1    0    0  503  502  0.00000000000E+00  0.00000000000E+00  0.11655326877E+03  0.11655326877E+03  0.00000000000E+00 0. -1.
         21   -1    0    0  501  503 -0.00000000000E+00 -0.00000000000E+00 -0.30030454414E+03  0.30030454414E+03  0.00000000000E+00 0. -1.
          6    1    1    2  501    0 -0.27143246811E+02 -0.44570914145E+02 -0.37878527959E+02  0.18462693497E+03  0.17300000000E+03 0. -1.
         -6    1    1    2    0  502  0.27143246811E+02  0.44570914145E+02 -0.14587274740E+03  0.23223087794E+03  0.17300000000E+03 0. -1.
</event>
<event>
 4    1  0.5904698E+000  0.1000000E+03  0.7546771E-02  0.1280296E+00
         21   -1    0    0  503  502  0.00000000000E+00  0.00000000000E+00  0.74920551516E+02  0.74920551516E+02  0.00000000000E+00 0. -1.
         21   -1    0    0  501  503 -0.00000000000E+00 -0.00000000000E+00 -0.86055271927E+03  0.86055271927E+03  0.00000000000E+00 0. -1.
          6    1    1    2  501    0 -0.82777232841E+02  0.13020448156E+03 -0.20192300475E+03  0.30742019638E+03  0.17300000000E+03 0. -1.
         -6    1    1    2    0  502  0.82777232841E+02 -0.13020448156E+03 -0.58370916300E+03  0.62805307440E+03  0.17300000000E+03 0. -1.
</event>
<event>
 4    1  0.5904698E+000  0.1000000E+03  0.7546771E-02  0.1280296E+00
         21   -1    0    0  503  502  0.00000000000E+00  0.00000000000E+00  0.45905342870E+02  0.45905342870E+02  0.00000000000E+00 0. -1.
         21   -1    0    0  501  503 -0.00000000000E+00 -0.00000000000E+00 -0.31214750998E+04  0.31214750998E+04  0.00000000000E+00 0.  1.
          6    1    1    2  501    0 -0.20651878411E+03  0.21315282132E+03 -0.87260242683E+03  0.93778895746E+03  0.17300000000E+03 0. -1.
         -6    1    1    2    0  502  0.20651878411E+03 -0.21315282132E+03 -0.22029673301E+04  0.22295914852E+04  0.17300000000E+03 0.  1.
</event>
<event>
 4    1  0.5904698E+000  0.1000000E+03  0.7546771E-02  0.1280296E+00
         21   -1    0    0  503  502  0.00000000000E+00  0.00000000000E+00  0.42612068831E+03  0.42612068831E+03  0.00000000000E+00 0. -1.
         21   -1    0    0  501  503 -0.00000000000E+00 -0.00000000000E+00 -0.64672551464E+03  0.64672551464E+03  0.00000000000E+00 0.  1.
          6    1    1    2  501    0  0.64952682694E+02 -0.29935471225E+03 -0.50845409782E+03  0.61829334812E+03  0.17300000000E+03 0.  1.
         -6    1    1    2    0  502 -0.64952682694E+02  0.29935471225E+03  0.28784927149E+03  0.45455285483E+03  0.17300000000E+03 0.  1.
</event>
<event>
 4    1  0.5904698E+000  0.1000000E+03  0.7546771E-02  0.1280296E+00
         21   -1    0    0  503  502  0.00000000000E+00  0.00000000000E+00  0.75895946845E+03  0.75895946845E+03  0.00000000000E+00 0. -1.
         21   -1    0    0  501  503 -0.00000000000E+00 -0.00000000000E+00 -0.82844786633E+02  0.82844786633E+02  0.00000000000E+00 0.  1.
          6    1    1    2  501    0 -0.52397877846E+02 -0.13530772977E+03  0.15500003655E+03  0.27387539259E+03  0.17300000000E+03 0.  1.
         -6    1    1    2    0  502  0.52397877846E+02  0.13530772977E+03  0.52111464527E+03  0.56792886249E+03  0.17300000000E+03 0.  1.
</event>
<event>
 4    1  0.5904698E+000  0.1000000E+03  0.7546771E-02  0.1280296E+00
         21   -1    0    0  503  502  0.00000000000E+00  0.00000000000E+00  0.10689049386E+04  0.10689049386E+04  0.00000000000E+00 0. -1.
         21   -1    0    0  501  503 -0.00000000000E+00 -0.00000000000E+00 -0.39440746570E+02  0.39440746570E+02  0.00000000000E+00 0.  1.
          6    1    1    2  501    0  0.21445488424E+02 -0.60198783328E+02  0.27113907487E+03  0.32791645340E+03  0.17300000000E+03 0.  1.
         -6    1    1    2    0  502 -0.21445488424E+02  0.60198783328E+02  0.75832511718E+03  0.78042923179E+03  0.17300000000E+03 0.  1.
</event>
<event>
 4    1  0.5904698E+000  0.1000000E+03  0.7546771E-02  0.1280296E+00
         21   -1    0    0  503  502  0.00000000000E+00  0.00000000000E+00  0.19924398975E+02  0.19924398975E+02  0.00000000000E+00 0.  1.
         21   -1    0    0  501  503 -0.00000000000E+00 -0.00000000000E+00 -0.25748722135E+04  0.25748722135E+04  0.00000000000E+00 0. -1.
          6    1    1    2  501    0  0.59183153618E+01 -0.12866249679E+03 -0.88125883877E+03  0.90726798987E+03  0.17300000000E+03 0. -1.
         -6    1    1    2    0  502 -0.59183153618E+01  0.12866249679E+03 -0.16736889758E+04  0.16875286226E+04  0.17300000000E+03 0.  1.
</event>
<event>
 4    1  0.5904698E+000  0.1000000E+03  0.7546771E-02  0.1280296E+00
         21   -1    0    0  503  502  0.00000000000E+00  0.00000000000E+00  0.20442525468E+03  0.20442525468E+03  0.00000000000E+00 0.  1.
         21   -1    0    0  501  503 -0.00000000000E+00 -0.00000000000E+00 -0.43518973829E+03  0.43518973829E+03  0.00000000000E+00 0. -1.
          6    1    1    2  501    0  0.93661225952E+02 -0.73522535893E+02 -0.34247124937E+03  0.40173815499E+03  0.17300000000E+03 0. -1.
         -6    1    1    2    0  502 -0.93661225952E+02  0.73522535893E+02  0.11170676577E+03  0.23787683798E+03  0.17300000000E+03 0.  1.
</event>
<event>
 4    1  0.5904698E+000  0.1000000E+03  0.7546771E-02  0.1280296E+00
         21   -1    0    0  503  502  0.00000000000E+00  0.00000000000E+00  0.19288616062E+03  0.19288616062E+03  0.00000000000E+00 0.  1.
         21   -1    0    0  501  503 -0.00000000000E+00 -0.00000000000E+00 -0.19203183797E+03  0.19203183797E+03  0.00000000000E+00 0. -1.
          6    1    1    2  501    0  0.75356631288E+02 -0.37846073512E+02  0.10074940400E+01  0.19246028734E+03  0.17300000000E+03 0. -1.
         -6    1    1    2    0  502 -0.75356631288E+02  0.37846073512E+02 -0.15317138568E+00  0.19245771125E+03  0.17300000000E+03 0.  1.
</event>
<event>
 4    1  0.5904698E+000  0.1000000E+03  0.7546771E-02  0.1280296E+00
         21   -1    0    0  503  502  0.00000000000E+00  0.00000000000E+00  0.16742768831E+03  0.16742768831E+03  0.00000000000E+00 0.  1.
         21   -1    0    0  501  503 -0.00000000000E+00 -0.00000000000E+00 -0.72252149324E+03  0.72252149324E+03  0.00000000000E+00 0. -1.
          6    1    1    2  501    0  0.13101356421E+03  0.58419391210E+02 -0.61715573956E+03  0.65680102478E+03  0.17300000000E+03 0. -1.
         -6    1    1    2    0  502 -0.13101356421E+03 -0.58419391210E+02  0.62061934624E+02  0.23314815677E+03  0.17300000000E+03 0.  1.
</event>
<event>
 4    1  0.5904698E+000  0.1000000E+03  0.7546771E-02  0.1280296E+00
         21   -1    0    0  501  502  0.00000000000E+00  0.00000000000E+00  0.82181940336E+02  0.82181940336E+02  0.00000000000E+00 0.  1.
         21   -1    0    0  502  503 -0.00000000000E+00 -0.00000000000E+00 -0.64695396583E+03  0.64695396583E+03  0.00000000000E+00 0.  1.
          6    1    1    2  501    0  0.94377332081E+02  0.50726241779E+02 -0.11093768391E+03  0.23176799202E+03  0.17300000000E+03 0.  1.
         -6    1    1    2    0  503 -0.94377332081E+02 -0.50726241779E+02 -0.45383434159E+03  0.49736791414E+03  0.17300000000E+03 0.  1.
</event>
<event>
 4    1  0.5904698E+000  0.1000000E+03  0.7546771E-02  0.1280296E+00
         21   -1    0    0  501  502  0.00000000000E+00  0.00000000000E+00  0.66720480054E+03  0.66720480054E+03  0.00000000000E+00 0.  1.
         21   -1    0    0  502  503 -0.00000000000E+00 -0.00000000000E+00 -0.29090174568E+03  0.29090174568E+03  0.00000000000E+00 0.  1.
          6    1    1    2  501    0  0.46163001206E+02  0.17732554621E+03  0.58109537132E+03  0.63338471926E+03  0.17300000000E+03 0.  1.
         -6    1    1    2    0  503 -0.46163001206E+02 -0.17732554621E+03 -0.20479231647E+03  0.32472182696E+03  0.17300000000E+03 0.  1.
</event>
<event>
 4    1  0.5904698E+000  0.1000000E+03  0.7546771E-02  0.1280296E+00
         21   -1    0    0  501  502  0.00000000000E+00  0.00000000000E+00  0.70908319035E+03  0.70908319035E+03  0.00000000000E+00 0.  1.
         21   -1    0    0  502  503 -0.00000000000E+00 -0.00000000000E+00 -0.13332506944E+03  0.13332506944E+03  0.00000000000E+00 0. -1.
          6    1    1    2  501    0 -0.15855357357E+02  0.81223488090E+01  0.63522902775E+03  0.65860631837E+03  0.17300000000E+03 0.  1.
         -6    1    1    2    0  503  0.15855357357E+02 -0.81223488090E+01 -0.59470906841E+02  0.18380194141E+03  0.17300000000E+03 0. -1.
</event>
<event>
 4    1  0.5904698E+000  0.1000000E+03  0.7546771E-02  0.1280296E+00
         21   -1    0    0  501  502  0.00000000000E+00  0.00000000000E+00  0.14798365364E+03  0.14798365364E+03  0.00000000000E+00 0.  1.
         21   -1    0    0  502  503 -0.00000000000E+00 -0.00000000000E+00 -0.29571358365E+03  0.29571358365E+03  0.00000000000E+00 0. -1.
          6    1    1    2  501    0 -0.62418829592E+02  0.96790354474E+02 -0.99124080304E+02  0.23025869430E+03  0.17300000000E+03 0.  1.
         -6    1    1    2    0  503  0.62418829592E+02 -0.96790354474E+02 -0.48605849697E+02  0.21343854299E+03  0.17300000000E+03 0. -1.
</event>
<event>
 4    1  0.5904698E+000  0.1000000E+03  0.7546771E-02  0.1280296E+00
         21   -1    0    0  503  502  0.00000000000E+00  0.00000000000E+00  0.16506311952E+04  0.16506311952E+04  0.00000000000E+00 0.  1.
         21   -1    0    0  501  503 -0.00000000000E+00 -0.00000000000E+00 -0.35696544051E+02  0.35696544051E+02  0.00000000000E+00 0.  1.
          6    1    1    2  501    0  0.64188857048E+02  0.61576603147E+02  0.30313258848E+03  0.36018086238E+03  0.17300000000E+03 0.  1.
         -6    1    1    2    0  502 -0.64188857048E+02 -0.61576603147E+02  0.13118020627E+04  0.13261468769E+04  0.17300000000E+03 0.  1.
</event>
<event>
 4    1  0.5904698E+000  0.1000000E+03  0.7546771E-02  0.1280296E+00
         21   -1    0    0  503  502  0.00000000000E+00  0.00000000000E+00  0.57303144906E+02  0.57303144906E+02  0.00000000000E+00 0.  1.
         21   -1    0    0  501  503 -0.00000000000E+00 -0.00000000000E+00 -0.11240115887E+04  0.11240115887E+04  0.00000000000E+00 0.  1.
          6    1    1    2  501    0  0.10245072742E+03 -0.93797281373E+00 -0.89378019845E+03  0.91611629965E+03  0.17300000000E+03 0.  1.
         -6    1    1    2    0  502 -0.10245072742E+03  0.93797281373E+00 -0.17292824538E+03  0.26519843399E+03  0.17300000000E+03 0.  1.
</event>
<event>
 4    1  0.5904698E+000  0.1000000E+03  0.7546771E-02  0.1280296E+00
         21   -1    0    0  503  502  0.00000000000E+00  0.00000000000E+00  0.76061662722E+02  0.76061662722E+02  0.00000000000E+00 0.  1.
         21   -1    0    0  501  503 -0.00000000000E+00 -0.00000000000E+00 -0.52446239243E+03  0.52446239243E+03  0.00000000000E+00 0.  1.
          6    1    1    2  501    0  0.64251976172E+02 -0.20581146714E+02 -0.33478182079E+03  0.38283125209E+03  0.17300000000E+03 0.  1.
         -6    1    1    2    0  502 -0.64251976172E+02  0.20581146714E+02 -0.11361890891E+03  0.21769280306E+03  0.17300000000E+03 0.  1.
</event>
<event>
 4    1  0.5904698E+000  0.1000000E+03  0.7546771E-02  0.1280296E+00
         21   -1    0    0  501  502  0.00000000000E+00  0.00000000000E+00  0.50679585706E+02  0.50679585706E+02  0.00000000000E+00 0. -1.
         21   -1    0    0  502  503 -0.00000000000E+00 -0.00000000000E+00 -0.66985404331E+03  0.66985404331E+03  0.00000000000E+00 0.  1.
          6    1    1    2  501    0  0.36812789230E+02  0.51374488056E+02 -0.29992749247E+03  0.35196593616E+03  0.17300000000E+03 0. -1.
         -6    1    1    2    0  503 -0.36812789230E+02 -0.51374488056E+02 -0.31924696513E+03  0.36856769286E+03  0.17300000000E+03 0.  1.
</event>
<event>
 4    1  0.5904698E+000  0.1000000E+03  0.7546771E-02  0.1280296E+00
         21   -1    0    0  501  502  0.00000000000E+00  0.00000000000E+00  0.50059353021E+03  0.50059353021E+03  0.00000000000E+00 0.  1.
         21   -1    0    0  502  503 -0.00000000000E+00 -0.00000000000E+00 -0.82978859690E+02  0.82978859690E+02  0.00000000000E+00 0. -1.
          6    1    1    2  501    0 -0.53959534020E+02  0.80132786275E+02  0.27711972167E+03  0.34067174066E+03  0.17300000000E+03 0.  1.
         -6    1    1    2    0  503  0.53959534020E+02 -0.80132786275E+02  0.14049494886E+03  0.24290064924E+03  0.17300000000E+03 0. -1.
</event>
<event>
 4    1  0.5904698E+000  0.1000000E+03  0.7546771E-02  0.1280296E+00
         21   -1    0    0  503  502  0.00000000000E+00  0.00000000000E+00  0.65237523761E+02  0.65237523761E+02  0.00000000000E+00 0. -1.
         21   -1    0    0  501  503 -0.00000000000E+00 -0.00000000000E+00 -0.14723459180E+04  0.14723459180E+04  0.00000000000E+00 0. -1.
          6    1    1    2  501    0 -0.51222652978E+02  0.20419361720E+02 -0.13265849064E+04  0.13389537798E+04  0.17300000000E+03 0. -1.
         -6    1    1    2    0  502  0.51222652978E+02 -0.20419361720E+02 -0.80523487787E+02  0.19862966193E+03  0.17300000000E+03 0. -1.
</event>
<event>
 4    1  0.5904698E+000  0.1000000E+03  0.7546771E-02  0.1280296E+00
         21   -1    0    0  501  502  0.00000000000E+00  0.00000000000E+00  0.15800681196E+03  0.15800681196E+03  0.00000000000E+00 0.  1.
         21   -1    0    0  502  503 -0.00000000000E+00 -0.00000000000E+00 -0.19605951953E+03  0.19605951953E+03  0.00000000000E+00 0.  1.
          6    1    1    2  501    0  0.27896257343E+02  0.11740014172E+02 -0.73956615097E+01  0.17578317586E+03  0.17300000000E+03 0.  1.
         -6    1    1    2    0  503 -0.27896257343E+02 -0.11740014172E+02 -0.30657046062E+02  0.17828315563E+03  0.17300000000E+03 0.  1.
</event>
<event>
 4    1  0.5904698E+000  0.1000000E+03  0.7546771E-02  0.1280296E+00
         21   -1    0    0  501  502  0.00000000000E+00  0.00000000000E+00  0.11823973105E+03  0.11823973105E+03  0.00000000000E+00 0.  1.
         21   -1    0    0  502  503 -0.00000000000E+00 -0.00000000000E+00 -0.30217663239E+03  0.30217663239E+03  0.00000000000E+00 0.  1.
          6    1    1    2  501    0  0.34944513374E+02 -0.66865799888E+02 -0.10353249176E+03  0.21526758014E+03  0.17300000000E+03 0.  1.
         -6    1    1    2    0  503 -0.34944513374E+02  0.66865799888E+02 -0.80404409572E+02  0.20514878330E+03  0.17300000000E+03 0.  1.
</event>
<event>
 4    1  0.5904698E+000  0.1000000E+03  0.7546771E-02  0.1280296E+00
         21   -1    0    0  503  502  0.00000000000E+00  0.00000000000E+00  0.50848489116E+03  0.50848489116E+03  0.00000000000E+00 0.  1.
         21   -1    0    0  501  503 -0.00000000000E+00 -0.00000000000E+00 -0.10108640094E+03  0.10108640094E+03  0.00000000000E+00 0.  1.
          6    1    1    2  501    0 -0.69558555482E+02 -0.12849954040E+03  0.18888811668E+03  0.29488683447E+03  0.17300000000E+03 0.  1.
         -6    1    1    2    0  502  0.69558555482E+02  0.12849954040E+03  0.21851037355E+03  0.31468445763E+03  0.17300000000E+03 0.  1.
</event>
<event>
 4    1  0.5904698E+000  0.1000000E+03  0.7546771E-02  0.1280296E+00
         21   -1    0    0  503  502  0.00000000000E+00  0.00000000000E+00  0.10105308462E+03  0.10105308462E+03  0.00000000000E+00 0.  1.
         21   -1    0    0  501  503 -0.00000000000E+00 -0.00000000000E+00 -0.62992417892E+03  0.62992417892E+03  0.00000000000E+00 0.  1.
          6    1    1    2  501    0 -0.57098870183E+02  0.16069421252E+03 -0.16571785492E+03  0.29406516004E+03  0.17300000000E+03 0.  1.
         -6    1    1    2    0  502  0.57098870183E+02 -0.16069421252E+03 -0.36315323938E+03  0.43691210350E+03  0.17300000000E+03 0.  1.
</event>
<event>
 4    1  0.5904698E+000  0.1000000E+03  0.7546771E-02  0.1280296E+00
         21   -1    0    0  501  502  0.00000000000E+00  0.00000000000E+00  0.10322268021E+03  0.10322268021E+03  0.00000000000E+00 0.  1.
         21   -1    0    0  502  503 -0.00000000000E+00 -0.00000000000E+00 -0.18005335471E+04  0.18005335471E+04  0.00000000000E+00 0.  1.
          6    1    1    2  501    0  0.41690881653E+02  0.36663408468E+03 -0.53821597632E+03  0.67510304312E+03  0.17300000000E+03 0.  1.
         -6    1    1    2    0  503 -0.41690881653E+02 -0.36663408468E+03 -0.11590948906E+04  0.12286531842E+04  0.17300000000E+03 0.  1.
</event>
<event>
 4    1  0.5904698E+000  0.1000000E+03  0.7546771E-02  0.1280296E+00
         21   -1    0    0  501  502  0.00000000000E+00  0.00000000000E+00  0.39970375884E+03  0.39970375884E+03  0.00000000000E+00 0.  1.
         21   -1    0    0  502  503 -0.00000000000E+00 -0.00000000000E+00 -0.14242736722E+03  0.14242736722E+03  0.00000000000E+00 0.  1.
          6    1    1    2  501    0  0.73897967524E+02  0.14658849231E+03  0.13672420175E+03  0.27490289745E+03  0.17300000000E+03 0.  1.
         -6    1    1    2    0  503 -0.73897967524E+02 -0.14658849231E+03  0.12055218986E+03  0.26722822861E+03  0.17300000000E+03 0.  1.
</event>
<event>
 4    1  0.5904698E+000  0.1000000E+03  0.7546771E-02  0.1280296E+00
         21   -1    0    0  501  502  0.00000000000E+00  0.00000000000E+00  0.13082037174E+04  0.13082037174E+04  0.00000000000E+00 0.  1.
         21   -1    0    0  502  503 -0.00000000000E+00 -0.00000000000E+00 -0.34198274758E+02  0.34198274758E+02  0.00000000000E+00 0.  1.
          6    1    1    2  501    0 -0.84379328070E+02  0.22801492324E+02  0.90569685267E+03  0.92620492764E+03  0.17300000000E+03 0.  1.
         -6    1    1    2    0  503  0.84379328070E+02 -0.22801492324E+02  0.36830858993E+03  0.41619706447E+03  0.17300000000E+03 0.  1.
</event>
<event>
 4    1  0.5904698E+000  0.1000000E+03  0.7546771E-02  0.1280296E+00
         21   -1    0    0  501  502  0.00000000000E+00  0.00000000000E+00  0.17547332013E+03  0.17547332013E+03  0.00000000000E+00 0.  1.
         21   -1    0    0  502  503 -0.00000000000E+00 -0.00000000000E+00 -0.66216086355E+03  0.66216086355E+03  0.00000000000E+00 0.  1.
          6    1    1    2  501    0  0.24072865116E+02  0.21899952294E+03 -0.47077430579E+01  0.28016326799E+03  0.17300000000E+03 0.  1.
         -6    1    1    2    0  503 -0.24072865116E+02 -0.21899952294E+03 -0.48197980036E+03  0.55747091569E+03  0.17300000000E+03 0.  1.
</event>
<event>
 4    1  0.5904698E+000  0.1000000E+03  0.7546771E-02  0.1280296E+00
         21   -1    0    0  501  502  0.00000000000E+00  0.00000000000E+00  0.89026062184E+02  0.89026062184E+02  0.00000000000E+00 0.  1.
         21   -1    0    0  502  503 -0.00000000000E+00 -0.00000000000E+00 -0.51254267306E+03  0.51254267306E+03  0.00000000000E+00 0.  1.
          6    1    1    2  501    0  0.89961362468E+02  0.77957580135E+02 -0.15667635765E+03  0.26200555735E+03  0.17300000000E+03 0.  1.
         -6    1    1    2    0  503 -0.89961362468E+02 -0.77957580135E+02 -0.26684025323E+03  0.33956317789E+03  0.17300000000E+03 0.  1.
</event>
<event>
 4    1  0.5904698E+000  0.1000000E+03  0.7546771E-02  0.1280296E+00
         21   -1    0    0  501  502  0.00000000000E+00  0.00000000000E+00  0.26631886895E+04  0.26631886895E+04  0.00000000000E+00 0. -1.
         21   -1    0    0  502  503 -0.00000000000E+00 -0.00000000000E+00 -0.13618883994E+02  0.13618883994E+02  0.00000000000E+00 0. -1.
          6    1    1    2  501    0  0.33093100963E+02  0.70152991496E+02  0.11982735028E+04  0.12131796994E+04  0.17300000000E+03 0. -1.
         -6    1    1    2    0  503 -0.33093100963E+02 -0.70152991496E+02  0.14512963027E+04  0.14636278741E+04  0.17300000000E+03 0. -1.
</event>
<event>
 4    1  0.5904698E+000  0.1000000E+03  0.7546771E-02  0.1280296E+00
         21   -1    0    0  501  502  0.00000000000E+00  0.00000000000E+00  0.52152208701E+02  0.52152208701E+02  0.00000000000E+00 0.  1.
         21   -1    0    0  502  503 -0.00000000000E+00 -0.00000000000E+00 -0.17486530611E+04  0.17486530611E+04  0.00000000000E+00 0.  1.
          6    1    1    2  501    0  0.13762494836E+03 -0.97307001761E+02 -0.30778479016E+03  0.39124130158E+03  0.17300000000E+03 0.  1.
         -6    1    1    2    0  503 -0.13762494836E+03  0.97307001761E+02 -0.13887160623E+04  0.14095639683E+04  0.17300000000E+03 0.  1.
</event>
<event>
 4    1  0.5904698E+000  0.1000000E+03  0.7546771E-02  0.1280296E+00
         21   -1    0    0  501  502  0.00000000000E+00  0.00000000000E+00  0.40364526626E+03  0.40364526626E+03  0.00000000000E+00 0.  1.
         21   -1    0    0  502  503 -0.00000000000E+00 -0.00000000000E+00 -0.25317920541E+03  0.25317920541E+03  0.00000000000E+00 0.  1.
          6    1    1    2  501    0  0.44623276114E+02 -0.12089598981E+02  0.34728489352E+03  0.39073417107E+03  0.17300000000E+03 0.  1.
         -6    1    1    2    0  503 -0.44623276114E+02  0.12089598981E+02 -0.19681883268E+03  0.26609030060E+03  0.17300000000E+03 0.  1.
</event>
<event>
 4    1  0.5904698E+000  0.1000000E+03  0.7546771E-02  0.1280296E+00
         21   -1    0    0  501  502  0.00000000000E+00  0.00000000000E+00  0.25463257855E+03  0.25463257855E+03  0.00000000000E+00 0.  1.
         21   -1    0    0  502  503 -0.00000000000E+00 -0.00000000000E+00 -0.10435127798E+04  0.10435127798E+04  0.00000000000E+00 0.  1.
          6    1    1    2  501    0 -0.17720732304E+03 -0.18599837826E+03  0.12440507253E+03  0.33377155979E+03  0.17300000000E+03 0.  1.
         -6    1    1    2    0  503  0.17720732304E+03  0.18599837826E+03 -0.91328527379E+03  0.96437379857E+03  0.17300000000E+03 0.  1.
</event>
<event>
 4    1  0.5904698E+000  0.1000000E+03  0.7546771E-02  0.1280296E+00
         21   -1    0    0  503  502  0.00000000000E+00  0.00000000000E+00  0.36427179892E+03  0.36427179892E+03  0.00000000000E+00 0. -1.
         21   -1    0    0  501  503 -0.00000000000E+00 -0.00000000000E+00 -0.13322570992E+03  0.13322570992E+03  0.00000000000E+00 0.  1.
          6    1    1    2  501    0 -0.10516827776E+03 -0.86332535574E+02  0.10494894982E+03  0.24383796959E+03  0.17300000000E+03 0.  1.
         -6    1    1    2    0  502  0.10516827776E+03  0.86332535574E+02  0.12609713918E+03  0.25365953925E+03  0.17300000000E+03 0. -1.
</event>
<event>
 4    1  0.5904698E+000  0.1000000E+03  0.7546771E-02  0.1280296E+00
         21   -1    0    0  503  502  0.00000000000E+00  0.00000000000E+00  0.26707210907E+04  0.26707210907E+04  0.00000000000E+00 0. -1.
         21   -1    0    0  501  503 -0.00000000000E+00 -0.00000000000E+00 -0.20457283258E+02  0.20457283258E+02  0.00000000000E+00 0.  1.
          6    1    1    2  501    0  0.10024693907E+03  0.50485797656E+02  0.69167333076E+03  0.72176122162E+03  0.17300000000E+03 0.  1.
         -6    1    1    2    0  502 -0.10024693907E+03 -0.50485797656E+02  0.19585904767E+04  0.19694171524E+04  0.17300000000E+03 0. -1.
</event>
<event>
 4    1  0.5904698E+000  0.1000000E+03  0.7546771E-02  0.1280296E+00
         21   -1    0    0  503  502  0.00000000000E+00  0.00000000000E+00  0.70202966931E+02  0.70202966931E+02  0.00000000000E+00 0. -1.
         21   -1    0    0  501  503 -0.00000000000E+00 -0.00000000000E+00 -0.17271854640E+04  0.17271854640E+04  0.00000000000E+00 0.  1.
          6    1    1    2  501    0 -0.10750903213E+03 -0.28231144137E+03 -0.80742880949E+03  0.87927710326E+03  0.17300000000E+03 0.  1.
         -6    1    1    2    0  502  0.10750903213E+03  0.28231144137E+03 -0.84955368755E+03  0.91811132765E+03  0.17300000000E+03 0. -1.
</event>
<event>
 4    1  0.5904698E+000  0.1000000E+03  0.7546771E-02  0.1280296E+00
         21   -1    0    0  501  502  0.00000000000E+00  0.00000000000E+00  0.26075387332E+04  0.26075387332E+04  0.00000000000E+00 0.  1.
         21   -1    0    0  502  503 -0.00000000000E+00 -0.00000000000E+00 -0.17464734966E+02  0.17464734966E+02  0.00000000000E+00 0.  1.
          6    1    1    2  501    0  0.50884946226E+02 -0.97868603612E+02  0.16559472604E+04  0.16686095621E+04  0.17300000000E+03 0.  1.
         -6    1    1    2    0  503 -0.50884946226E+02  0.97868603612E+02  0.93412673778E+03  0.95639390607E+03  0.17300000000E+03 0.  1.
</event>
<event>
 4    1  0.5904698E+000  0.1000000E+03  0.7546771E-02  0.1280296E+00
         21   -1    0    0  501  502  0.00000000000E+00  0.00000000000E+00  0.23817060741E+02  0.23817060741E+02  0.00000000000E+00 0.  1.
         21   -1    0    0  502  503 -0.00000000000E+00 -0.00000000000E+00 -0.19247816537E+04  0.19247816537E+04  0.00000000000E+00 0.  1.
          6    1    1    2  501    0  0.28498101369E+02 -0.81409081991E+01 -0.15084545076E+04  0.15186317584E+04  0.17300000000E+03 0.  1.
         -6    1    1    2    0  503 -0.28498101369E+02  0.81409081991E+01 -0.39251008538E+03  0.42996695605E+03  0.17300000000E+03 0.  1.
</event>
<event>
 4    1  0.5904698E+000  0.1000000E+03  0.7546771E-02  0.1280296E+00
         21   -1    0    0  501  502  0.00000000000E+00  0.00000000000E+00  0.35719272243E+03  0.35719272243E+03  0.00000000000E+00 0.  1.
         21   -1    0    0  502  503 -0.00000000000E+00 -0.00000000000E+00 -0.40684307882E+03  0.40684307882E+03  0.00000000000E+00 0.  1.
          6    1    1    2  501    0  0.14182609027E+02  0.10270682020E+02  0.31513631613E+03  0.35992572991E+03  0.17300000000E+03 0.  1.
         -6    1    1    2    0  503 -0.14182609027E+02 -0.10270682020E+02 -0.36478667252E+03  0.40411007134E+03  0.17300000000E+03 0.  1.
</event>
<event>
 4    1  0.5904698E+000  0.1000000E+03  0.7546771E-02  0.1280296E+00
         21   -1    0    0  501  502  0.00000000000E+00  0.00000000000E+00  0.63498909745E+03  0.63498909745E+03  0.00000000000E+00 0.  1.
         21   -1    0    0  502  503 -0.00000000000E+00 -0.00000000000E+00 -0.10095417058E+03  0.10095417058E+03  0.00000000000E+00 0.  1.
          6    1    1    2  501    0  0.11383371347E+03 -0.12313891215E+03  0.38010322233E+03  0.45003196068E+03  0.17300000000E+03 0.  1.
         -6    1    1    2    0  503 -0.11383371347E+03  0.12313891215E+03  0.15393170453E+03  0.28591130735E+03  0.17300000000E+03 0.  1.
</event>
<event>
 4    1  0.5904698E+000  0.1000000E+03  0.7546771E-02  0.1280296E+00
         21   -1    0    0  503  502  0.00000000000E+00  0.00000000000E+00  0.12198307268E+03  0.12198307268E+03  0.00000000000E+00 0.  1.
         21   -1    0    0  501  503 -0.00000000000E+00 -0.00000000000E+00 -0.92130962279E+03  0.92130962279E+03  0.00000000000E+00 0.  1.
          6    1    1    2  501    0 -0.23764918661E+03 -0.14947274172E+03 -0.49349119145E+03  0.59353331200E+03  0.17300000000E+03 0.  1.
         -6    1    1    2    0  502  0.23764918661E+03  0.14947274172E+03 -0.30583535866E+03  0.44975938347E+03  0.17300000000E+03 0.  1.
</event>
<event>
 4    1  0.5904698E+000  0.1000000E+03  0.7546771E-02  0.1280296E+00
         21   -1    0    0  503  502  0.00000000000E+00  0.00000000000E+00  0.40012770523E+03  0.40012770523E+03  0.00000000000E+00 0.  1.
         21   -1    0    0  501  503 -0.00000000000E+00 -0.00000000000E+00 -0.14166109578E+03  0.14166109578E+03  0.00000000000E+00 0.  1.
          6    1    1    2  501    0 -0.11348356989E+03  0.20310184054E+02 -0.27862781354E+01  0.20791293263E+03  0.17300000000E+03 0.  1.
         -6    1    1    2    0  502  0.11348356989E+03 -0.20310184054E+02  0.26125288758E+03  0.33387586837E+03  0.17300000000E+03 0.  1.
</event>
<event>
 4    1  0.5904698E+000  0.1000000E+03  0.7546771E-02  0.1280296E+00
         21   -1    0    0  503  502  0.00000000000E+00  0.00000000000E+00  0.78128706481E+02  0.78128706481E+02  0.00000000000E+00 0.  1.
         21   -1    0    0  501  503 -0.00000000000E+00 -0.00000000000E+00 -0.95815890467E+03  0.95815890467E+03  0.00000000000E+00 0.  1.
          6    1    1    2  501    0 -0.10307678111E+03 -0.46402108682E+02 -0.77958970062E+03  0.80651539341E+03  0.17300000000E+03 0.  1.
         -6    1    1    2    0  502  0.10307678111E+03  0.46402108682E+02 -0.10044049757E+03  0.22977221774E+03  0.17300000000E+03 0.  1.
</event>
<event>
 4    1  0.5904698E+000  0.1000000E+03  0.7546771E-02  0.1280296E+00
         21   -1    0    0  501  502  0.00000000000E+00  0.00000000000E+00  0.41115000445E+02  0.41115000445E+02  0.00000000000E+00 0. -1.
         21   -1    0    0  502  503 -0.00000000000E+00 -0.00000000000E+00 -0.10689319396E+04  0.10689319396E+04  0.00000000000E+00 0.  1.
          6    1    1    2  501    0  0.92552380353E+02  0.72256128585E+02 -0.55434214515E+03  0.59246190183E+03  0.17300000000E+03 0.  1.
         -6    1    1    2    0  503 -0.92552380353E+02 -0.72256128585E+02 -0.47347479398E+03  0.51758503820E+03  0.17300000000E+03 0. -1.
</event>
<event>
 4    1  0.5904698E+000  0.1000000E+03  0.7546771E-02  0.1280296E+00
         21   -1    0    0  501  502  0.00000000000E+00  0.00000000000E+00  0.64038340887E+03  0.64038340887E+03  0.00000000000E+00 0. -1.
         21   -1    0    0  502  503 -0.00000000000E+00 -0.00000000000E+00 -0.18935878576E+03  0.18935878576E+03  0.00000000000E+00 0.  1.
          6    1    1    2  501    0  0.17659598649E+03  0.48210241392E+02  0.51199618460E+03  0.57059570877E+03  0.17300000000E+03 0.  1.
         -6    1    1    2    0  503 -0.17659598649E+03 -0.48210241392E+02 -0.60971561488E+02  0.25914648585E+03  0.17300000000E+03 0. -1.
</event>
<event>
 4    1  0.5904698E+000  0.1000000E+03  0.7546771E-02  0.1280296E+00
         21   -1    0    0  501  502  0.00000000000E+00  0.00000000000E+00  0.13319141942E+03  0.13319141942E+03  0.00000000000E+00 0. -1.
         21   -1    0    0  502  503 -0.00000000000E+00 -0.00000000000E+00 -0.22554748774E+03  0.22554748774E+03  0.00000000000E+00 0.  1.
          6    1    1    2  501    0  0.59718562745E+01  0.36235680058E+01 -0.37951087939E+02  0.17725145525E+03  0.17300000000E+03 0.  1.
         -6    1    1    2    0  503 -0.59718562745E+01 -0.36235680058E+01 -0.54404980383E+02  0.18148745192E+03  0.17300000000E+03 0. -1.
</event>
<event>
 4    1  0.5904698E+000  0.1000000E+03  0.7546771E-02  0.1280296E+00
         21   -1    0    0  501  502  0.00000000000E+00  0.00000000000E+00  0.12659435974E+03  0.12659435974E+03  0.00000000000E+00 0. -1.
         21   -1    0    0  502  503 -0.00000000000E+00 -0.00000000000E+00 -0.34254437163E+03  0.34254437163E+03  0.00000000000E+00 0.  1.
          6    1    1    2  501    0  0.12710305028E+02 -0.10741163847E+03 -0.61036715428E+02  0.21296312489E+03  0.17300000000E+03 0.  1.
         -6    1    1    2    0  503 -0.12710305028E+02  0.10741163847E+03 -0.15491329647E+03  0.25617560648E+03  0.17300000000E+03 0. -1.
</event>
<event>
 4    1  0.5904698E+000  0.1000000E+03  0.7546771E-02  0.1280296E+00
         21   -1    0    0  501  502  0.00000000000E+00  0.00000000000E+00  0.57609492610E+02  0.57609492610E+02  0.00000000000E+00 0. -1.
         21   -1    0    0  502  503 -0.00000000000E+00 -0.00000000000E+00 -0.27564856206E+04  0.27564856206E+04  0.00000000000E+00 0. -1.
          6    1    1    2  501    0 -0.11912699583E+03 -0.20260276975E+03 -0.39132657639E+03  0.48816453459E+03  0.17300000000E+03 0. -1.
         -6    1    1    2    0  503  0.11912699583E+03  0.20260276975E+03 -0.23075495516E+04  0.23259305786E+04  0.17300000000E+03 0. -1.
</event>
<event>
 4    1  0.5904698E+000  0.1000000E+03  0.7546771E-02  0.1280296E+00
         21   -1    0    0  503  502  0.00000000000E+00  0.00000000000E+00  0.91470626188E+02  0.91470626188E+02  0.00000000000E+00 0.  1.
         21   -1    0    0  501  503 -0.00000000000E+00 -0.00000000000E+00 -0.16331363921E+04  0.16331363921E+04  0.00000000000E+00 0. -1.
          6    1    1    2  501    0 -0.10390235209E+03 -0.28138815967E+03 -0.11538974096E+04  0.12047336747E+04  0.17300000000E+03 0. -1.
         -6    1    1    2    0  502  0.10390235209E+03  0.28138815967E+03 -0.38776835629E+03  0.51987334353E+03  0.17300000000E+03 0.  1.
</event>
<event>
 4    1  0.5904698E+000  0.1000000E+03  0.7546771E-02  0.1280296E+00
         21   -1    0    0  503  502  0.00000000000E+00  0.00000000000E+00  0.28328219493E+03  0.28328219493E+03  0.00000000000E+00 0.  1.
         21   -1    0    0  501  503 -0.00000000000E+00 -0.00000000000E+00 -0.88497150760E+03  0.88497150760E+03  0.00000000000E+00 0. -1.
          6    1    1    2  501    0  0.22758834495E+03 -0.16705916471E+03 -0.73901058166E+03  0.80979680110E+03  0.17300000000E+03 0. -1.
         -6    1    1    2    0  502 -0.22758834495E+03  0.16705916471E+03  0.13732126898E+03  0.35845690143E+03  0.17300000000E+03 0.  1.
</event>
<event>
 4    1  0.5904698E+000  0.1000000E+03  0.7546771E-02  0.1280296E+00
         21   -1    0    0  503  502  0.00000000000E+00  0.00000000000E+00  0.37598790098E+03  0.37598790098E+03  0.00000000000E+00 0.  1.
         21   -1    0    0  501  503 -0.00000000000E+00 -0.00000000000E+00 -0.13608444020E+03  0.13608444020E+03  0.00000000000E+00 0. -1.
          6    1    1    2  501    0  0.51882434430E+02 -0.78475616014E+02 -0.60252975272E+01  0.19701653109E+03  0.17300000000E+03 0. -1.
         -6    1    1    2    0  502 -0.51882434430E+02  0.78475616014E+02  0.24592875830E+03  0.31505581009E+03  0.17300000000E+03 0.  1.
</event>
<event>
 4    1  0.5904698E+000  0.1000000E+03  0.7546771E-02  0.1280296E+00
         21   -1    0    0  503  502  0.00000000000E+00  0.00000000000E+00  0.34634506655E+03  0.34634506655E+03  0.00000000000E+00 0.  1.
         21   -1    0    0  501  503 -0.00000000000E+00 -0.00000000000E+00 -0.17598792758E+03  0.17598792758E+03  0.00000000000E+00 0.  1.
          6    1    1    2  501    0 -0.39497484155E+02  0.13743075714E+03 -0.23611216019E+02  0.22568507657E+03  0.17300000000E+03 0.  1.
         -6    1    1    2    0  502  0.39497484155E+02 -0.13743075714E+03  0.19396835498E+03  0.29664791757E+03  0.17300000000E+03 0.  1.
</event>
<event>
 4    1  0.5904698E+000  0.1000000E+03  0.7546771E-02  0.1280296E+00
         21   -1    0    0  503  502  0.00000000000E+00  0.00000000000E+00  0.13792055861E+03  0.13792055861E+03  0.00000000000E+00 0.  1.
         21   -1    0    0  501  503 -0.00000000000E+00 -0.00000000000E+00 -0.40615438552E+03  0.40615438552E+03  0.00000000000E+00 0.  1.
          6    1    1    2  501    0  0.95518427161E+02 -0.68386634020E+02 -0.26152620236E+03  0.33485139415E+03  0.17300000000E+03 0.  1.
         -6    1    1    2    0  502 -0.95518427161E+02  0.68386634020E+02 -0.67076245504E+01  0.20922354998E+03  0.17300000000E+03 0.  1.
</event>
<event>
 4    1  0.5904698E+000  0.1000000E+03  0.7546771E-02  0.1280296E+00
         21   -1    0    0  501  502  0.00000000000E+00  0.00000000000E+00  0.37047098613E+03  0.37047098613E+03  0.00000000000E+00 0.  1.
         21   -1    0    0  502  503 -0.00000000000E+00 -0.00000000000E+00 -0.20493056820E+03  0.20493056820E+03  0.00000000000E+00 0.  1.
          6    1    1    2  501    0 -0.16694913064E+02 -0.70144788656E+02  0.29365847557E+03  0.34837237516E+03  0.17300000000E+03 0.  1.
         -6    1    1    2    0  503  0.16694913064E+02  0.70144788656E+02 -0.12811805765E+03  0.22702917917E+03  0.17300000000E+03 0.  1.
</event>
<event>
 4    1  0.5904698E+000  0.1000000E+03  0.7546771E-02  0.1280296E+00
         21   -1    0    0  501  502  0.00000000000E+00  0.00000000000E+00  0.18019004392E+03  0.18019004392E+03  0.00000000000E+00 0.  1.
         21   -1    0    0  502  503 -0.00000000000E+00 -0.00000000000E+00 -0.21885260477E+03  0.21885260477E+03  0.00000000000E+00 0.  1.
          6    1    1    2  501    0  0.83074522689E+02 -0.40927532359E+02  0.11302534365E+02  0.19655326634E+03  0.17300000000E+03 0.  1.
         -6    1    1    2    0  503 -0.83074522689E+02  0.40927532359E+02 -0.49965095222E+02  0.20248938235E+03  0.17300000000E+03 0.  1.
</event>
<event>
 4    1  0.5904698E+000  0.1000000E+03  0.7546771E-02  0.1280296E+00
         21   -1    0    0  503  502  0.00000000000E+00  0.00000000000E+00  0.15047476755E+03  0.15047476755E+03  0.00000000000E+00 0.  1.
         21   -1    0    0  501  503 -0.00000000000E+00 -0.00000000000E+00 -0.34768787437E+03  0.34768787437E+03  0.00000000000E+00 0. -1.
          6    1    1    2  501    0 -0.89968155682E+01 -0.14880549533E+03 -0.11260449532E+03  0.25462283970E+03  0.17300000000E+03 0. -1.
         -6    1    1    2    0  502  0.89968155682E+01  0.14880549533E+03 -0.84608611496E+02  0.24353980223E+03  0.17300000000E+03 0.  1.
</event>
<event>
 4    1  0.5904698E+000  0.1000000E+03  0.7546771E-02  0.1280296E+00
         21   -1    0    0  503  502  0.00000000000E+00  0.00000000000E+00  0.13850515619E+03  0.13850515619E+03  0.00000000000E+00 0.  1.
         21   -1    0    0  501  503 -0.00000000000E+00 -0.00000000000E+00 -0.59274161869E+03  0.59274161869E+03  0.00000000000E+00 0. -1.
          6    1    1    2  501    0 -0.20463641192E+03 -0.49083280996E+02 -0.34041798071E+03  0.43600301737E+03  0.17300000000E+03 0. -1.
         -6    1    1    2    0  502  0.20463641192E+03  0.49083280996E+02 -0.11381848178E+03  0.29524375752E+03  0.17300000000E+03 0.  1.
</event>
<event>
 4    1  0.5904698E+000  0.1000000E+03  0.7546771E-02  0.1280296E+00
         21   -1    0    0  503  502  0.00000000000E+00  0.00000000000E+00  0.21522858023E+03  0.21522858023E+03  0.00000000000E+00 0.  1.
         21   -1    0    0  501  503 -0.00000000000E+00 -0.00000000000E+00 -0.16466539042E+03  0.16466539042E+03  0.00000000000E+00 0. -1.
          6    1    1    2  501    0  0.36974023458E+02  0.55014195658E+02  0.59019137725E+02  0.19443739031E+03  0.17300000000E+03 0. -1.
         -6    1    1    2    0  502 -0.36974023458E+02 -0.55014195658E+02 -0.84559479103E+01  0.18545658034E+03  0.17300000000E+03 0.  1.
</event>
<event>
 4    1  0.5904698E+000  0.1000000E+03  0.7546771E-02  0.1280296E+00
         21   -1    0    0  503  502  0.00000000000E+00  0.00000000000E+00  0.67751769212E+03  0.67751769212E+03  0.00000000000E+00 0.  1.
         21   -1    0    0  501  503 -0.00000000000E+00 -0.00000000000E+00 -0.44930992877E+02  0.44930992877E+02  0.00000000000E+00 0. -1.
          6    1    1    2  501    0  0.20307458499E+02 -0.83229299254E+01  0.30478873067E+03  0.35115072886E+03  0.17300000000E+03 0. -1.
         -6    1    1    2    0  502 -0.20307458499E+02  0.83229299254E+01  0.32779796857E+03  0.37129795614E+03  0.17300000000E+03 0.  1.
</event>
<event>
 4    1  0.5904698E+000  0.1000000E+03  0.7546771E-02  0.1280296E+00
         21   -1    0    0  501  502  0.00000000000E+00  0.00000000000E+00  0.79985645761E+02  0.79985645761E+02  0.00000000000E+00 0.  1.
         21   -1    0    0  502  503 -0.00000000000E+00 -0.00000000000E+00 -0.11602703524E+04  0.11602703524E+04  0.00000000000E+00 0.  1.
          6    1    1    2  501    0  0.85523185894E+00  0.96092059181E+02 -0.68680664768E+02  0.20947660722E+03  0.17300000000E+03 0.  1.
         -6    1    1    2    0  503 -0.85523185894E+00 -0.96092059181E+02 -0.10116040419E+04  0.10307793909E+04  0.17300000000E+03 0.  1.
</event>
<event>
 4    1  0.5904698E+000  0.1000000E+03  0.7546771E-02  0.1280296E+00
         21   -1    0    0  501  502  0.00000000000E+00  0.00000000000E+00  0.28720448634E+03  0.28720448634E+03  0.00000000000E+00 0.  1.
         21   -1    0    0  502  503 -0.00000000000E+00 -0.00000000000E+00 -0.19672855033E+03  0.19672855033E+03  0.00000000000E+00 0.  1.
          6    1    1    2  501    0 -0.51558083853E+02  0.14162258540E+03  0.10845849070E+03  0.25378620315E+03  0.17300000000E+03 0. -1.
         -6    1    1    2    0  503  0.51558083853E+02 -0.14162258540E+03 -0.17982554681E+02  0.23014683352E+03  0.17300000000E+03 0. -1.
</event>
<event>
 4    1  0.5904698E+000  0.1000000E+03  0.7546771E-02  0.1280296E+00
         21   -1    0    0  503  502  0.00000000000E+00  0.00000000000E+00  0.74459972236E+03  0.74459972236E+03  0.00000000000E+00 0. -1.
         21   -1    0    0  501  503 -0.00000000000E+00 -0.00000000000E+00 -0.10875508985E+03  0.10875508985E+03  0.00000000000E+00 0.  1.
          6    1    1    2  501    0  0.10736269678E+03 -0.54762308891E+02  0.31369509434E+02  0.21316356456E+03  0.17300000000E+03 0.  1.
         -6    1    1    2    0  502 -0.10736269678E+03  0.54762308891E+02  0.60447512308E+03  0.64019124764E+03  0.17300000000E+03 0.  1.
</event>
<event>
 4    1  0.5904698E+000  0.1000000E+03  0.7546771E-02  0.1280296E+00
         21   -1    0    0  503  502  0.00000000000E+00  0.00000000000E+00  0.85682970445E+03  0.85682970445E+03  0.00000000000E+00 0. -1.
         21   -1    0    0  501  503 -0.00000000000E+00 -0.00000000000E+00 -0.60251877794E+02  0.60251877794E+02  0.00000000000E+00 0.  1.
          6    1    1    2  501    0 -0.11029131091E+02 -0.10288363737E+03  0.18672452146E+03  0.27477578402E+03  0.17300000000E+03 0.  1.
         -6    1    1    2    0  502  0.11029131091E+02  0.10288363737E+03  0.60985330519E+03  0.64230579822E+03  0.17300000000E+03 0.  1.
</event>
<event>
 4    1  0.5904698E+000  0.1000000E+03  0.7546771E-02  0.1280296E+00
         21   -1    0    0  503  502  0.00000000000E+00  0.00000000000E+00  0.28118732467E+03  0.28118732467E+03  0.00000000000E+00 0.  1.
         21   -1    0    0  501  503 -0.00000000000E+00 -0.00000000000E+00 -0.16320806427E+03  0.16320806427E+03  0.00000000000E+00 0. -1.
          6    1    1    2  501    0  0.37997426865E+02 -0.47356015714E+02 -0.55934353638E+02  0.19168737201E+03  0.17300000000E+03 0. -1.
         -6    1    1    2    0  502 -0.37997426865E+02  0.47356015714E+02  0.17391361403E+03  0.25270801693E+03  0.17300000000E+03 0.  1.
</event>
<event>
 4    1  0.5904698E+000  0.1000000E+03  0.7546771E-02  0.1280296E+00
         21   -1    0    0  503  502  0.00000000000E+00  0.00000000000E+00  0.37394383533E+03  0.37394383533E+03  0.00000000000E+00 0.  1.
         21   -1    0    0  501  503 -0.00000000000E+00 -0.00000000000E+00 -0.93013453933E+02  0.93013453933E+02  0.00000000000E+00 0. -1.
          6    1    1    2  501    0  0.33116384711E+02  0.34110724821E+02  0.76721612849E+02  0.19512929652E+03  0.17300000000E+03 0.  1.
         -6    1    1    2    0  502 -0.33116384711E+02 -0.34110724821E+02  0.20420876855E+03  0.27182799274E+03  0.17300000000E+03 0. -1.
</event>
<event>
 4    1  0.5904698E+000  0.1000000E+03  0.7546771E-02  0.1280296E+00
         21   -1    0    0  503  502  0.00000000000E+00  0.00000000000E+00  0.52576302340E+02  0.52576302340E+02  0.00000000000E+00 0.  1.
         21   -1    0    0  501  503 -0.00000000000E+00 -0.00000000000E+00 -0.61920824804E+03  0.61920824804E+03  0.00000000000E+00 0. -1.
          6    1    1    2  501    0 -0.43589796015E+02 -0.26919001193E+02 -0.28069837459E+03  0.33368440245E+03  0.17300000000E+03 0.  1.
         -6    1    1    2    0  502  0.43589796015E+02  0.26919001193E+02 -0.28593357111E+03  0.33810014793E+03  0.17300000000E+03 0. -1.
</event>
<event>
 4    1  0.5904698E+000  0.1000000E+03  0.7546771E-02  0.1280296E+00
         21   -1    0    0  503  502  0.00000000000E+00  0.00000000000E+00  0.66884513197E+03  0.66884513197E+03  0.00000000000E+00 0.  1.
         21   -1    0    0  501  503 -0.00000000000E+00 -0.00000000000E+00 -0.49588620176E+02  0.49588620176E+02  0.00000000000E+00 0. -1.
          6    1    1    2  501    0 -0.28476945077E+02  0.46881557432E+02  0.27976096380E+03  0.33347265809E+03  0.17300000000E+03 0.  1.
         -6    1    1    2    0  502  0.28476945077E+02 -0.46881557432E+02  0.33949554799E+03  0.38496109405E+03  0.17300000000E+03 0. -1.
</event>
<event>
 4    1  0.5904698E+000  0.1000000E+03  0.7546771E-02  0.1280296E+00
         21   -1    0    0  501  502  0.00000000000E+00  0.00000000000E+00  0.13201619156E+04  0.13201619156E+04  0.00000000000E+00 0.  1.
         21   -1    0    0  502  503 -0.00000000000E+00 -0.00000000000E+00 -0.46830796198E+02  0.46830796198E+02  0.00000000000E+00 0. -1.
          6    1    1    2  501    0  0.17329882825E+03 -0.41465072177E+02  0.60374799674E+03  0.65283419001E+03  0.17300000000E+03 0.  1.
         -6    1    1    2    0  503 -0.17329882825E+03  0.41465072177E+02  0.66958312268E+03  0.71415852180E+03  0.17300000000E+03 0. -1.
</event>
<event>
 4    1  0.5904698E+000  0.1000000E+03  0.7546771E-02  0.1280296E+00
         21   -1    0    0  501  502  0.00000000000E+00  0.00000000000E+00  0.68607571625E+02  0.68607571625E+02  0.00000000000E+00 0.  1.
         21   -1    0    0  502  503 -0.00000000000E+00 -0.00000000000E+00 -0.54218645995E+03  0.54218645995E+03  0.00000000000E+00 0. -1.
          6    1    1    2  501    0 -0.25505868483E+02  0.79283841721E+02 -0.20791070124E+03  0.28300589495E+03  0.17300000000E+03 0.  1.
         -6    1    1    2    0  503  0.25505868483E+02 -0.79283841721E+02 -0.26566818709E+03  0.32778813663E+03  0.17300000000E+03 0. -1.
</event>
<event>
 4    1  0.5904698E+000  0.1000000E+03  0.7546771E-02  0.1280296E+00
         21   -1    0    0  501  502  0.00000000000E+00  0.00000000000E+00  0.68388924268E+03  0.68388924268E+03  0.00000000000E+00 0.  1.
         21   -1    0    0  502  503 -0.00000000000E+00 -0.00000000000E+00 -0.43613927962E+03  0.43613927962E+03  0.00000000000E+00 0. -1.
          6    1    1    2  501    0 -0.35147686623E+03 -0.22216257949E+00  0.51407453253E+03  0.64632628126E+03  0.17300000000E+03 0.  1.
         -6    1    1    2    0  503  0.35147686623E+03  0.22216257949E+00 -0.26632456947E+03  0.47370224103E+03  0.17300000000E+03 0. -1.
</event>
<event>
 4    1  0.5904698E+000  0.1000000E+03  0.7546771E-02  0.1280296E+00
         21   -1    0    0  501  502  0.00000000000E+00  0.00000000000E+00  0.48858950373E+03  0.48858950373E+03  0.00000000000E+00 0.  1.
         21   -1    0    0  502  503 -0.00000000000E+00 -0.00000000000E+00 -0.17327419066E+03  0.17327419066E+03  0.00000000000E+00 0. -1.
          6    1    1    2  501    0  0.20413844710E+03 -0.88410019464E+02  0.24000560340E+03  0.37016283821E+03  0.17300000000E+03 0.  1.
         -6    1    1    2    0  503 -0.20413844710E+03  0.88410019464E+02  0.75309709667E+02  0.29170085618E+03  0.17300000000E+03 0. -1.
</event>
<event>
 4    1  0.5904698E+000  0.1000000E+03  0.7546771E-02  0.1280296E+00
         21   -1    0    0  501  502  0.00000000000E+00  0.00000000000E+00  0.14778407202E+03  0.14778407202E+03  0.00000000000E+00 0. -1.
         21   -1    0    0  502  503 -0.00000000000E+00 -0.00000000000E+00 -0.49101736352E+03  0.49101736352E+03  0.00000000000E+00 0.  1.
          6    1    1    2  501    0 -0.20475258709E+02 -0.15215531363E+03 -0.78999965495E+01  0.23143440892E+03  0.17300000000E+03 0.  1.
         -6    1    1    2    0  503  0.20475258709E+02  0.15215531363E+03 -0.33533329495E+03  0.40736702663E+03  0.17300000000E+03 0.  1.
</event>
<event>
 4    1  0.5904698E+000  0.1000000E+03  0.7546771E-02  0.1280296E+00
         21   -1    0    0  501  502  0.00000000000E+00  0.00000000000E+00  0.39651126561E+03  0.39651126561E+03  0.00000000000E+00 0. -1.
         21   -1    0    0  502  503 -0.00000000000E+00 -0.00000000000E+00 -0.18171444666E+03  0.18171444666E+03  0.00000000000E+00 0.  1.
          6    1    1    2  501    0 -0.70099039991E+02 -0.86729094089E+01  0.31495149832E+03  0.36621379147E+03  0.17300000000E+03 0.  1.
         -6    1    1    2    0  503  0.70099039991E+02  0.86729094089E+01 -0.10015467937E+03  0.21201192081E+03  0.17300000000E+03 0.  1.
</event>
<event>
 4    1  0.5904698E+000  0.1000000E+03  0.7546771E-02  0.1280296E+00
         21   -1    0    0  503  502  0.00000000000E+00  0.00000000000E+00  0.54485990106E+03  0.54485990106E+03  0.00000000000E+00 0. -1.
         21   -1    0    0  501  503 -0.00000000000E+00 -0.00000000000E+00 -0.50277247179E+03  0.50277247179E+03  0.00000000000E+00 0.  1.
          6    1    1    2  501    0 -0.25293402005E+03  0.30983252390E+02 -0.40247188559E+03  0.50680193283E+03  0.17300000000E+03 0.  1.
         -6    1    1    2    0  502  0.25293402005E+03 -0.30983252390E+02  0.44455931485E+03  0.54083044002E+03  0.17300000000E+03 0. -1.
</event>
<event>
 4    1  0.5904698E+000  0.1000000E+03  0.7546771E-02  0.1280296E+00
         21   -1    0    0  503  502  0.00000000000E+00  0.00000000000E+00  0.69225736264E+03  0.69225736264E+03  0.00000000000E+00 0. -1.
         21   -1    0    0  501  503 -0.00000000000E+00 -0.00000000000E+00 -0.10247251078E+03  0.10247251078E+03  0.00000000000E+00 0. -1.
          6    1    1    2  501    0  0.46191856443E+02 -0.85030996689E+02  0.29492718148E+02  0.20040653289E+03  0.17300000000E+03 0. -1.
         -6    1    1    2    0  502 -0.46191856443E+02  0.85030996689E+02  0.56029213371E+03  0.59432334053E+03  0.17300000000E+03 0. -1.
</event>
<event>
 4    1  0.5904698E+000  0.1000000E+03  0.7546771E-02  0.1280296E+00
         21   -1    0    0  503  502  0.00000000000E+00  0.00000000000E+00  0.83915936163E+02  0.83915936163E+02  0.00000000000E+00 0. -1.
         21   -1    0    0  501  503 -0.00000000000E+00 -0.00000000000E+00 -0.75084415601E+03  0.75084415601E+03  0.00000000000E+00 0. -1.
          6    1    1    2  501    0 -0.19611322100E+02 -0.31510880121E+02 -0.62951935310E+03  0.65391219246E+03  0.17300000000E+03 0. -1.
         -6    1    1    2    0  502  0.19611322100E+02  0.31510880121E+02 -0.37408866752E+02  0.18084789972E+03  0.17300000000E+03 0. -1.
</event>
<event>
 4    1  0.5904698E+000  0.1000000E+03  0.7546771E-02  0.1280296E+00
         21   -1    0    0  503  502  0.00000000000E+00  0.00000000000E+00  0.12622726175E+03  0.12622726175E+03  0.00000000000E+00 0. -1.
         21   -1    0    0  501  503 -0.00000000000E+00 -0.00000000000E+00 -0.57148136531E+03  0.57148136531E+03  0.00000000000E+00 0. -1.
          6    1    1    2  501    0 -0.13929037491E+02 -0.53643695457E+02 -0.47958019910E+03  0.51283314199E+03  0.17300000000E+03 0. -1.
         -6    1    1    2    0  502  0.13929037491E+02  0.53643695457E+02  0.34326095547E+02  0.18487548508E+03  0.17300000000E+03 0. -1.
</event>
<event>
 4    1  0.5904698E+000  0.1000000E+03  0.7546771E-02  0.1280296E+00
         21   -1    0    0  503  502  0.00000000000E+00  0.00000000000E+00  0.19970451502E+03  0.19970451502E+03  0.00000000000E+00 0. -1.
         21   -1    0    0  501  503 -0.00000000000E+00 -0.00000000000E+00 -0.25540466607E+03  0.25540466607E+03  0.00000000000E+00 0. -1.
          6    1    1    2  501    0  0.12478165297E+03 -0.13660138025E+02 -0.10133677822E+03  0.23654852126E+03  0.17300000000E+03 0. -1.
         -6    1    1    2    0  502 -0.12478165297E+03  0.13660138025E+02  0.45636627167E+02  0.21856065984E+03  0.17300000000E+03 0. -1.
</event>
<event>
 4    1  0.5904698E+000  0.1000000E+03  0.7546771E-02  0.1280296E+00
         21   -1    0    0  503  502  0.00000000000E+00  0.00000000000E+00  0.31531862065E+03  0.31531862065E+03  0.00000000000E+00 0. -1.
         21   -1    0    0  501  503 -0.00000000000E+00 -0.00000000000E+00 -0.10155647343E+03  0.10155647343E+03  0.00000000000E+00 0. -1.
          6    1    1    2  501    0  0.31859312219E+02 -0.31235396666E+02  0.11870132214E+03  0.21449864722E+03  0.17300000000E+03 0. -1.
         -6    1    1    2    0  502 -0.31859312219E+02  0.31235396666E+02  0.95060825080E+02  0.20237644686E+03  0.17300000000E+03 0. -1.
</event>
<event>
 4    1  0.5904698E+000  0.1000000E+03  0.7546771E-02  0.1280296E+00
         21   -1    0    0  501  502  0.00000000000E+00  0.00000000000E+00  0.22137889703E+03  0.22137889703E+03  0.00000000000E+00 0.  1.
         21   -1    0    0  502  503 -0.00000000000E+00 -0.00000000000E+00 -0.20585036402E+03  0.20585036402E+03  0.00000000000E+00 0. -1.
          6    1    1    2  501    0  0.51540929494E+02 -0.89199107972E+02  0.78726445762E+02  0.21619389801E+03  0.17300000000E+03 0.  1.
         -6    1    1    2    0  503 -0.51540929494E+02  0.89199107972E+02 -0.63197912757E+02  0.21103536304E+03  0.17300000000E+03 0. -1.
</event>
<event>
 4    1  0.5904698E+000  0.1000000E+03  0.7546771E-02  0.1280296E+00
         21   -1    0    0  501  502  0.00000000000E+00  0.00000000000E+00  0.75641147187E+03  0.75641147187E+03  0.00000000000E+00 0. -1.
         21   -1    0    0  502  503 -0.00000000000E+00 -0.00000000000E+00 -0.11214005095E+03  0.11214005095E+03  0.00000000000E+00 0. -1.
          6    1    1    2  501    0  0.83066304185E+02 -0.92445989158E+02  0.61829324175E+03  0.65395856489E+03  0.17300000000E+03 0. -1.
         -6    1    1    2    0  503 -0.83066304185E+02  0.92445989158E+02  0.25978179171E+02  0.21459295794E+03  0.17300000000E+03 0. -1.
</event>
<event>
 4    1  0.5904698E+000  0.1000000E+03  0.7546771E-02  0.1280296E+00
         21   -1    0    0  501  502  0.00000000000E+00  0.00000000000E+00  0.23667679504E+02  0.23667679504E+02  0.00000000000E+00 0.  1.
         21   -1    0    0  502  503 -0.00000000000E+00 -0.00000000000E+00 -0.23281278973E+04  0.23281278973E+04  0.00000000000E+00 0.  1.
          6    1    1    2  501    0 -0.18800044210E+02 -0.85148277232E+02 -0.48824505364E+03  0.52527697758E+03  0.17300000000E+03 0.  1.
         -6    1    1    2    0  503  0.18800044210E+02  0.85148277232E+02 -0.18162151642E+04  0.18265185993E+04  0.17300000000E+03 0.  1.
</event>
<event>
 4    1  0.5904698E+000  0.1000000E+03  0.7546771E-02  0.1280296E+00
         21   -1    0    0  501  502  0.00000000000E+00  0.00000000000E+00  0.10989873884E+04  0.10989873884E+04  0.00000000000E+00 0.  1.
         21   -1    0    0  502  503 -0.00000000000E+00 -0.00000000000E+00 -0.71379636843E+02  0.71379636843E+02  0.00000000000E+00 0.  1.
          6    1    1    2  501    0 -0.90553501115E+02 -0.50376761156E+02  0.91990229122E+03  0.94174677065E+03  0.17300000000E+03 0.  1.
         -6    1    1    2    0  503  0.90553501115E+02  0.50376761156E+02  0.10770546035E+03  0.22862025461E+03  0.17300000000E+03 0.  1.
</event>
<event>
 4    1  0.5904698E+000  0.1000000E+03  0.7546771E-02  0.1280296E+00
         21   -1    0    0  501  502  0.00000000000E+00  0.00000000000E+00  0.56077702442E+03  0.56077702442E+03  0.00000000000E+00 0.  1.
         21   -1    0    0  502  503 -0.00000000000E+00 -0.00000000000E+00 -0.15322695408E+03  0.15322695408E+03  0.00000000000E+00 0.  1.
          6    1    1    2  501    0 -0.36477673592E+01 -0.23008507816E+03  0.27097679178E+03  0.39536043186E+03  0.17300000000E+03 0.  1.
         -6    1    1    2    0  503  0.36477673592E+01  0.23008507816E+03  0.13657327856E+03  0.31864354664E+03  0.17300000000E+03 0.  1.
</event>
<event>
 4    1  0.5904698E+000  0.1000000E+03  0.7546771E-02  0.1280296E+00
         21   -1    0    0  501  502  0.00000000000E+00  0.00000000000E+00  0.76024564358E+03  0.76024564358E+03  0.00000000000E+00 0.  1.
         21   -1    0    0  502  503 -0.00000000000E+00 -0.00000000000E+00 -0.40547262207E+03  0.40547262207E+03  0.00000000000E+00 0.  1.
          6    1    1    2  501    0 -0.88784494232E+02  0.41443904816E+02  0.72159279033E+03  0.74848208978E+03  0.17300000000E+03 0.  1.
         -6    1    1    2    0  503  0.88784494232E+02 -0.41443904816E+02 -0.36681976881E+03  0.41723617587E+03  0.17300000000E+03 0.  1.
</event>
<event>
 4    1  0.5904698E+000  0.1000000E+03  0.7546771E-02  0.1280296E+00
         21   -1    0    0  501  502  0.00000000000E+00  0.00000000000E+00  0.22449203754E+03  0.22449203754E+03  0.00000000000E+00 0.  1.
         21   -1    0    0  502  503 -0.00000000000E+00 -0.00000000000E+00 -0.17877653070E+04  0.17877653070E+04  0.00000000000E+00 0.  1.
          6    1    1    2  501    0  0.18040428723E+03  0.57678538680E+03 -0.90651780887E+03  0.11031457869E+04  0.17300000000E+03 0.  1.
         -6    1    1    2    0  503 -0.18040428723E+03 -0.57678538680E+03 -0.65675546060E+03  0.90911155768E+03  0.17300000000E+03 0.  1.
</event>
<event>
 4    1  0.5904698E+000  0.1000000E+03  0.7546771E-02  0.1280296E+00
         21   -1    0    0  501  502  0.00000000000E+00  0.00000000000E+00  0.35959860036E+03  0.35959860036E+03  0.00000000000E+00 0.  1.
         21   -1    0    0  502  503 -0.00000000000E+00 -0.00000000000E+00 -0.17015143417E+03  0.17015143417E+03  0.00000000000E+00 0.  1.
          6    1    1    2  501    0 -0.93546423637E+02 -0.30208425135E+02  0.25207768946E+03  0.32114738649E+03  0.17300000000E+03 0.  1.
         -6    1    1    2    0  503  0.93546423637E+02  0.30208425135E+02 -0.62630523269E+02  0.20860264804E+03  0.17300000000E+03 0.  1.
</event>
<event>
 4    1  0.5904698E+000  0.1000000E+03  0.7546771E-02  0.1280296E+00
         21   -1    0    0  501  502  0.00000000000E+00  0.00000000000E+00  0.21259256348E+04  0.21259256348E+04  0.00000000000E+00 0.  1.
         21   -1    0    0  502  503 -0.00000000000E+00 -0.00000000000E+00 -0.24346356454E+02  0.24346356454E+02  0.00000000000E+00 0.  1.
          6    1    1    2  501    0 -0.39091748798E+01 -0.59639598221E+02  0.16893347837E+04  0.16992213437E+04  0.17300000000E+03 0.  1.
         -6    1    1    2    0  503  0.39091748798E+01  0.59639598221E+02  0.41224449456E+03  0.45105064751E+03  0.17300000000E+03 0.  1.
</event>
<event>
 4    1  0.5904698E+000  0.1000000E+03  0.7546771E-02  0.1280296E+00
         21   -1    0    0  501  502  0.00000000000E+00  0.00000000000E+00  0.82007710989E+03  0.82007710989E+03  0.00000000000E+00 0.  1.
         21   -1    0    0  502  503 -0.00000000000E+00 -0.00000000000E+00 -0.28181221578E+03  0.28181221578E+03  0.00000000000E+00 0.  1.
          6    1    1    2  501    0 -0.31877849937E+03 -0.86526330243E+02  0.61688074394E+03  0.72081716803E+03  0.17300000000E+03 0.  1.
         -6    1    1    2    0  503  0.31877849937E+03  0.86526330243E+02 -0.78615849829E+02  0.38107215764E+03  0.17300000000E+03 0.  1.
</event>
<event>
 4    1  0.5904698E+000  0.1000000E+03  0.7546771E-02  0.1280296E+00
         21   -1    0    0  501  502  0.00000000000E+00  0.00000000000E+00  0.47020465849E+03  0.47020465849E+03  0.00000000000E+00 0. -1.
         21   -1    0    0  502  503 -0.00000000000E+00 -0.00000000000E+00 -0.76961917133E+02  0.76961917133E+02  0.00000000000E+00 0.  1.
          6    1    1    2  501    0 -0.66451366935E+02  0.42744050155E+02  0.20237653438E+03  0.27771946215E+03  0.17300000000E+03 0.  1.
         -6    1    1    2    0  503  0.66451366935E+02 -0.42744050155E+02  0.19086620698E+03  0.26944711347E+03  0.17300000000E+03 0.  1.
</event>
<event>
 4    1  0.5904698E+000  0.1000000E+03  0.7546771E-02  0.1280296E+00
         21   -1    0    0  501  502  0.00000000000E+00  0.00000000000E+00  0.58788377004E+03  0.58788377004E+03  0.00000000000E+00 0. -1.
         21   -1    0    0  502  503 -0.00000000000E+00 -0.00000000000E+00 -0.30555798715E+03  0.30555798715E+03  0.00000000000E+00 0.  1.
          6    1    1    2  501    0 -0.29331787579E+03  0.25160668491E+03  0.12110124123E+03  0.44038143782E+03  0.17300000000E+03 0.  1.
         -6    1    1    2    0  503  0.29331787579E+03 -0.25160668491E+03  0.16122454167E+03  0.45306031937E+03  0.17300000000E+03 0.  1.
</event>
<event>
 4    1  0.5904698E+000  0.1000000E+03  0.7546771E-02  0.1280296E+00
         21   -1    0    0  503  502  0.00000000000E+00  0.00000000000E+00  0.55997667730E+03  0.55997667730E+03  0.00000000000E+00 0.  1.
         21   -1    0    0  501  503 -0.00000000000E+00 -0.00000000000E+00 -0.25538680853E+03  0.25538680853E+03  0.00000000000E+00 0.  1.
          6    1    1    2  501    0  0.13109501288E+03  0.25499660735E+03 -0.37123765836E+02  0.33692186950E+03  0.17300000000E+03 0.  1.
         -6    1    1    2    0  502 -0.13109501288E+03 -0.25499660735E+03  0.34171363460E+03  0.47844161633E+03  0.17300000000E+03 0.  1.
</event>
<event>
 4    1  0.5904698E+000  0.1000000E+03  0.7546771E-02  0.1280296E+00
         21   -1    0    0  503  502  0.00000000000E+00  0.00000000000E+00  0.82644076012E+02  0.82644076012E+02  0.00000000000E+00 0.  1.
         21   -1    0    0  501  503 -0.00000000000E+00 -0.00000000000E+00 -0.64921758754E+03  0.64921758754E+03  0.00000000000E+00 0.  1.
          6    1    1    2  501    0 -0.11338799389E+03  0.79044004808E+02 -0.39066794039E+03  0.44906038737E+03  0.17300000000E+03 0.  1.
         -6    1    1    2    0  502  0.11338799389E+03 -0.79044004808E+02 -0.17590557113E+03  0.28280127618E+03  0.17300000000E+03 0.  1.
</event>
<event>
 4    1  0.5904698E+000  0.1000000E+03  0.7546771E-02  0.1280296E+00
         21   -1    0    0  501  502  0.00000000000E+00  0.00000000000E+00  0.11415703073E+03  0.11415703073E+03  0.00000000000E+00 0. -1.
         21   -1    0    0  502  503 -0.00000000000E+00 -0.00000000000E+00 -0.84980119450E+03  0.84980119450E+03  0.00000000000E+00 0. -1.
          6    1    1    2  501    0 -0.95583386463E+02  0.79824694948E+01  0.44749055205E+01  0.19786088134E+03  0.17300000000E+03 0. -1.
         -6    1    1    2    0  503  0.95583386463E+02 -0.79824694948E+01 -0.74011906929E+03  0.76609734389E+03  0.17300000000E+03 0. -1.
</event>
<event>
 4    1  0.5904698E+000  0.1000000E+03  0.7546771E-02  0.1280296E+00
         21   -1    0    0  501  502  0.00000000000E+00  0.00000000000E+00  0.42667927510E+02  0.42667927510E+02  0.00000000000E+00 0. -1.
         21   -1    0    0  502  503 -0.00000000000E+00 -0.00000000000E+00 -0.12377545449E+04  0.12377545449E+04  0.00000000000E+00 0.  1.
          6    1    1    2  501    0 -0.88749191012E+02 -0.77669174417E+02 -0.33363052747E+03  0.39388735499E+03  0.17300000000E+03 0. -1.
         -6    1    1    2    0  503  0.88749191012E+02  0.77669174417E+02 -0.86145608989E+03  0.88653511740E+03  0.17300000000E+03 0.  1.
</event>
<event>
 4    1  0.5904698E+000  0.1000000E+03  0.7546771E-02  0.1280296E+00
         21   -1    0    0  503  502  0.00000000000E+00  0.00000000000E+00  0.20007346160E+04  0.20007346160E+04  0.00000000000E+00 0.  1.
         21   -1    0    0  501  503 -0.00000000000E+00 -0.00000000000E+00 -0.47482841463E+02  0.47482841463E+02  0.00000000000E+00 0.  1.
          6    1    1    2  501    0  0.27740032024E+01  0.86594168152E+02  0.17943296463E+03  0.26387768729E+03  0.17300000000E+03 0.  1.
         -6    1    1    2    0  502 -0.27740032024E+01 -0.86594168152E+02  0.17738188099E+04  0.17843397701E+04  0.17300000000E+03 0.  1.
</event>
<event>
 4    1  0.5904698E+000  0.1000000E+03  0.7546771E-02  0.1280296E+00
         21   -1    0    0  503  502  0.00000000000E+00  0.00000000000E+00  0.10624428566E+03  0.10624428566E+03  0.00000000000E+00 0.  1.
         21   -1    0    0  501  503 -0.00000000000E+00 -0.00000000000E+00 -0.37731013561E+03  0.37731013561E+03  0.00000000000E+00 0.  1.
          6    1    1    2  501    0 -0.95686153210E+02 -0.22982730886E+02 -0.16182364653E+03  0.25651498672E+03  0.17300000000E+03 0.  1.
         -6    1    1    2    0  502  0.95686153210E+02  0.22982730886E+02 -0.10924220341E+03  0.22703943455E+03  0.17300000000E+03 0.  1.
</event>
<event>
 4    1  0.5904698E+000  0.1000000E+03  0.7546771E-02  0.1280296E+00
         21   -1    0    0  503  502  0.00000000000E+00  0.00000000000E+00  0.50105490474E+03  0.50105490474E+03  0.00000000000E+00 0.  1.
         21   -1    0    0  501  503 -0.00000000000E+00 -0.00000000000E+00 -0.86491489796E+02  0.86491489796E+02  0.00000000000E+00 0. -1.
          6    1    1    2  501    0  0.48565828509E+02  0.18197692588E+02  0.61183954276E+02  0.19068894036E+03  0.17300000000E+03 0. -1.
         -6    1    1    2    0  502 -0.48565828509E+02 -0.18197692588E+02  0.35337946067E+03  0.39685745418E+03  0.17300000000E+03 0.  1.
</event>
<event>
 4    1  0.5904698E+000  0.1000000E+03  0.7546771E-02  0.1280296E+00
         21   -1    0    0  501  502  0.00000000000E+00  0.00000000000E+00  0.12777894131E+03  0.12777894131E+03  0.00000000000E+00 0.  1.
         21   -1    0    0  502  503 -0.00000000000E+00 -0.00000000000E+00 -0.47828878061E+03  0.47828878061E+03  0.00000000000E+00 0. -1.
          6    1    1    2  501    0  0.50935297017E+02  0.20198762957E+01  0.32000742770E+02  0.18317077256E+03  0.17300000000E+03 0.  1.
         -6    1    1    2    0  503 -0.50935297017E+02 -0.20198762957E+01 -0.38251058207E+03  0.42289694936E+03  0.17300000000E+03 0. -1.
</event>
<event>
 4    1  0.5904698E+000  0.1000000E+03  0.7546771E-02  0.1280296E+00
         21   -1    0    0  503  502  0.00000000000E+00  0.00000000000E+00  0.33871249039E+03  0.33871249039E+03  0.00000000000E+00 0. -1.
         21   -1    0    0  501  503 -0.00000000000E+00 -0.00000000000E+00 -0.13936917865E+03  0.13936917865E+03  0.00000000000E+00 0. -1.
          6    1    1    2  501    0  0.93707126919E+02  0.71572904303E+02  0.35770980014E+02  0.21239649074E+03  0.17300000000E+03 0. -1.
         -6    1    1    2    0  502 -0.93707126919E+02 -0.71572904303E+02  0.16357233172E+03  0.26568517830E+03  0.17300000000E+03 0. -1.
</event>
<event>
 4    1  0.5904698E+000  0.1000000E+03  0.7546771E-02  0.1280296E+00
         21   -1    0    0  503  502  0.00000000000E+00  0.00000000000E+00  0.44776485473E+02  0.44776485473E+02  0.00000000000E+00 0. -1.
         21   -1    0    0  501  503 -0.00000000000E+00 -0.00000000000E+00 -0.12162545226E+04  0.12162545226E+04  0.00000000000E+00 0. -1.
          6    1    1    2  501    0  0.22316362560E+02 -0.52753097380E+01 -0.10043466725E+04  0.10193954520E+04  0.17300000000E+03 0. -1.
         -6    1    1    2    0  502 -0.22316362560E+02  0.52753097380E+01 -0.16713136462E+03  0.24163555609E+03  0.17300000000E+03 0. -1.
</event>
<event>
 4    1  0.5904698E+000  0.1000000E+03  0.7546771E-02  0.1280296E+00
         21   -1    0    0  503  502  0.00000000000E+00  0.00000000000E+00  0.10815123194E+03  0.10815123194E+03  0.00000000000E+00 0. -1.
         21   -1    0    0  501  503 -0.00000000000E+00 -0.00000000000E+00 -0.33360075848E+03  0.33360075848E+03  0.00000000000E+00 0. -1.
          6    1    1    2  501    0  0.55541194605E+02 -0.53049771957E+00 -0.17710470959E+03  0.25373250459E+03  0.17300000000E+03 0. -1.
         -6    1    1    2    0  502 -0.55541194605E+02  0.53049771957E+00 -0.48344816954E+02  0.18801948583E+03  0.17300000000E+03 0. -1.
</event>
<event>
 4    1  0.5904698E+000  0.1000000E+03  0.7546771E-02  0.1280296E+00
         21   -1    0    0  501  502  0.00000000000E+00  0.00000000000E+00  0.57386490404E+03  0.57386490404E+03  0.00000000000E+00 0.  1.
         21   -1    0    0  502  503 -0.00000000000E+00 -0.00000000000E+00 -0.12232254927E+03  0.12232254927E+03  0.00000000000E+00 0.  1.
          6    1    1    2  501    0 -0.84575580200E+02  0.18115569169E+03  0.20312129944E+03  0.33340317288E+03  0.17300000000E+03 0.  1.
         -6    1    1    2    0  503  0.84575580200E+02 -0.18115569169E+03  0.24842105534E+03  0.36278428044E+03  0.17300000000E+03 0.  1.
</event>
<event>
 4    1  0.5904698E+000  0.1000000E+03  0.7546771E-02  0.1280296E+00
         21   -1    0    0  503  502  0.00000000000E+00  0.00000000000E+00  0.14760889186E+03  0.14760889186E+03  0.00000000000E+00 0. -1.
         21   -1    0    0  501  503 -0.00000000000E+00 -0.00000000000E+00 -0.35069479152E+03  0.35069479152E+03  0.00000000000E+00 0. -1.
          6    1    1    2  501    0  0.10148363355E+03 -0.74111491481E+02 -0.18668606677E+03  0.28385230063E+03  0.17300000000E+03 0. -1.
         -6    1    1    2    0  502 -0.10148363355E+03  0.74111491481E+02 -0.16399832889E+02  0.21445138276E+03  0.17300000000E+03 0. -1.
</event>
<event>
 4    1  0.5904698E+000  0.1000000E+03  0.7546771E-02  0.1280296E+00
         21   -1    0    0  503  502  0.00000000000E+00  0.00000000000E+00  0.11912703783E+04  0.11912703783E+04  0.00000000000E+00 0. -1.
         21   -1    0    0  501  503 -0.00000000000E+00 -0.00000000000E+00 -0.35132896654E+02  0.35132896654E+02  0.00000000000E+00 0. -1.
          6    1    1    2  501    0  0.43522088241E+02  0.79719354985E+02  0.39637656530E+03  0.44191936962E+03  0.17300000000E+03 0. -1.
         -6    1    1    2    0  502 -0.43522088241E+02 -0.79719354985E+02  0.75976091631E+03  0.78448390530E+03  0.17300000000E+03 0. -1.
</event>
<event>
 4    1  0.5904698E+000  0.1000000E+03  0.7546771E-02  0.1280296E+00
         21   -1    0    0  503  502  0.00000000000E+00  0.00000000000E+00  0.45484835742E+03  0.45484835742E+03  0.00000000000E+00 0. -1.
         21   -1    0    0  501  503 -0.00000000000E+00 -0.00000000000E+00 -0.14616080796E+03  0.14616080796E+03  0.00000000000E+00 0. -1.
          6    1    1    2  501    0 -0.17264595734E+03 -0.72024589387E+02  0.20034433220E+03  0.32413117639E+03  0.17300000000E+03 0. -1.
         -6    1    1    2    0  502  0.17264595734E+03  0.72024589387E+02  0.10834321725E+03  0.27687798899E+03  0.17300000000E+03 0. -1.
</event>
<event>
 4    1  0.5904698E+000  0.1000000E+03  0.7546771E-02  0.1280296E+00
         21   -1    0    0  503  502  0.00000000000E+00  0.00000000000E+00  0.48043509946E+02  0.48043509946E+02  0.00000000000E+00 0. -1.
         21   -1    0    0  501  503 -0.00000000000E+00 -0.00000000000E+00 -0.10760784754E+04  0.10760784754E+04  0.00000000000E+00 0. -1.
          6    1    1    2  501    0  0.26703621264E+02 -0.95999841604E+02 -0.78300353029E+03  0.80805481337E+03  0.17300000000E+03 0. -1.
         -6    1    1    2    0  502 -0.26703621264E+02  0.95999841604E+02 -0.24503143516E+03  0.31606717196E+03  0.17300000000E+03 0. -1.
</event>
<event>
 4    1  0.5904698E+000  0.1000000E+03  0.7546771E-02  0.1280296E+00
         21   -1    0    0  501  502  0.00000000000E+00  0.00000000000E+00  0.46285940335E+03  0.46285940335E+03  0.00000000000E+00 0.  1.
         21   -1    0    0  502  503 -0.00000000000E+00 -0.00000000000E+00 -0.67225614391E+02  0.67225614391E+02  0.00000000000E+00 0.  1.
          6    1    1    2  501    0  0.50088035301E-01  0.24399527119E+02  0.23436482255E+03  0.29232038841E+03  0.17300000000E+03 0.  1.
         -6    1    1    2    0  503 -0.50088035301E-01 -0.24399527119E+02  0.16126896640E+03  0.23776462932E+03  0.17300000000E+03 0.  1.
</event>
<event>
 4    1  0.5904698E+000  0.1000000E+03  0.7546771E-02  0.1280296E+00
         21   -1    0    0  501  502  0.00000000000E+00  0.00000000000E+00  0.16379609683E+03  0.16379609683E+03  0.00000000000E+00 0.  1.
         21   -1    0    0  502  503 -0.00000000000E+00 -0.00000000000E+00 -0.27500964559E+03  0.27500964559E+03  0.00000000000E+00 0.  1.
          6    1    1    2  501    0 -0.17760397821E+02  0.49797551333E+02  0.59141049878E+02  0.19032049714E+03  0.17300000000E+03 0.  1.
         -6    1    1    2    0  503  0.17760397821E+02 -0.49797551333E+02 -0.17035459864E+03  0.24848524529E+03  0.17300000000E+03 0.  1.
</event>
<event>
 4    1  0.5904698E+000  0.1000000E+03  0.7546771E-02  0.1280296E+00
         21   -1    0    0  503  502  0.00000000000E+00  0.00000000000E+00  0.21473032977E+04  0.21473032977E+04  0.00000000000E+00 0.  1.
         21   -1    0    0  501  503 -0.00000000000E+00 -0.00000000000E+00 -0.31685434640E+02  0.31685434640E+02  0.00000000000E+00 0.  1.
          6    1    1    2  501    0  0.14075558500E+03 -0.59756248821E+02  0.15646773083E+04  0.15816216435E+04  0.17300000000E+03 0.  1.
         -6    1    1    2    0  502 -0.14075558500E+03  0.59756248821E+02  0.55094055472E+03  0.59736708883E+03  0.17300000000E+03 0.  1.
</event>
<event>
 4    1  0.5904698E+000  0.1000000E+03  0.7546771E-02  0.1280296E+00
         21   -1    0    0  503  502  0.00000000000E+00  0.00000000000E+00  0.56520120809E+02  0.56520120809E+02  0.00000000000E+00 0.  1.
         21   -1    0    0  501  503 -0.00000000000E+00 -0.00000000000E+00 -0.10483407967E+04  0.10483407967E+04  0.00000000000E+00 0.  1.
          6    1    1    2  501    0 -0.28986798497E+02 -0.78015659600E+02 -0.83554856517E+03  0.85731970838E+03  0.17300000000E+03 0.  1.
         -6    1    1    2    0  502  0.28986798497E+02  0.78015659600E+02 -0.15627211075E+03  0.24754120915E+03  0.17300000000E+03 0.  1.
</event>
<event>
 4    1  0.5904698E+000  0.1000000E+03  0.7546771E-02  0.1280296E+00
         21   -1    0    0  503  502  0.00000000000E+00  0.00000000000E+00  0.95392975420E+03  0.95392975420E+03  0.00000000000E+00 0.  1.
         21   -1    0    0  501  503 -0.00000000000E+00 -0.00000000000E+00 -0.51410040914E+02  0.51410040914E+02  0.00000000000E+00 0.  1.
          6    1    1    2  501    0  0.97526945773E+02  0.94279045800E+02  0.39066992341E+03  0.44827673672E+03  0.17300000000E+03 0.  1.
         -6    1    1    2    0  502 -0.97526945773E+02 -0.94279045800E+02  0.51184978988E+03  0.55706305839E+03  0.17300000000E+03 0.  1.
</event>
<event>
 4    1  0.5904698E+000  0.1000000E+03  0.7546771E-02  0.1280296E+00
         21   -1    0    0  501  502  0.00000000000E+00  0.00000000000E+00  0.14626155379E+03  0.14626155379E+03  0.00000000000E+00 0.  1.
         21   -1    0    0  502  503 -0.00000000000E+00 -0.00000000000E+00 -0.22902107609E+03  0.22902107609E+03  0.00000000000E+00 0. -1.
          6    1    1    2  501    0 -0.11909513423E+02  0.77394199237E+01  0.18103997444E+02  0.17452360830E+03  0.17300000000E+03 0.  1.
         -6    1    1    2    0  503  0.11909513423E+02 -0.77394199237E+01 -0.10086351974E+03  0.20075902158E+03  0.17300000000E+03 0.  1.
</event>
<event>
 4    1  0.5904698E+000  0.1000000E+03  0.7546771E-02  0.1280296E+00
         21   -1    0    0  501  502  0.00000000000E+00  0.00000000000E+00  0.49577081878E+03  0.49577081878E+03  0.00000000000E+00 0.  1.
         21   -1    0    0  502  503 -0.00000000000E+00 -0.00000000000E+00 -0.81846674763E+02  0.81846674763E+02  0.00000000000E+00 0. -1.
          6    1    1    2  501    0 -0.30907932839E+02 -0.75712270396E+02  0.11673293474E+03  0.22415000838E+03  0.17300000000E+03 0.  1.
         -6    1    1    2    0  503  0.30907932839E+02  0.75712270396E+02  0.29719120927E+03  0.35346748517E+03  0.17300000000E+03 0. -1.
</event>
<event>
 4    1  0.5904698E+000  0.1000000E+03  0.7546771E-02  0.1280296E+00
         21   -1    0    0  501  502  0.00000000000E+00  0.00000000000E+00  0.34734660720E+03  0.34734660720E+03  0.00000000000E+00 0.  1.
         21   -1    0    0  502  503 -0.00000000000E+00 -0.00000000000E+00 -0.57490007454E+03  0.57490007454E+03  0.00000000000E+00 0. -1.
          6    1    1    2  501    0  0.10960976728E+03  0.59056507298E+01  0.29602232210E+03  0.36001026788E+03  0.17300000000E+03 0.  1.
         -6    1    1    2    0  503 -0.10960976728E+03 -0.59056507298E+01 -0.52357578944E+03  0.56223641387E+03  0.17300000000E+03 0. -1.
</event>
<event>
 4    1  0.5904698E+000  0.1000000E+03  0.7546771E-02  0.1280296E+00
         21   -1    0    0  501  502  0.00000000000E+00  0.00000000000E+00  0.10335207104E+04  0.10335207104E+04  0.00000000000E+00 0.  1.
         21   -1    0    0  502  503 -0.00000000000E+00 -0.00000000000E+00 -0.10678699477E+03  0.10678699477E+03  0.00000000000E+00 0. -1.
          6    1    1    2  501    0  0.22586247574E+03 -0.16537789238E+03  0.38521063222E+03  0.50663590123E+03  0.17300000000E+03 0.  1.
         -6    1    1    2    0  503 -0.22586247574E+03  0.16537789238E+03  0.54152308338E+03  0.63367180391E+03  0.17300000000E+03 0. -1.
</event>
<event>
 4    1  0.5904698E+000  0.1000000E+03  0.7546771E-02  0.1280296E+00
         21   -1    0    0  501  502  0.00000000000E+00  0.00000000000E+00  0.46871091970E+03  0.46871091970E+03  0.00000000000E+00 0.  1.
         21   -1    0    0  502  503 -0.00000000000E+00 -0.00000000000E+00 -0.13361431282E+03  0.13361431282E+03  0.00000000000E+00 0.  1.
          6    1    1    2  501    0 -0.99440436657E+02 -0.14683507995E+03  0.12502525805E+03  0.27750541670E+03  0.17300000000E+03 0.  1.
         -6    1    1    2    0  503  0.99440436657E+02  0.14683507995E+03  0.21007134884E+03  0.32481981582E+03  0.17300000000E+03 0.  1.
</event>
<event>
 4    1  0.5904698E+000  0.1000000E+03  0.7546771E-02  0.1280296E+00
         21   -1    0    0  501  502  0.00000000000E+00  0.00000000000E+00  0.36639838872E+03  0.36639838872E+03  0.00000000000E+00 0.  1.
         21   -1    0    0  502  503 -0.00000000000E+00 -0.00000000000E+00 -0.13021825345E+03  0.13021825345E+03  0.00000000000E+00 0.  1.
          6    1    1    2  501    0 -0.20506807434E+02  0.13137017215E+03  0.12968901179E+03  0.25382452809E+03  0.17300000000E+03 0.  1.
         -6    1    1    2    0  503  0.20506807434E+02 -0.13137017215E+03  0.10649112348E+03  0.24279211409E+03  0.17300000000E+03 0.  1.
</event>
<event>
 4    1  0.5904698E+000  0.1000000E+03  0.7546771E-02  0.1280296E+00
         21   -1    0    0  503  502  0.00000000000E+00  0.00000000000E+00  0.12203908745E+04  0.12203908745E+04  0.00000000000E+00 0.  1.
         21   -1    0    0  501  503 -0.00000000000E+00 -0.00000000000E+00 -0.40918019303E+02  0.40918019303E+02  0.00000000000E+00 0. -1.
          6    1    1    2  501    0  0.97261004601E+02 -0.90479443186E+02  0.45261377772E+03  0.50242856651E+03  0.17300000000E+03 0. -1.
         -6    1    1    2    0  502 -0.97261004601E+02  0.90479443186E+02  0.72685907746E+03  0.75888032729E+03  0.17300000000E+03 0.  1.
</event>
<event>
 4    1  0.5904698E+000  0.1000000E+03  0.7546771E-02  0.1280296E+00
         21   -1    0    0  503  502  0.00000000000E+00  0.00000000000E+00  0.87003934611E+03  0.87003934611E+03  0.00000000000E+00 0.  1.
         21   -1    0    0  501  503 -0.00000000000E+00 -0.00000000000E+00 -0.50410460515E+02  0.50410460515E+02  0.00000000000E+00 0. -1.
          6    1    1    2  501    0 -0.33154072472E+02 -0.11235270883E+03  0.37813907086E+03  0.43201907436E+03  0.17300000000E+03 0. -1.
         -6    1    1    2    0  502  0.33154072472E+02  0.11235270883E+03  0.44148981474E+03  0.48843073227E+03  0.17300000000E+03 0.  1.
</event>
<event>
 4    1  0.5904698E+000  0.1000000E+03  0.7546771E-02  0.1280296E+00
         21   -1    0    0  501  502  0.00000000000E+00  0.00000000000E+00  0.12138226495E+03  0.12138226495E+03  0.00000000000E+00 0. -1.
         21   -1    0    0  502  503 -0.00000000000E+00 -0.00000000000E+00 -0.95478836854E+03  0.95478836854E+03  0.00000000000E+00 0.  1.
          6    1    1    2  501    0  0.12026363519E+03 -0.16954821624E+03 -0.74352832153E+03  0.79118474738E+03  0.17300000000E+03 0. -1.
         -6    1    1    2    0  503 -0.12026363519E+03  0.16954821624E+03 -0.89877782062E+02  0.28498588612E+03  0.17300000000E+03 0.  1.
</event>
<event>
 4    1  0.5904698E+000  0.1000000E+03  0.7546771E-02  0.1280296E+00
         21   -1    0    0  501  502  0.00000000000E+00  0.00000000000E+00  0.13783463074E+03  0.13783463074E+03  0.00000000000E+00 0. -1.
         21   -1    0    0  502  503 -0.00000000000E+00 -0.00000000000E+00 -0.33344962802E+03  0.33344962802E+03  0.00000000000E+00 0.  1.
          6    1    1    2  501    0  0.71955036763E+02  0.97230708715E+02 -0.56672565587E+02  0.21856833651E+03  0.17300000000E+03 0. -1.
         -6    1    1    2    0  503 -0.71955036763E+02 -0.97230708715E+02 -0.13894243170E+03  0.25271592225E+03  0.17300000000E+03 0.  1.
</event>
<event>
 4    1  0.5904698E+000  0.1000000E+03  0.7546771E-02  0.1280296E+00
         21   -1    0    0  501  502  0.00000000000E+00  0.00000000000E+00  0.13529713356E+04  0.13529713356E+04  0.00000000000E+00 0. -1.
         21   -1    0    0  502  503 -0.00000000000E+00 -0.00000000000E+00 -0.28228686705E+03  0.28228686705E+03  0.00000000000E+00 0. -1.
          6    1    1    2  501    0 -0.94024112124E+02  0.37813849638E+03  0.11272632996E+04  0.12051891149E+04  0.17300000000E+03 0. -1.
         -6    1    1    2    0  503  0.94024112124E+02 -0.37813849638E+03 -0.56578831039E+02  0.43006908774E+03  0.17300000000E+03 0. -1.
</event>
<event>
 4    1  0.5904698E+000  0.1000000E+03  0.7546771E-02  0.1280296E+00
         21   -1    0    0  501  502  0.00000000000E+00  0.00000000000E+00  0.30643315011E+03  0.30643315011E+03  0.00000000000E+00 0. -1.
         21   -1    0    0  502  503 -0.00000000000E+00 -0.00000000000E+00 -0.39318739668E+03  0.39318739668E+03  0.00000000000E+00 0. -1.
          6    1    1    2  501    0  0.59856395688E+02 -0.19093661805E+02  0.25320648759E+03  0.31303335507E+03  0.17300000000E+03 0. -1.
         -6    1    1    2    0  503 -0.59856395688E+02  0.19093661805E+02 -0.33996073417E+03  0.38658719172E+03  0.17300000000E+03 0. -1.
</event>
<event>
 4    1  0.5904698E+000  0.1000000E+03  0.7546771E-02  0.1280296E+00
         21   -1    0    0  501  502  0.00000000000E+00  0.00000000000E+00  0.36790971774E+02  0.36790971774E+02  0.00000000000E+00 0. -1.
         21   -1    0    0  502  503 -0.00000000000E+00 -0.00000000000E+00 -0.13971133825E+04  0.13971133825E+04  0.00000000000E+00 0. -1.
          6    1    1    2  501    0  0.12379288635E+03  0.14646997102E+02 -0.43658272206E+03  0.48587311763E+03  0.17300000000E+03 0. -1.
         -6    1    1    2    0  503 -0.12379288635E+03 -0.14646997102E+02 -0.92373968867E+03  0.94803123664E+03  0.17300000000E+03 0. -1.
</event>
<event>
 4    1  0.5904698E+000  0.1000000E+03  0.7546771E-02  0.1280296E+00
         21   -1    0    0  501  502  0.00000000000E+00  0.00000000000E+00  0.28953161310E+03  0.28953161310E+03  0.00000000000E+00 0. -1.
         21   -1    0    0  502  503 -0.00000000000E+00 -0.00000000000E+00 -0.51262186033E+03  0.51262186033E+03  0.00000000000E+00 0. -1.
          6    1    1    2  501    0  0.10684297011E+03  0.92584901432E+02  0.21519879928E+03  0.31020462189E+03  0.17300000000E+03 0. -1.
         -6    1    1    2    0  503 -0.10684297011E+03 -0.92584901432E+02 -0.43828904651E+03  0.49194885153E+03  0.17300000000E+03 0. -1.
</event>
<event>
 4    1  0.5904698E+000  0.1000000E+03  0.7546771E-02  0.1280296E+00
         21   -1    0    0  501  502  0.00000000000E+00  0.00000000000E+00  0.44958489438E+03  0.44958489438E+03  0.00000000000E+00 0. -1.
         21   -1    0    0  502  503 -0.00000000000E+00 -0.00000000000E+00 -0.19517489198E+03  0.19517489198E+03  0.00000000000E+00 0. -1.
          6    1    1    2  501    0  0.57515670186E+02  0.20376347422E+02  0.38032731274E+03  0.42225716414E+03  0.17300000000E+03 0. -1.
         -6    1    1    2    0  503 -0.57515670186E+02 -0.20376347422E+02 -0.12591731034E+03  0.22250262222E+03  0.17300000000E+03 0. -1.
</event>
<event>
 4    1  0.5904698E+000  0.1000000E+03  0.7546771E-02  0.1280296E+00
         21   -1    0    0  503  502  0.00000000000E+00  0.00000000000E+00  0.27257430987E+03  0.27257430987E+03  0.00000000000E+00 0.  1.
         21   -1    0    0  501  503 -0.00000000000E+00 -0.00000000000E+00 -0.37464033820E+03  0.37464033820E+03  0.00000000000E+00 0.  1.
          6    1    1    2  501    0 -0.33685954442E+00  0.10799172207E+03 -0.30017081235E+03  0.36289646195E+03  0.17300000000E+03 0.  1.
         -6    1    1    2    0  502  0.33685954442E+00 -0.10799172207E+03  0.19810478402E+03  0.28431818613E+03  0.17300000000E+03 0.  1.
</event>
<event>
 4    1  0.5904698E+000  0.1000000E+03  0.7546771E-02  0.1280296E+00
         21   -1    0    0  503  502  0.00000000000E+00  0.00000000000E+00  0.53903417309E+03  0.53903417309E+03  0.00000000000E+00 0.  1.
         21   -1    0    0  501  503 -0.00000000000E+00 -0.00000000000E+00 -0.70604422669E+02  0.70604422669E+02  0.00000000000E+00 0.  1.
          6    1    1    2  501    0  0.15501705190E+01 -0.88971313774E+02  0.21152377785E+03  0.28738407454E+03  0.17300000000E+03 0.  1.
         -6    1    1    2    0  502 -0.15501705190E+01  0.88971313774E+02  0.25690597257E+03  0.32225452122E+03  0.17300000000E+03 0.  1.
</event>
<event>
 4    1  0.5904698E+000  0.1000000E+03  0.7546771E-02  0.1280296E+00
         21   -1    0    0  503  502  0.00000000000E+00  0.00000000000E+00  0.10393727404E+03  0.10393727404E+03  0.00000000000E+00 0.  1.
         21   -1    0    0  501  503 -0.00000000000E+00 -0.00000000000E+00 -0.10236942519E+04  0.10236942519E+04  0.00000000000E+00 0.  1.
          6    1    1    2  501    0 -0.39501381186E+02  0.51059675425E+02 -0.92465717275E+03  0.94291427854E+03  0.17300000000E+03 0.  1.
         -6    1    1    2    0  502  0.39501381186E+02 -0.51059675425E+02  0.49001948942E+01  0.18471724738E+03  0.17300000000E+03 0.  1.
</event>
<event>
 4    1  0.5904698E+000  0.1000000E+03  0.7546771E-02  0.1280296E+00
         21   -1    0    0  503  502  0.00000000000E+00  0.00000000000E+00  0.81377391836E+03  0.81377391836E+03  0.00000000000E+00 0. -1.
         21   -1    0    0  501  503 -0.00000000000E+00 -0.00000000000E+00 -0.61173169091E+02  0.61173169091E+02  0.00000000000E+00 0. -1.
          6    1    1    2  501    0  0.10364319167E+03  0.69974281387E+02  0.24902120830E+03  0.32799218500E+03  0.17300000000E+03 0. -1.
         -6    1    1    2    0  502 -0.10364319167E+03 -0.69974281387E+02  0.50357954097E+03  0.54695490245E+03  0.17300000000E+03 0. -1.
</event>
<event>
 4    1  0.5904698E+000  0.1000000E+03  0.7546771E-02  0.1280296E+00
         21   -1    0    0  503  502  0.00000000000E+00  0.00000000000E+00  0.13248439406E+04  0.13248439406E+04  0.00000000000E+00 0. -1.
         21   -1    0    0  501  503 -0.00000000000E+00 -0.00000000000E+00 -0.41491035401E+02  0.41491035401E+02  0.00000000000E+00 0. -1.
          6    1    1    2  501    0  0.39780187216E+02  0.99245446297E+02  0.30176543629E+03  0.36390039907E+03  0.17300000000E+03 0. -1.
         -6    1    1    2    0  502 -0.39780187216E+02 -0.99245446297E+02  0.98158746893E+03  0.10024345770E+04  0.17300000000E+03 0. -1.
</event>
<event>
 4    1  0.5904698E+000  0.1000000E+03  0.7546771E-02  0.1280296E+00
         21   -1    0    0  503  502  0.00000000000E+00  0.00000000000E+00  0.15076204556E+04  0.15076204556E+04  0.00000000000E+00 0.  1.
         21   -1    0    0  501  503 -0.00000000000E+00 -0.00000000000E+00 -0.31330946956E+02  0.31330946956E+02  0.00000000000E+00 0.  1.
          6    1    1    2  501    0  0.42098362115E+02  0.70168649829E+02  0.37345357904E+03  0.41963375366E+03  0.17300000000E+03 0.  1.
         -6    1    1    2    0  502 -0.42098362115E+02 -0.70168649829E+02  0.11028359296E+04  0.11193176489E+04  0.17300000000E+03 0.  1.
</event>
<event>
 4    1  0.5904698E+000  0.1000000E+03  0.7546771E-02  0.1280296E+00
         21   -1    0    0  503  502  0.00000000000E+00  0.00000000000E+00  0.12748128031E+03  0.12748128031E+03  0.00000000000E+00 0.  1.
         21   -1    0    0  501  503 -0.00000000000E+00 -0.00000000000E+00 -0.51453019631E+03  0.51453019631E+03  0.00000000000E+00 0. -1.
          6    1    1    2  501    0  0.33133325533E+02 -0.55608420682E+02 -0.41588571489E+03  0.45506048122E+03  0.17300000000E+03 0. -1.
         -6    1    1    2    0  502 -0.33133325533E+02  0.55608420682E+02  0.28836798899E+02  0.18695099540E+03  0.17300000000E+03 0.  1.
</event>
<event>
 4    1  0.5904698E+000  0.1000000E+03  0.7546771E-02  0.1280296E+00
         21   -1    0    0  503  502  0.00000000000E+00  0.00000000000E+00  0.71018791306E+03  0.71018791306E+03  0.00000000000E+00 0.  1.
         21   -1    0    0  501  503 -0.00000000000E+00 -0.00000000000E+00 -0.61256980402E+02  0.61256980402E+02  0.00000000000E+00 0. -1.
          6    1    1    2  501    0  0.11440190251E+01 -0.10947548153E+03  0.25075282276E+03  0.32371618427E+03  0.17300000000E+03 0. -1.
         -6    1    1    2    0  502 -0.11440190251E+01  0.10947548153E+03  0.39817810990E+03  0.44772870919E+03  0.17300000000E+03 0.  1.
</event>
<event>
 4    1  0.5904698E+000  0.1000000E+03  0.7546771E-02  0.1280296E+00
         21   -1    0    0  503  502  0.00000000000E+00  0.00000000000E+00  0.61102645489E+02  0.61102645489E+02  0.00000000000E+00 0.  1.
         21   -1    0    0  501  503 -0.00000000000E+00 -0.00000000000E+00 -0.20258248899E+04  0.20258248899E+04  0.00000000000E+00 0. -1.
          6    1    1    2  501    0 -0.16912754965E+03  0.18029684984E+03 -0.15190305177E+04  0.15487071369E+04  0.17300000000E+03 0. -1.
         -6    1    1    2    0  502  0.16912754965E+03 -0.18029684984E+03 -0.44569172670E+03  0.53822039850E+03  0.17300000000E+03 0.  1.
</event>
<event>
 4    1  0.5904698E+000  0.1000000E+03  0.7546771E-02  0.1280296E+00
         21   -1    0    0  501  502  0.00000000000E+00  0.00000000000E+00  0.23089863652E+03  0.23089863652E+03  0.00000000000E+00 0. -1.
         21   -1    0    0  502  503 -0.00000000000E+00 -0.00000000000E+00 -0.53660147820E+03  0.53660147820E+03  0.00000000000E+00 0. -1.
          6    1    1    2  501    0 -0.11709489423E+03  0.45164563869E+02  0.15205889935E+03  0.26230127898E+03  0.17300000000E+03 0. -1.
         -6    1    1    2    0  503  0.11709489423E+03 -0.45164563869E+02 -0.45776174103E+03  0.50519883574E+03  0.17300000000E+03 0. -1.
</event>
<event>
 4    1  0.5904698E+000  0.1000000E+03  0.7546771E-02  0.1280296E+00
         21   -1    0    0  501  502  0.00000000000E+00  0.00000000000E+00  0.16351803609E+03  0.16351803609E+03  0.00000000000E+00 0. -1.
         21   -1    0    0  502  503 -0.00000000000E+00 -0.00000000000E+00 -0.19575395366E+03  0.19575395366E+03  0.00000000000E+00 0. -1.
          6    1    1    2  501    0 -0.39792920011E+02  0.16723827180E+02 -0.30913278665E+02  0.18096351477E+03  0.17300000000E+03 0. -1.
         -6    1    1    2    0  503  0.39792920011E+02 -0.16723827180E+02 -0.13226389002E+01  0.17830847499E+03  0.17300000000E+03 0. -1.
</event>
<event>
 4    1  0.5904698E+000  0.1000000E+03  0.7546771E-02  0.1280296E+00
         21   -1    0    0  503  502  0.00000000000E+00  0.00000000000E+00  0.26895297676E+03  0.26895297676E+03  0.00000000000E+00 0.  1.
         21   -1    0    0  501  503 -0.00000000000E+00 -0.00000000000E+00 -0.35300791111E+03  0.35300791111E+03  0.00000000000E+00 0.  1.
          6    1    1    2  501    0  0.10635552436E+03 -0.54305051766E+02 -0.26939764876E+03  0.34170839815E+03  0.17300000000E+03 0.  1.
         -6    1    1    2    0  502 -0.10635552436E+03  0.54305051766E+02  0.18534271441E+03  0.28025248972E+03  0.17300000000E+03 0.  1.
</event>
<event>
 4    1  0.5904698E+000  0.1000000E+03  0.7546771E-02  0.1280296E+00
         21   -1    0    0  501  502  0.00000000000E+00  0.00000000000E+00  0.99444568103E+03  0.99444568103E+03  0.00000000000E+00 0. -1.
         21   -1    0    0  502  503 -0.00000000000E+00 -0.00000000000E+00 -0.59679221400E+02  0.59679221400E+02  0.00000000000E+00 0. -1.
          6    1    1    2  501    0 -0.20342677696E+02  0.95502854890E+02  0.77246285432E+03  0.79759794454E+03  0.17300000000E+03 0. -1.
         -6    1    1    2    0  503  0.20342677696E+02 -0.95502854890E+02  0.16230360531E+03  0.25652695789E+03  0.17300000000E+03 0. -1.
</event>
<event>
 4    1  0.5904698E+000  0.1000000E+03  0.7546771E-02  0.1280296E+00
         21   -1    0    0  501  502  0.00000000000E+00  0.00000000000E+00  0.15233364053E+03  0.15233364053E+03  0.00000000000E+00 0. -1.
         21   -1    0    0  502  503 -0.00000000000E+00 -0.00000000000E+00 -0.43999361251E+03  0.43999361251E+03  0.00000000000E+00 0. -1.
          6    1    1    2  501    0  0.17823612186E+03  0.48057575944E+02 -0.80972740413E+02  0.26563740405E+03  0.17300000000E+03 0. -1.
         -6    1    1    2    0  503 -0.17823612186E+03 -0.48057575944E+02 -0.20668723157E+03  0.32668984899E+03  0.17300000000E+03 0. -1.
</event>
<event>
 4    1  0.5904698E+000  0.1000000E+03  0.7546771E-02  0.1280296E+00
         21   -1    0    0  501  502  0.00000000000E+00  0.00000000000E+00  0.24848168920E+03  0.24848168920E+03  0.00000000000E+00 0. -1.
         21   -1    0    0  502  503 -0.00000000000E+00 -0.00000000000E+00 -0.38510750874E+03  0.38510750874E+03  0.00000000000E+00 0.  1.
          6    1    1    2  501    0 -0.19007486857E+03  0.53871563893E+02  0.99127347060E+02  0.28068814010E+03  0.17300000000E+03 0.  1.
         -6    1    1    2    0  503  0.19007486857E+03 -0.53871563893E+02 -0.23575316660E+03  0.35290105784E+03  0.17300000000E+03 0. -1.
</event>
<event>
 4    1  0.5904698E+000  0.1000000E+03  0.7546771E-02  0.1280296E+00
         21   -1    0    0  501  502  0.00000000000E+00  0.00000000000E+00  0.31763208717E+03  0.31763208717E+03  0.00000000000E+00 0.  1.
         21   -1    0    0  502  503 -0.00000000000E+00 -0.00000000000E+00 -0.12461288968E+03  0.12461288968E+03  0.00000000000E+00 0. -1.
          6    1    1    2  501    0 -0.33842506479E+02 -0.42096737899E+02  0.18772017543E+03  0.26093162869E+03  0.17300000000E+03 0.  1.
         -6    1    1    2    0  503  0.33842506479E+02  0.42096737899E+02  0.52990220590E+01  0.18131334816E+03  0.17300000000E+03 0.  1.
</event>
<event>
 4    1  0.5904698E+000  0.1000000E+03  0.7546771E-02  0.1280296E+00
         21   -1    0    0  501  502  0.00000000000E+00  0.00000000000E+00  0.49837081272E+03  0.49837081272E+03  0.00000000000E+00 0.  1.
         21   -1    0    0  502  503 -0.00000000000E+00 -0.00000000000E+00 -0.32048853238E+03  0.32048853238E+03  0.00000000000E+00 0. -1.
          6    1    1    2  501    0 -0.37015112416E+02  0.80057954748E+02  0.44679122873E+03  0.48716608742E+03  0.17300000000E+03 0.  1.
         -6    1    1    2    0  503  0.37015112416E+02 -0.80057954748E+02 -0.26890894838E+03  0.33169325768E+03  0.17300000000E+03 0.  1.
</event>
<event>
 4    1  0.5904698E+000  0.1000000E+03  0.7546771E-02  0.1280296E+00
         21   -1    0    0  503  502  0.00000000000E+00  0.00000000000E+00  0.70423833043E+03  0.70423833043E+03  0.00000000000E+00 0. -1.
         21   -1    0    0  501  503 -0.00000000000E+00 -0.00000000000E+00 -0.68452274924E+03  0.68452274924E+03  0.00000000000E+00 0. -1.
          6    1    1    2  501    0 -0.49486717222E+03  0.44911635671E+03 -0.64575096236E+02  0.69332385150E+03  0.17300000000E+03 0. -1.
         -6    1    1    2    0  502  0.49486717222E+03 -0.44911635671E+03  0.84290677428E+02  0.69543722816E+03  0.17300000000E+03 0. -1.
</event>
<event>
 4    1  0.5904698E+000  0.1000000E+03  0.7546771E-02  0.1280296E+00
         21   -1    0    0  501  502  0.00000000000E+00  0.00000000000E+00  0.14838853786E+04  0.14838853786E+04  0.00000000000E+00 0. -1.
         21   -1    0    0  502  503 -0.00000000000E+00 -0.00000000000E+00 -0.38753140667E+02  0.38753140667E+02  0.00000000000E+00 0. -1.
          6    1    1    2  501    0  0.12000009456E+03  0.51141327979E+02  0.10488238316E+04  0.10709696018E+04  0.17300000000E+03 0. -1.
         -6    1    1    2    0  503 -0.12000009456E+03 -0.51141327979E+02  0.39630840626E+03  0.45166891746E+03  0.17300000000E+03 0. -1.
</event>
<event>
 4    1  0.5904698E+000  0.1000000E+03  0.7546771E-02  0.1280296E+00
         21   -1    0    0  501  502  0.00000000000E+00  0.00000000000E+00  0.76649004193E+02  0.76649004193E+02  0.00000000000E+00 0. -1.
         21   -1    0    0  502  503 -0.00000000000E+00 -0.00000000000E+00 -0.75175334351E+03  0.75175334351E+03  0.00000000000E+00 0. -1.
          6    1    1    2  501    0 -0.30083645525E+02  0.13393620188E+03 -0.17524108729E+03  0.28192617931E+03  0.17300000000E+03 0. -1.
         -6    1    1    2    0  503  0.30083645525E+02 -0.13393620188E+03 -0.49986325203E+03  0.54647616840E+03  0.17300000000E+03 0. -1.
</event>
<event>
 4    1  0.5904698E+000  0.1000000E+03  0.7546771E-02  0.1280296E+00
         21   -1    0    0  501  502  0.00000000000E+00  0.00000000000E+00  0.17889512019E+04  0.17889512019E+04  0.00000000000E+00 0. -1.
         21   -1    0    0  502  503 -0.00000000000E+00 -0.00000000000E+00 -0.43253215001E+02  0.43253215001E+02  0.00000000000E+00 0. -1.
          6    1    1    2  501    0  0.11085019151E+03  0.12675822076E+03  0.13279188040E+04  0.13496861715E+04  0.17300000000E+03 0. -1.
         -6    1    1    2    0  503 -0.11085019151E+03 -0.12675822076E+03  0.41777918286E+03  0.48251824537E+03  0.17300000000E+03 0. -1.
</event>
<event>
 4    1  0.5904698E+000  0.1000000E+03  0.7546771E-02  0.1280296E+00
         21   -1    0    0  503  502  0.00000000000E+00  0.00000000000E+00  0.48856170374E+03  0.48856170374E+03  0.00000000000E+00 0.  1.
         21   -1    0    0  501  503 -0.00000000000E+00 -0.00000000000E+00 -0.12570400698E+03  0.12570400698E+03  0.00000000000E+00 0.  1.
          6    1    1    2  501    0 -0.11795169947E+03  0.12759599770E+03  0.13688442858E+03  0.28081967314E+03  0.17300000000E+03 0.  1.
         -6    1    1    2    0  502  0.11795169947E+03 -0.12759599770E+03  0.22597326818E+03  0.33344603757E+03  0.17300000000E+03 0.  1.
</event>
<event>
 4    1  0.5904698E+000  0.1000000E+03  0.7546771E-02  0.1280296E+00
         21   -1    0    0  503  502  0.00000000000E+00  0.00000000000E+00  0.52928109002E+03  0.52928109002E+03  0.00000000000E+00 0. -1.
         21   -1    0    0  501  503 -0.00000000000E+00 -0.00000000000E+00 -0.81190041710E+02  0.81190041710E+02  0.00000000000E+00 0.  1.
          6    1    1    2  501    0 -0.50047258330E+02  0.75208108422E+02  0.12115965350E+03  0.22971645408E+03  0.17300000000E+03 0.  1.
         -6    1    1    2    0  502  0.50047258330E+02 -0.75208108422E+02  0.32693139482E+03  0.38075467766E+03  0.17300000000E+03 0. -1.
</event>
<event>
 4    1  0.5904698E+000  0.1000000E+03  0.7546771E-02  0.1280296E+00
         21   -1    0    0  503  502  0.00000000000E+00  0.00000000000E+00  0.48684404252E+02  0.48684404252E+02  0.00000000000E+00 0. -1.
         21   -1    0    0  501  503 -0.00000000000E+00 -0.00000000000E+00 -0.79944372015E+03  0.79944372015E+03  0.00000000000E+00 0.  1.
          6    1    1    2  501    0 -0.11702041785E+02  0.85930790324E+02 -0.45780499721E+03  0.49702661295E+03  0.17300000000E+03 0.  1.
         -6    1    1    2    0  502  0.11702041785E+02 -0.85930790324E+02 -0.29295431869E+03  0.35110151146E+03  0.17300000000E+03 0. -1.
</event>
<event>
 4    1  0.5904698E+000  0.1000000E+03  0.7546771E-02  0.1280296E+00
         21   -1    0    0  503  502  0.00000000000E+00  0.00000000000E+00  0.36653766766E+02  0.36653766766E+02  0.00000000000E+00 0. -1.
         21   -1    0    0  501  503 -0.00000000000E+00 -0.00000000000E+00 -0.85954167707E+03  0.85954167707E+03  0.00000000000E+00 0.  1.
          6    1    1    2  501    0 -0.30918086907E+02 -0.22026438574E+02 -0.44081409284E+03  0.47506542343E+03  0.17300000000E+03 0.  1.
         -6    1    1    2    0  502  0.30918086907E+02  0.22026438574E+02 -0.38207381746E+03  0.42113002040E+03  0.17300000000E+03 0. -1.
</event>
<event>
 4    1  0.5904698E+000  0.1000000E+03  0.7546771E-02  0.1280296E+00
         21   -1    0    0  503  502  0.00000000000E+00  0.00000000000E+00  0.46664545474E+02  0.46664545474E+02  0.00000000000E+00 0. -1.
         21   -1    0    0  501  503 -0.00000000000E+00 -0.00000000000E+00 -0.30273714714E+04  0.30273714714E+04  0.00000000000E+00 0.  1.
          6    1    1    2  501    0  0.16998343263E+03  0.58008217328E+01 -0.26643121223E+04  0.26753347645E+04  0.17300000000E+03 0.  1.
         -6    1    1    2    0  502 -0.16998343263E+03 -0.58008217328E+01 -0.31639480356E+03  0.39870125235E+03  0.17300000000E+03 0. -1.
</event>
<event>
 4    1  0.5904698E+000  0.1000000E+03  0.7546771E-02  0.1280296E+00
         21   -1    0    0  501  502  0.00000000000E+00  0.00000000000E+00  0.18262421750E+04  0.18262421750E+04  0.00000000000E+00 0.  1.
         21   -1    0    0  502  503 -0.00000000000E+00 -0.00000000000E+00 -0.68064868790E+02  0.68064868790E+02  0.00000000000E+00 0.  1.
          6    1    1    2  501    0 -0.10800541357E+03  0.73304526346E+02  0.16261707450E+04  0.16405483885E+04  0.17300000000E+03 0.  1.
         -6    1    1    2    0  503  0.10800541357E+03 -0.73304526346E+02  0.13200656115E+03  0.25375865528E+03  0.17300000000E+03 0.  1.
</event>
<event>
 4    1  0.5904698E+000  0.1000000E+03  0.7546771E-02  0.1280296E+00
         21   -1    0    0  501  502  0.00000000000E+00  0.00000000000E+00  0.20755233141E+02  0.20755233141E+02  0.00000000000E+00 0.  1.
         21   -1    0    0  502  503 -0.00000000000E+00 -0.00000000000E+00 -0.20127522530E+04  0.20127522530E+04  0.00000000000E+00 0.  1.
          6    1    1    2  501    0  0.62126590980E+02  0.69730756919E+02 -0.71795303349E+03  0.74438407430E+03  0.17300000000E+03 0.  1.
         -6    1    1    2    0  503 -0.62126590980E+02 -0.69730756919E+02 -0.12740439864E+04  0.12891234119E+04  0.17300000000E+03 0.  1.
</event>
<event>
 4    1  0.5904698E+000  0.1000000E+03  0.7546771E-02  0.1280296E+00
         21   -1    0    0  501  502  0.00000000000E+00  0.00000000000E+00  0.27851013015E+03  0.27851013015E+03  0.00000000000E+00 0.  1.
         21   -1    0    0  502  503 -0.00000000000E+00 -0.00000000000E+00 -0.36738162774E+03  0.36738162774E+03  0.00000000000E+00 0. -1.
          6    1    1    2  501    0 -0.40274727328E+02 -0.21523504337E+03  0.11340597324E+03  0.30122764203E+03  0.17300000000E+03 0. -1.
         -6    1    1    2    0  503  0.40274727328E+02  0.21523504337E+03 -0.20227747083E+03  0.34466411586E+03  0.17300000000E+03 0.  1.
</event>
<event>
 4    1  0.5904698E+000  0.1000000E+03  0.7546771E-02  0.1280296E+00
         21   -1    0    0  501  502  0.00000000000E+00  0.00000000000E+00  0.42672840518E+02  0.42672840518E+02  0.00000000000E+00 0.  1.
         21   -1    0    0  502  503 -0.00000000000E+00 -0.00000000000E+00 -0.11456177078E+04  0.11456177078E+04  0.00000000000E+00 0. -1.
          6    1    1    2  501    0  0.39612333115E+02  0.48682903200E+02 -0.22215726645E+03  0.28848225774E+03  0.17300000000E+03 0. -1.
         -6    1    1    2    0  503 -0.39612333115E+02 -0.48682903200E+02 -0.88078760087E+03  0.89980829061E+03  0.17300000000E+03 0.  1.
</event>
<event>
 4    1  0.5904698E+000  0.1000000E+03  0.7546771E-02  0.1280296E+00
         21   -1    0    0  501  502  0.00000000000E+00  0.00000000000E+00  0.38377936978E+03  0.38377936978E+03  0.00000000000E+00 0.  1.
         21   -1    0    0  502  503 -0.00000000000E+00 -0.00000000000E+00 -0.83266241500E+02  0.83266241500E+02  0.00000000000E+00 0. -1.
          6    1    1    2  501    0 -0.42465244144E+01 -0.38369907124E+02  0.18051680903E+03  0.25299328268E+03  0.17300000000E+03 0. -1.
         -6    1    1    2    0  503  0.42465244144E+01  0.38369907124E+02  0.11999631925E+03  0.21405232859E+03  0.17300000000E+03 0.  1.
</event>
<event>
 4    1  0.5904698E+000  0.1000000E+03  0.7546771E-02  0.1280296E+00
         21   -1    0    0  503  502  0.00000000000E+00  0.00000000000E+00  0.14055199830E+03  0.14055199830E+03  0.00000000000E+00 0. -1.
         21   -1    0    0  501  503 -0.00000000000E+00 -0.00000000000E+00 -0.66568246562E+03  0.66568246562E+03  0.00000000000E+00 0.  1.
          6    1    1    2  501    0 -0.13819661307E+03  0.13319457234E+03 -0.47829267139E+03  0.54362852893E+03  0.17300000000E+03 0.  1.
         -6    1    1    2    0  502  0.13819661307E+03 -0.13319457234E+03 -0.46837795939E+02  0.26260593499E+03  0.17300000000E+03 0. -1.
</event>
<event>
 4    1  0.5904698E+000  0.1000000E+03  0.7546771E-02  0.1280296E+00
         21   -1    0    0  503  502  0.00000000000E+00  0.00000000000E+00  0.11356704641E+03  0.11356704641E+03  0.00000000000E+00 0. -1.
         21   -1    0    0  501  503 -0.00000000000E+00 -0.00000000000E+00 -0.36965693875E+03  0.36965693875E+03  0.00000000000E+00 0.  1.
          6    1    1    2  501    0  0.63075046586E+02  0.28842557962E+02 -0.22839252995E+03  0.29479230382E+03  0.17300000000E+03 0.  1.
         -6    1    1    2    0  502 -0.63075046586E+02 -0.28842557962E+02 -0.27697362390E+02  0.18843168135E+03  0.17300000000E+03 0. -1.
</event>
<event>
 4    1  0.5904698E+000  0.1000000E+03  0.7546771E-02  0.1280296E+00
         21   -1    0    0  503  502  0.00000000000E+00  0.00000000000E+00  0.51057543108E+03  0.51057543108E+03  0.00000000000E+00 0. -1.
         21   -1    0    0  501  503 -0.00000000000E+00 -0.00000000000E+00 -0.72900099782E+02  0.72900099782E+02  0.00000000000E+00 0.  1.
          6    1    1    2  501    0 -0.29442208983E+02  0.91014953808E+00  0.97634913421E+02  0.20082143402E+03  0.17300000000E+03 0.  1.
         -6    1    1    2    0  502  0.29442208983E+02 -0.91014953808E+00  0.34004041787E+03  0.38265409684E+03  0.17300000000E+03 0. -1.
</event>
<event>
 4    1  0.5904698E+000  0.1000000E+03  0.7546771E-02  0.1280296E+00
         21   -1    0    0  501  502  0.00000000000E+00  0.00000000000E+00  0.55523469792E+03  0.55523469792E+03  0.00000000000E+00 0. -1.
         21   -1    0    0  502  503 -0.00000000000E+00 -0.00000000000E+00 -0.18979574490E+03  0.18979574490E+03  0.00000000000E+00 0. -1.
          6    1    1    2  501    0 -0.28673965883E+02 -0.24768537223E+02  0.49491507745E+03  0.52564780095E+03  0.17300000000E+03 0. -1.
         -6    1    1    2    0  503  0.28673965883E+02  0.24768537223E+02 -0.12947612443E+03  0.21938264187E+03  0.17300000000E+03 0. -1.
</event>
<event>
 4    1  0.5904698E+000  0.1000000E+03  0.7546771E-02  0.1280296E+00
         21   -1    0    0  501  502  0.00000000000E+00  0.00000000000E+00  0.22152967179E+03  0.22152967179E+03  0.00000000000E+00 0. -1.
         21   -1    0    0  502  503 -0.00000000000E+00 -0.00000000000E+00 -0.41040438098E+03  0.41040438098E+03  0.00000000000E+00 0. -1.
          6    1    1    2  501    0  0.46990918081E+02 -0.35587384554E+02  0.15686893294E+03  0.24085570461E+03  0.17300000000E+03 0. -1.
         -6    1    1    2    0  503 -0.46990918081E+02  0.35587384554E+02 -0.34574364213E+03  0.39107834815E+03  0.17300000000E+03 0. -1.
</event>
<event>
 4    1  0.5904698E+000  0.1000000E+03  0.7546771E-02  0.1280296E+00
         21   -1    0    0  501  502  0.00000000000E+00  0.00000000000E+00  0.12283457790E+03  0.12283457790E+03  0.00000000000E+00 0. -1.
         21   -1    0    0  502  503 -0.00000000000E+00 -0.00000000000E+00 -0.60262987471E+03  0.60262987471E+03  0.00000000000E+00 0. -1.
          6    1    1    2  501    0 -0.20713156563E+03  0.19420797569E+02 -0.20185696699E+03  0.33757352974E+03  0.17300000000E+03 0. -1.
         -6    1    1    2    0  503  0.20713156563E+03 -0.19420797569E+02 -0.27793832982E+03  0.38789092287E+03  0.17300000000E+03 0. -1.
</event>
<event>
 4    1  0.5904698E+000  0.1000000E+03  0.7546771E-02  0.1280296E+00
         21   -1    0    0  501  502  0.00000000000E+00  0.00000000000E+00  0.21729637674E+03  0.21729637674E+03  0.00000000000E+00 0.  1.
         21   -1    0    0  502  503 -0.00000000000E+00 -0.00000000000E+00 -0.18064175236E+03  0.18064175236E+03  0.00000000000E+00 0. -1.
          6    1    1    2  501    0  0.45480541086E+02 -0.47076462310E+02  0.89617183051E+02  0.20553567189E+03  0.17300000000E+03 0. -1.
         -6    1    1    2    0  503 -0.45480541086E+02  0.47076462310E+02 -0.52962558669E+02  0.19240245721E+03  0.17300000000E+03 0.  1.
</event>
<event>
 4    1  0.5904698E+000  0.1000000E+03  0.7546771E-02  0.1280296E+00
         21   -1    0    0  501  502  0.00000000000E+00  0.00000000000E+00  0.30959796989E+02  0.30959796989E+02  0.00000000000E+00 0.  1.
         21   -1    0    0  502  503 -0.00000000000E+00 -0.00000000000E+00 -0.13538778506E+04  0.13538778506E+04  0.00000000000E+00 0. -1.
          6    1    1    2  501    0 -0.62009015327E+02  0.22949577444E+02 -0.36632823587E+03  0.41048407702E+03  0.17300000000E+03 0. -1.
         -6    1    1    2    0  503  0.62009015327E+02 -0.22949577444E+02 -0.95658981774E+03  0.97435357058E+03  0.17300000000E+03 0.  1.
</event>
<event>
 4    1  0.5904698E+000  0.1000000E+03  0.7546771E-02  0.1280296E+00
         21   -1    0    0  501  502  0.00000000000E+00  0.00000000000E+00  0.16649470522E+04  0.16649470522E+04  0.00000000000E+00 0.  1.
         21   -1    0    0  502  503 -0.00000000000E+00 -0.00000000000E+00 -0.11954349655E+03  0.11954349655E+03  0.00000000000E+00 0. -1.
          6    1    1    2  501    0  0.35697459351E+03 -0.19007516979E+03  0.92163039947E+03  0.10212203601E+04  0.17300000000E+03 0. -1.
         -6    1    1    2    0  503 -0.35697459351E+03  0.19007516979E+03  0.62377315621E+03  0.76327018872E+03  0.17300000000E+03 0.  1.
</event>
<event>
 4    1  0.5904698E+000  0.1000000E+03  0.7546771E-02  0.1280296E+00
         21   -1    0    0  501  502  0.00000000000E+00  0.00000000000E+00  0.80939532592E+03  0.80939532592E+03  0.00000000000E+00 0. -1.
         21   -1    0    0  502  503 -0.00000000000E+00 -0.00000000000E+00 -0.49768832328E+02  0.49768832328E+02  0.00000000000E+00 0.  1.
          6    1    1    2  501    0  0.27049103999E+02  0.20733957211E+02  0.58502142868E+03  0.61101605791E+03  0.17300000000E+03 0. -1.
         -6    1    1    2    0  503 -0.27049103999E+02 -0.20733957211E+02  0.17460506492E+03  0.24814810034E+03  0.17300000000E+03 0.  1.
</event>
<event>
 4    1  0.5904698E+000  0.1000000E+03  0.7546771E-02  0.1280296E+00
         21   -1    0    0  503  502  0.00000000000E+00  0.00000000000E+00  0.38786833728E+02  0.38786833728E+02  0.00000000000E+00 0. -1.
         21   -1    0    0  501  503 -0.00000000000E+00 -0.00000000000E+00 -0.16014170992E+04  0.16014170992E+04  0.00000000000E+00 0. -1.
          6    1    1    2  501    0 -0.17611071348E+03 -0.16326240437E+02 -0.88021736738E+03  0.91432660651E+03  0.17300000000E+03 0. -1.
         -6    1    1    2    0  502  0.17611071348E+03  0.16326240437E+02 -0.68241289810E+03  0.72587732643E+03  0.17300000000E+03 0. -1.
</event>
<event>
 4    1  0.5904698E+000  0.1000000E+03  0.7546771E-02  0.1280296E+00
         21   -1    0    0  501  502  0.00000000000E+00  0.00000000000E+00  0.15329394949E+03  0.15329394949E+03  0.00000000000E+00 0. -1.
         21   -1    0    0  502  503 -0.00000000000E+00 -0.00000000000E+00 -0.57583947393E+03  0.57583947393E+03  0.00000000000E+00 0.  1.
          6    1    1    2  501    0 -0.81067250571E+02 -0.19891998207E+03 -0.75725470419E+02  0.28601469412E+03  0.17300000000E+03 0. -1.
         -6    1    1    2    0  503  0.81067250571E+02  0.19891998207E+03 -0.34682005403E+03  0.44311872930E+03  0.17300000000E+03 0.  1.
</event>
<event>
 4    1  0.5904698E+000  0.1000000E+03  0.7546771E-02  0.1280296E+00
         21   -1    0    0  503  502  0.00000000000E+00  0.00000000000E+00  0.45084656325E+03  0.45084656325E+03  0.00000000000E+00 0. -1.
         21   -1    0    0  501  503 -0.00000000000E+00 -0.00000000000E+00 -0.32210938190E+03  0.32210938190E+03  0.00000000000E+00 0. -1.
          6    1    1    2  501    0  0.12517467316E+03  0.44128430255E+02 -0.25259150583E+03  0.33368770725E+03  0.17300000000E+03 0. -1.
         -6    1    1    2    0  502 -0.12517467316E+03 -0.44128430255E+02  0.38132868718E+03  0.43926823789E+03  0.17300000000E+03 0. -1.
</event>
<event>
 4    1  0.5904698E+000  0.1000000E+03  0.7546771E-02  0.1280296E+00
         21   -1    0    0  503  502  0.00000000000E+00  0.00000000000E+00  0.13315136962E+04  0.13315136962E+04  0.00000000000E+00 0. -1.
         21   -1    0    0  501  503 -0.00000000000E+00 -0.00000000000E+00 -0.39705048846E+02  0.39705048846E+02  0.00000000000E+00 0. -1.
          6    1    1    2  501    0  0.80787634183E+02  0.86237251590E+02  0.36341254615E+03  0.41947727483E+03  0.17300000000E+03 0. -1.
         -6    1    1    2    0  502 -0.80787634183E+02 -0.86237251590E+02  0.92839610116E+03  0.95174147017E+03  0.17300000000E+03 0. -1.
</event>
<event>
 4    1  0.5904698E+000  0.1000000E+03  0.7546771E-02  0.1280296E+00
         21   -1    0    0  503  502  0.00000000000E+00  0.00000000000E+00  0.21553296057E+03  0.21553296057E+03  0.00000000000E+00 0.  1.
         21   -1    0    0  501  503 -0.00000000000E+00 -0.00000000000E+00 -0.28780265119E+03  0.28780265119E+03  0.00000000000E+00 0. -1.
          6    1    1    2  501    0  0.10554962078E+02  0.10783028568E+03 -0.18032852267E+03  0.27237135280E+03  0.17300000000E+03 0. -1.
         -6    1    1    2    0  502 -0.10554962078E+02 -0.10783028568E+03  0.10805883205E+03  0.23096425896E+03  0.17300000000E+03 0.  1.
</event>
<event>
 4    1  0.5904698E+000  0.1000000E+03  0.7546771E-02  0.1280296E+00
         21   -1    0    0  503  502  0.00000000000E+00  0.00000000000E+00  0.19789059843E+03  0.19789059843E+03  0.00000000000E+00 0.  1.
         21   -1    0    0  501  503 -0.00000000000E+00 -0.00000000000E+00 -0.20548989063E+03  0.20548989063E+03  0.00000000000E+00 0. -1.
          6    1    1    2  501    0 -0.10172516092E+03  0.97310219162E+01 -0.20914558784E+02  0.20201267268E+03  0.17300000000E+03 0. -1.
         -6    1    1    2    0  502  0.10172516092E+03 -0.97310219162E+01  0.13315266590E+02  0.20136781639E+03  0.17300000000E+03 0.  1.
</event>
<event>
 4    1  0.5904698E+000  0.1000000E+03  0.7546771E-02  0.1280296E+00
         21   -1    0    0  503  502  0.00000000000E+00  0.00000000000E+00  0.12127313967E+03  0.12127313967E+03  0.00000000000E+00 0.  1.
         21   -1    0    0  501  503 -0.00000000000E+00 -0.00000000000E+00 -0.60857255313E+03  0.60857255313E+03  0.00000000000E+00 0.  1.
          6    1    1    2  501    0  0.29357495805E+02  0.26658275503E+02 -0.51992554156E+03  0.54938519727E+03  0.17300000000E+03 0.  1.
         -6    1    1    2    0  502 -0.29357495805E+02 -0.26658275503E+02  0.32626128103E+02  0.18046049553E+03  0.17300000000E+03 0.  1.
</event>
<event>
 4    1  0.5904698E+000  0.1000000E+03  0.7546771E-02  0.1280296E+00
         21   -1    0    0  503  502  0.00000000000E+00  0.00000000000E+00  0.70650032947E+02  0.70650032947E+02  0.00000000000E+00 0.  1.
         21   -1    0    0  501  503 -0.00000000000E+00 -0.00000000000E+00 -0.43766314161E+03  0.43766314161E+03  0.00000000000E+00 0.  1.
          6    1    1    2  501    0  0.22960204504E+02  0.13151794088E+02 -0.15881780946E+03  0.23633077938E+03  0.17300000000E+03 0.  1.
         -6    1    1    2    0  502 -0.22960204504E+02 -0.13151794088E+02 -0.20819529920E+03  0.27198239518E+03  0.17300000000E+03 0.  1.
</event>
<event>
 4    1  0.5904698E+000  0.1000000E+03  0.7546771E-02  0.1280296E+00
         21   -1    0    0  501  502  0.00000000000E+00  0.00000000000E+00  0.31668142634E+02  0.31668142634E+02  0.00000000000E+00 0.  1.
         21   -1    0    0  502  503 -0.00000000000E+00 -0.00000000000E+00 -0.12180976911E+04  0.12180976911E+04  0.00000000000E+00 0. -1.
          6    1    1    2  501    0  0.23186880529E+02 -0.28242697127E+02 -0.32118082555E+03  0.36663524663E+03  0.17300000000E+03 0.  1.
         -6    1    1    2    0  503 -0.23186880529E+02  0.28242697127E+02 -0.86524872289E+03  0.88313058708E+03  0.17300000000E+03 0.  1.
</event>
<event>
 4    1  0.5904698E+000  0.1000000E+03  0.7546771E-02  0.1280296E+00
         21   -1    0    0  501  502  0.00000000000E+00  0.00000000000E+00  0.40189079300E+02  0.40189079300E+02  0.00000000000E+00 0.  1.
         21   -1    0    0  502  503 -0.00000000000E+00 -0.00000000000E+00 -0.10345809658E+04  0.10345809658E+04  0.00000000000E+00 0. -1.
          6    1    1    2  501    0  0.14778947189E+02  0.99931949072E+02 -0.39701388823E+03  0.44469522054E+03  0.17300000000E+03 0.  1.
         -6    1    1    2    0  503 -0.14778947189E+02 -0.99931949072E+02 -0.59737799827E+03  0.63007482456E+03  0.17300000000E+03 0.  1.
</event>
<event>
 4    1  0.5904698E+000  0.1000000E+03  0.7546771E-02  0.1280296E+00
         21   -1    0    0  503  502  0.00000000000E+00  0.00000000000E+00  0.43600621371E+03  0.43600621371E+03  0.00000000000E+00 0. -1.
         21   -1    0    0  501  503 -0.00000000000E+00 -0.00000000000E+00 -0.97395312213E+02  0.97395312213E+02  0.00000000000E+00 0. -1.
          6    1    1    2  501    0 -0.21993740485E+02 -0.45726101558E+02  0.29847740100E+03  0.34870096056E+03  0.17300000000E+03 0. -1.
         -6    1    1    2    0  502  0.21993740485E+02  0.45726101558E+02  0.40133500493E+02  0.18470056536E+03  0.17300000000E+03 0. -1.
</event>
<event>
 4    1  0.5904698E+000  0.1000000E+03  0.7546771E-02  0.1280296E+00
         21   -1    0    0  503  502  0.00000000000E+00  0.00000000000E+00  0.76545850952E+03  0.76545850952E+03  0.00000000000E+00 0. -1.
         21   -1    0    0  501  503 -0.00000000000E+00 -0.00000000000E+00 -0.18788698295E+03  0.18788698295E+03  0.00000000000E+00 0. -1.
          6    1    1    2  501    0  0.66586467117E+02  0.33084228085E+03  0.28807748782E+03  0.47624364708E+03  0.17300000000E+03 0. -1.
         -6    1    1    2    0  502 -0.66586467117E+02 -0.33084228085E+03  0.28949403875E+03  0.47710184539E+03  0.17300000000E+03 0. -1.
</event>
<event>
 4    1  0.5904698E+000  0.1000000E+03  0.7546771E-02  0.1280296E+00
         21   -1    0    0  503  502  0.00000000000E+00  0.00000000000E+00  0.50437775302E+03  0.50437775302E+03  0.00000000000E+00 0.  1.
         21   -1    0    0  501  503 -0.00000000000E+00 -0.00000000000E+00 -0.14197290924E+03  0.14197290924E+03  0.00000000000E+00 0.  1.
          6    1    1    2  501    0 -0.19768770867E+03 -0.37038063234E+02  0.22350158328E+03  0.34689221095E+03  0.17300000000E+03 0.  1.
         -6    1    1    2    0  502  0.19768770867E+03  0.37038063234E+02  0.13890326050E+03  0.29945845132E+03  0.17300000000E+03 0.  1.
</event>
<event>
 4    1  0.5904698E+000  0.1000000E+03  0.7546771E-02  0.1280296E+00
         21   -1    0    0  503  502  0.00000000000E+00  0.00000000000E+00  0.12098139184E+04  0.12098139184E+04  0.00000000000E+00 0.  1.
         21   -1    0    0  501  503 -0.00000000000E+00 -0.00000000000E+00 -0.35137547232E+02  0.35137547232E+02  0.00000000000E+00 0.  1.
          6    1    1    2  501    0  0.39073593610E+02  0.90203231582E+02  0.42426419147E+03  0.46860694923E+03  0.17300000000E+03 0.  1.
         -6    1    1    2    0  502 -0.39073593610E+02 -0.90203231582E+02  0.75041217974E+03  0.77634451644E+03  0.17300000000E+03 0.  1.
</event>
<event>
 4    1  0.5904698E+000  0.1000000E+03  0.7546771E-02  0.1280296E+00
         21   -1    0    0  501  502  0.00000000000E+00  0.00000000000E+00  0.29387008908E+03  0.29387008908E+03  0.00000000000E+00 0. -1.
         21   -1    0    0  502  503 -0.00000000000E+00 -0.00000000000E+00 -0.32327567815E+03  0.32327567815E+03  0.00000000000E+00 0. -1.
          6    1    1    2  501    0  0.43915519926E+02 -0.46621687136E+01  0.23682329824E+03  0.29658823863E+03  0.17300000000E+03 0. -1.
         -6    1    1    2    0  503 -0.43915519926E+02  0.46621687136E+01 -0.26622888730E+03  0.32055752860E+03  0.17300000000E+03 0. -1.
</event>
<event>
 4    1  0.5904698E+000  0.1000000E+03  0.7546771E-02  0.1280296E+00
         21   -1    0    0  501  502  0.00000000000E+00  0.00000000000E+00  0.20251033983E+03  0.20251033983E+03  0.00000000000E+00 0. -1.
         21   -1    0    0  502  503 -0.00000000000E+00 -0.00000000000E+00 -0.38084715752E+03  0.38084715752E+03  0.00000000000E+00 0.  1.
          6    1    1    2  501    0 -0.93426286788E+02  0.15516988077E+03  0.36823054109E+02  0.25316220152E+03  0.17300000000E+03 0. -1.
         -6    1    1    2    0  503  0.93426286788E+02 -0.15516988077E+03 -0.21515987179E+03  0.33019529584E+03  0.17300000000E+03 0.  1.
</event>
<event>
 4    1  0.5904698E+000  0.1000000E+03  0.7546771E-02  0.1280296E+00
         21   -1    0    0  501  502  0.00000000000E+00  0.00000000000E+00  0.18665989869E+03  0.18665989869E+03  0.00000000000E+00 0. -1.
         21   -1    0    0  502  503 -0.00000000000E+00 -0.00000000000E+00 -0.46828190502E+03  0.46828190502E+03  0.00000000000E+00 0.  1.
          6    1    1    2  501    0  0.79811539207E+02 -0.93777358510E+02  0.87038328827E+02  0.22949672208E+03  0.17300000000E+03 0. -1.
         -6    1    1    2    0  503 -0.79811539207E+02  0.93777358510E+02 -0.36866033516E+03  0.42544508162E+03  0.17300000000E+03 0.  1.
</event>
<event>
 4    1  0.5904698E+000  0.1000000E+03  0.7546771E-02  0.1280296E+00
         21   -1    0    0  501  502  0.00000000000E+00  0.00000000000E+00  0.17346887799E+04  0.17346887799E+04  0.00000000000E+00 0.  1.
         21   -1    0    0  502  503 -0.00000000000E+00 -0.00000000000E+00 -0.23090687669E+02  0.23090687669E+02  0.00000000000E+00 0.  1.
          6    1    1    2  501    0 -0.22585484971E+02 -0.75557376270E+02  0.11302940311E+04  0.11461730314E+04  0.17300000000E+03 0.  1.
         -6    1    1    2    0  503  0.22585484971E+02  0.75557376270E+02  0.58130406120E+03  0.61160643621E+03  0.17300000000E+03 0.  1.
</event>
<event>
 4    1  0.5904698E+000  0.1000000E+03  0.7546771E-02  0.1280296E+00
         21   -1    0    0  501  502  0.00000000000E+00  0.00000000000E+00  0.98818117400E+02  0.98818117400E+02  0.00000000000E+00 0.  1.
         21   -1    0    0  502  503 -0.00000000000E+00 -0.00000000000E+00 -0.59155687701E+03  0.59155687701E+03  0.00000000000E+00 0.  1.
          6    1    1    2  501    0 -0.12851805385E+03  0.30263119301E+01 -0.40277633675E+03  0.45681924891E+03  0.17300000000E+03 0.  1.
         -6    1    1    2    0  503  0.12851805385E+03 -0.30263119301E+01 -0.89962422860E+02  0.23355574550E+03  0.17300000000E+03 0.  1.
</event>
<event>
 4    1  0.5904698E+000  0.1000000E+03  0.7546771E-02  0.1280296E+00
         21   -1    0    0  503  502  0.00000000000E+00  0.00000000000E+00  0.40307362026E+03  0.40307362026E+03  0.00000000000E+00 0. -1.
         21   -1    0    0  501  503 -0.00000000000E+00 -0.00000000000E+00 -0.79371025893E+02  0.79371025893E+02  0.00000000000E+00 0.  1.
          6    1    1    2  501    0  0.30224349948E+02 -0.33909286073E+02  0.16202049030E+03  0.24133584543E+03  0.17300000000E+03 0. -1.
         -6    1    1    2    0  502 -0.30224349948E+02  0.33909286073E+02  0.16168210407E+03  0.24110880073E+03  0.17300000000E+03 0.  1.
</event>
<event>
 4    1  0.5904698E+000  0.1000000E+03  0.7546771E-02  0.1280296E+00
         21   -1    0    0  503  502  0.00000000000E+00  0.00000000000E+00  0.63114130428E+03  0.63114130428E+03  0.00000000000E+00 0. -1.
         21   -1    0    0  501  503 -0.00000000000E+00 -0.00000000000E+00 -0.66369697845E+02  0.66369697845E+02  0.00000000000E+00 0.  1.
          6    1    1    2  501    0  0.88460021341E+02 -0.50906669401E+02  0.21545055708E+03  0.29455832515E+03  0.17300000000E+03 0. -1.
         -6    1    1    2    0  502 -0.88460021341E+02  0.50906669401E+02  0.34932104936E+03  0.40295267698E+03  0.17300000000E+03 0.  1.
</event>
<event>
 4    1  0.5904698E+000  0.1000000E+03  0.7546771E-02  0.1280296E+00
         21   -1    0    0  503  502  0.00000000000E+00  0.00000000000E+00  0.93298452887E+03  0.93298452887E+03  0.00000000000E+00 0. -1.
         21   -1    0    0  501  503 -0.00000000000E+00 -0.00000000000E+00 -0.92138063551E+02  0.92138063551E+02  0.00000000000E+00 0. -1.
          6    1    1    2  501    0  0.39167556667E+02  0.11568076745E+03  0.65931295912E+02  0.22179286110E+03  0.17300000000E+03 0. -1.
         -6    1    1    2    0  502 -0.39167556667E+02 -0.11568076745E+03  0.77491516941E+03  0.80332973133E+03  0.17300000000E+03 0. -1.
</event>
<event>
 4    1  0.5904698E+000  0.1000000E+03  0.7546771E-02  0.1280296E+00
         21   -1    0    0  503  502  0.00000000000E+00  0.00000000000E+00  0.22130592354E+03  0.22130592354E+03  0.00000000000E+00 0. -1.
         21   -1    0    0  501  503 -0.00000000000E+00 -0.00000000000E+00 -0.47717006604E+03  0.47717006604E+03  0.00000000000E+00 0. -1.
          6    1    1    2  501    0 -0.75773530974E+02  0.73652973159E+02 -0.40088367190E+03  0.44922500692E+03  0.17300000000E+03 0. -1.
         -6    1    1    2    0  502  0.75773530974E+02 -0.73652973159E+02  0.14501952939E+03  0.24925098266E+03  0.17300000000E+03 0. -1.
</event>
<event>
 4    1  0.5904698E+000  0.1000000E+03  0.7546771E-02  0.1280296E+00
         21   -1    0    0  503  502  0.00000000000E+00  0.00000000000E+00  0.14548499564E+03  0.14548499564E+03  0.00000000000E+00 0. -1.
         21   -1    0    0  501  503 -0.00000000000E+00 -0.00000000000E+00 -0.27055491512E+03  0.27055491512E+03  0.00000000000E+00 0. -1.
          6    1    1    2  501    0 -0.84852043471E+01 -0.90731531882E+02 -0.97756909922E+02  0.21860837817E+03  0.17300000000E+03 0. -1.
         -6    1    1    2    0  502  0.84852043471E+01  0.90731531882E+02 -0.27313009556E+02  0.19743153259E+03  0.17300000000E+03 0. -1.
</event>
<event>
 4    1  0.5904698E+000  0.1000000E+03  0.7546771E-02  0.1280296E+00
         21   -1    0    0  503  502  0.00000000000E+00  0.00000000000E+00  0.63508822555E+03  0.63508822555E+03  0.00000000000E+00 0. -1.
         21   -1    0    0  501  503 -0.00000000000E+00 -0.00000000000E+00 -0.68158406496E+02  0.68158406496E+02  0.00000000000E+00 0.  1.
          6    1    1    2  501    0  0.90309677332E+02 -0.49301441942E+02  0.19449779948E+03  0.27990152554E+03  0.17300000000E+03 0.  1.
         -6    1    1    2    0  502 -0.90309677332E+02  0.49301441942E+02  0.37243201957E+03  0.42334510650E+03  0.17300000000E+03 0. -1.
</event>
<event>
 4    1  0.5904698E+000  0.1000000E+03  0.7546771E-02  0.1280296E+00
         21   -1    0    0  503  502  0.00000000000E+00  0.00000000000E+00  0.21457168205E+03  0.21457168205E+03  0.00000000000E+00 0. -1.
         21   -1    0    0  501  503 -0.00000000000E+00 -0.00000000000E+00 -0.37501868676E+03  0.37501868676E+03  0.00000000000E+00 0.  1.
          6    1    1    2  501    0  0.13860947376E+03 -0.10744698182E+03 -0.22638812878E+03  0.33457140489E+03  0.17300000000E+03 0.  1.
         -6    1    1    2    0  502 -0.13860947376E+03  0.10744698182E+03  0.65941124073E+02  0.25501896392E+03  0.17300000000E+03 0. -1.
</event>
<event>
 4    1  0.5904698E+000  0.1000000E+03  0.7546771E-02  0.1280296E+00
         21   -1    0    0  503  502  0.00000000000E+00  0.00000000000E+00  0.37758421620E+03  0.37758421620E+03  0.00000000000E+00 0. -1.
         21   -1    0    0  501  503 -0.00000000000E+00 -0.00000000000E+00 -0.55115227146E+03  0.55115227146E+03  0.00000000000E+00 0.  1.
          6    1    1    2  501    0 -0.62198246994E+02 -0.36088938844E+03 -0.30047177576E+03  0.50430354019E+03  0.17300000000E+03 0.  1.
         -6    1    1    2    0  502  0.62198246994E+02  0.36088938844E+03  0.12690372050E+03  0.42443294747E+03  0.17300000000E+03 0. -1.
</event>
<event>
 4    1  0.5904698E+000  0.1000000E+03  0.7546771E-02  0.1280296E+00
         21   -1    0    0  503  502  0.00000000000E+00  0.00000000000E+00  0.10474137215E+03  0.10474137215E+03  0.00000000000E+00 0. -1.
         21   -1    0    0  501  503 -0.00000000000E+00 -0.00000000000E+00 -0.46282942608E+03  0.46282942608E+03  0.00000000000E+00 0.  1.
          6    1    1    2  501    0  0.97822527769E+02 -0.86011994515E+02 -0.23029442279E+03  0.31611996347E+03  0.17300000000E+03 0.  1.
         -6    1    1    2    0  502 -0.97822527769E+02  0.86011994515E+02 -0.12779363115E+03  0.25145083476E+03  0.17300000000E+03 0. -1.
</event>
<event>
 4    1  0.5904698E+000  0.1000000E+03  0.7546771E-02  0.1280296E+00
         21   -1    0    0  503  502  0.00000000000E+00  0.00000000000E+00  0.20251843701E+03  0.20251843701E+03  0.00000000000E+00 0. -1.
         21   -1    0    0  501  503 -0.00000000000E+00 -0.00000000000E+00 -0.17616162148E+04  0.17616162148E+04  0.00000000000E+00 0. -1.
          6    1    1    2  501    0  0.15643758203E+03 -0.34866582645E+03 -0.14786512289E+04  0.15370032636E+04  0.17300000000E+03 0. -1.
         -6    1    1    2    0  502 -0.15643758203E+03  0.34866582645E+03 -0.80446548966E+02  0.42713138827E+03  0.17300000000E+03 0. -1.
</event>
<event>
 4    1  0.5904698E+000  0.1000000E+03  0.7546771E-02  0.1280296E+00
         21   -1    0    0  503  502  0.00000000000E+00  0.00000000000E+00  0.96326036399E+03  0.96326036399E+03  0.00000000000E+00 0. -1.
         21   -1    0    0  501  503 -0.00000000000E+00 -0.00000000000E+00 -0.15101990657E+03  0.15101990657E+03  0.00000000000E+00 0. -1.
          6    1    1    2  501    0  0.16318052609E+03  0.21008580124E+03  0.97011994818E+02  0.33181961231E+03  0.17300000000E+03 0. -1.
         -6    1    1    2    0  502 -0.16318052609E+03 -0.21008580124E+03  0.71522846261E+03  0.78246065824E+03  0.17300000000E+03 0. -1.
</event>
<event>
 4    1  0.5904698E+000  0.1000000E+03  0.7546771E-02  0.1280296E+00
         21   -1    0    0  503  502  0.00000000000E+00  0.00000000000E+00  0.15558202187E+03  0.15558202187E+03  0.00000000000E+00 0. -1.
         21   -1    0    0  501  503 -0.00000000000E+00 -0.00000000000E+00 -0.26500697245E+03  0.26500697245E+03  0.00000000000E+00 0. -1.
          6    1    1    2  501    0  0.99814868483E+02  0.46268453232E+00 -0.92597153297E+02  0.22015098193E+03  0.17300000000E+03 0. -1.
         -6    1    1    2    0  502 -0.99814868483E+02 -0.46268453232E+00 -0.16827797284E+02  0.20043801238E+03  0.17300000000E+03 0. -1.
</event>
<event>
 4    1  0.5904698E+000  0.1000000E+03  0.7546771E-02  0.1280296E+00
         21   -1    0    0  503  502  0.00000000000E+00  0.00000000000E+00  0.24535556465E+03  0.24535556465E+03  0.00000000000E+00 0. -1.
         21   -1    0    0  501  503 -0.00000000000E+00 -0.00000000000E+00 -0.14538308743E+03  0.14538308743E+03  0.00000000000E+00 0. -1.
          6    1    1    2  501    0  0.26841048552E+01  0.67701732574E+02  0.14894468792E+02  0.18639091773E+03  0.17300000000E+03 0. -1.
         -6    1    1    2    0  502 -0.26841048552E+01 -0.67701732574E+02  0.85078008426E+02  0.20434773434E+03  0.17300000000E+03 0. -1.
</event>
<event>
 4    1  0.5904698E+000  0.1000000E+03  0.7546771E-02  0.1280296E+00
         21   -1    0    0  503  502  0.00000000000E+00  0.00000000000E+00  0.19694943087E+03  0.19694943087E+03  0.00000000000E+00 0. -1.
         21   -1    0    0  501  503 -0.00000000000E+00 -0.00000000000E+00 -0.60319508271E+03  0.60319508271E+03  0.00000000000E+00 0. -1.
          6    1    1    2  501    0 -0.13711402843E+02 -0.69518671134E+02 -0.53923274226E+03  0.57072042064E+03  0.17300000000E+03 0. -1.
         -6    1    1    2    0  502  0.13711402843E+02  0.69518671134E+02  0.13298709042E+03  0.22942409294E+03  0.17300000000E+03 0. -1.
</event>
<event>
 4    1  0.5904698E+000  0.1000000E+03  0.7546771E-02  0.1280296E+00
         21   -1    0    0  501  502  0.00000000000E+00  0.00000000000E+00  0.18156186455E+03  0.18156186455E+03  0.00000000000E+00 0.  1.
         21   -1    0    0  502  503 -0.00000000000E+00 -0.00000000000E+00 -0.45416584788E+03  0.45416584788E+03  0.00000000000E+00 0. -1.
          6    1    1    2  501    0  0.21492307636E+03 -0.45424507381E+02 -0.63927798100E+02  0.28682935344E+03  0.17300000000E+03 0.  1.
         -6    1    1    2    0  503 -0.21492307636E+03  0.45424507381E+02 -0.20867618523E+03  0.34889835899E+03  0.17300000000E+03 0. -1.
</event>
<event>
 4    1  0.5904698E+000  0.1000000E+03  0.7546771E-02  0.1280296E+00
         21   -1    0    0  501  502  0.00000000000E+00  0.00000000000E+00  0.83724376092E+02  0.83724376092E+02  0.00000000000E+00 0.  1.
         21   -1    0    0  502  503 -0.00000000000E+00 -0.00000000000E+00 -0.94489103959E+03  0.94489103959E+03  0.00000000000E+00 0.  1.
          6    1    1    2  501    0  0.18172916708E+03  0.10954969886E+03 -0.31271950386E+03  0.41563098391E+03  0.17300000000E+03 0.  1.
         -6    1    1    2    0  503 -0.18172916708E+03 -0.10954969886E+03 -0.54844715964E+03  0.61298443178E+03  0.17300000000E+03 0.  1.
</event>
<event>
 4    1  0.5904698E+000  0.1000000E+03  0.7546771E-02  0.1280296E+00
         21   -1    0    0  503  502  0.00000000000E+00  0.00000000000E+00  0.15101437149E+03  0.15101437149E+03  0.00000000000E+00 0.  1.
         21   -1    0    0  501  503 -0.00000000000E+00 -0.00000000000E+00 -0.36594136139E+03  0.36594136139E+03  0.00000000000E+00 0.  1.
          6    1    1    2  501    0 -0.56733795148E+02  0.51735126187E+02 -0.26076133071E+03  0.32221222569E+03  0.17300000000E+03 0.  1.
         -6    1    1    2    0  502  0.56733795148E+02 -0.51735126187E+02  0.45834340803E+02  0.19474350718E+03  0.17300000000E+03 0.  1.
</event>
<event>
 4    1  0.5904698E+000  0.1000000E+03  0.7546771E-02  0.1280296E+00
         21   -1    0    0  503  502  0.00000000000E+00  0.00000000000E+00  0.58520894195E+02  0.58520894195E+02  0.00000000000E+00 0.  1.
         21   -1    0    0  501  503 -0.00000000000E+00 -0.00000000000E+00 -0.16741190128E+04  0.16741190128E+04  0.00000000000E+00 0.  1.
          6    1    1    2  501    0  0.22736038998E+03  0.11001424969E+03 -0.98815178770E+03  0.10344896508E+04  0.17300000000E+03 0.  1.
         -6    1    1    2    0  502 -0.22736038998E+03 -0.11001424969E+03 -0.62744633091E+03  0.69815025621E+03  0.17300000000E+03 0.  1.
</event>
<event>
 4    1  0.5904698E+000  0.1000000E+03  0.7546771E-02  0.1280296E+00
         21   -1    0    0  503  502  0.00000000000E+00  0.00000000000E+00  0.11780353707E+03  0.11780353707E+03  0.00000000000E+00 0.  1.
         21   -1    0    0  501  503 -0.00000000000E+00 -0.00000000000E+00 -0.36157092646E+03  0.36157092646E+03  0.00000000000E+00 0.  1.
          6    1    1    2  501    0 -0.69549371252E+02 -0.40367762611E+02 -0.21331985644E+03  0.28618356426E+03  0.17300000000E+03 0.  1.
         -6    1    1    2    0  502  0.69549371252E+02  0.40367762611E+02 -0.30447532945E+02  0.19319089927E+03  0.17300000000E+03 0.  1.
</event>
<event>
 4    1  0.5904698E+000  0.1000000E+03  0.7546771E-02  0.1280296E+00
         21   -1    0    0  503  502  0.00000000000E+00  0.00000000000E+00  0.23130988931E+03  0.23130988931E+03  0.00000000000E+00 0.  1.
         21   -1    0    0  501  503 -0.00000000000E+00 -0.00000000000E+00 -0.43923019915E+03  0.43923019915E+03  0.00000000000E+00 0.  1.
          6    1    1    2  501    0 -0.18802988751E+03 -0.69236363310E+02 -0.29070441031E+03  0.39317549107E+03  0.17300000000E+03 0.  1.
         -6    1    1    2    0  502  0.18802988751E+03  0.69236363310E+02  0.82784100472E+02  0.27736459740E+03  0.17300000000E+03 0.  1.
</event>
<event>
 4    1  0.5904698E+000  0.1000000E+03  0.7546771E-02  0.1280296E+00
         21   -1    0    0  503  502  0.00000000000E+00  0.00000000000E+00  0.23237341799E+03  0.23237341799E+03  0.00000000000E+00 0.  1.
         21   -1    0    0  501  503 -0.00000000000E+00 -0.00000000000E+00 -0.18247428401E+03  0.18247428401E+03  0.00000000000E+00 0. -1.
          6    1    1    2  501    0  0.22439029719E+02 -0.34962119359E+02  0.12937699677E+03  0.21998469751E+03  0.17300000000E+03 0.  1.
         -6    1    1    2    0  502 -0.22439029719E+02  0.34962119359E+02 -0.79477862790E+02  0.19486300449E+03  0.17300000000E+03 0. -1.
</event>
<event>
 4    1  0.5904698E+000  0.1000000E+03  0.7546771E-02  0.1280296E+00
         21   -1    0    0  503  502  0.00000000000E+00  0.00000000000E+00  0.11470986434E+03  0.11470986434E+03  0.00000000000E+00 0.  1.
         21   -1    0    0  501  503 -0.00000000000E+00 -0.00000000000E+00 -0.47665289502E+03  0.47665289502E+03  0.00000000000E+00 0. -1.
          6    1    1    2  501    0 -0.67897440832E+02  0.46083930176E+02 -0.35068936809E+03  0.39955703470E+03  0.17300000000E+03 0.  1.
         -6    1    1    2    0  502  0.67897440832E+02 -0.46083930176E+02 -0.11253662591E+02  0.19180572466E+03  0.17300000000E+03 0. -1.
</event>
<event>
 4    1  0.5904698E+000  0.1000000E+03  0.7546771E-02  0.1280296E+00
         21   -1    0    0  503  502  0.00000000000E+00  0.00000000000E+00  0.19643326378E+03  0.19643326378E+03  0.00000000000E+00 0.  1.
         21   -1    0    0  501  503 -0.00000000000E+00 -0.00000000000E+00 -0.22169774624E+03  0.22169774624E+03  0.00000000000E+00 0. -1.
          6    1    1    2  501    0  0.11315444944E+02  0.94125636905E+02  0.55552143614E+02  0.20494564030E+03  0.17300000000E+03 0.  1.
         -6    1    1    2    0  502 -0.11315444944E+02 -0.94125636905E+02 -0.80816626073E+02  0.21318536973E+03  0.17300000000E+03 0. -1.
</event>
<event>
 4    1  0.5904698E+000  0.1000000E+03  0.7546771E-02  0.1280296E+00
         21   -1    0    0  503  502  0.00000000000E+00  0.00000000000E+00  0.87735225400E+03  0.87735225400E+03  0.00000000000E+00 0.  1.
         21   -1    0    0  501  503 -0.00000000000E+00 -0.00000000000E+00 -0.47332107415E+02  0.47332107415E+02  0.00000000000E+00 0. -1.
          6    1    1    2  501    0  0.31068514582E+02 -0.45967849693E+02  0.20559443926E+03  0.27436539369E+03  0.17300000000E+03 0.  1.
         -6    1    1    2    0  502 -0.31068514582E+02  0.45967849693E+02  0.62442570733E+03  0.65031896772E+03  0.17300000000E+03 0. -1.
</event>
<event>
 4    1  0.5904698E+000  0.1000000E+03  0.7546771E-02  0.1280296E+00
         21   -1    0    0  501  502  0.00000000000E+00  0.00000000000E+00  0.24140226667E+04  0.24140226667E+04  0.00000000000E+00 0. -1.
         21   -1    0    0  502  503 -0.00000000000E+00 -0.00000000000E+00 -0.78793916256E+02  0.78793916256E+02  0.00000000000E+00 0.  1.
          6    1    1    2  501    0  0.12252181506E+03  0.12820167043E+03  0.21934047532E+04  0.22073515069E+04  0.17300000000E+03 0. -1.
         -6    1    1    2    0  503 -0.12252181506E+03 -0.12820167043E+03  0.14182399720E+03  0.28546507605E+03  0.17300000000E+03 0.  1.
</event>
<event>
 4    1  0.5904698E+000  0.1000000E+03  0.7546771E-02  0.1280296E+00
         21   -1    0    0  501  502  0.00000000000E+00  0.00000000000E+00  0.84648041964E+03  0.84648041964E+03  0.00000000000E+00 0. -1.
         21   -1    0    0  502  503 -0.00000000000E+00 -0.00000000000E+00 -0.12034440695E+03  0.12034440695E+03  0.00000000000E+00 0. -1.
          6    1    1    2  501    0 -0.18392636305E+03  0.55958396717E+02  0.64634146350E+03  0.69616559569E+03  0.17300000000E+03 0. -1.
         -6    1    1    2    0  503  0.18392636305E+03 -0.55958396717E+02  0.79794549193E+02  0.27065923090E+03  0.17300000000E+03 0. -1.
</event>
<event>
 4    1  0.5904698E+000  0.1000000E+03  0.7546771E-02  0.1280296E+00
         21   -1    0    0  503  502  0.00000000000E+00  0.00000000000E+00  0.85361755376E+02  0.85361755376E+02  0.00000000000E+00 0. -1.
         21   -1    0    0  501  503 -0.00000000000E+00 -0.00000000000E+00 -0.53231556236E+03  0.53231556236E+03  0.00000000000E+00 0. -1.
          6    1    1    2  501    0  0.20244577711E+02  0.95457558940E+02 -0.33559375494E+03  0.38996686634E+03  0.17300000000E+03 0. -1.
         -6    1    1    2    0  502 -0.20244577711E+02 -0.95457558940E+02 -0.11136005204E+03  0.22771045140E+03  0.17300000000E+03 0. -1.
</event>
<event>
 4    1  0.5904698E+000  0.1000000E+03  0.7546771E-02  0.1280296E+00
         21   -1    0    0  503  502  0.00000000000E+00  0.00000000000E+00  0.84253704720E+03  0.84253704720E+03  0.00000000000E+00 0. -1.
         21   -1    0    0  501  503 -0.00000000000E+00 -0.00000000000E+00 -0.38992729103E+03  0.38992729103E+03  0.00000000000E+00 0. -1.
          6    1    1    2  501    0 -0.10444109088E+03 -0.53701059595E+02 -0.34745967476E+03  0.40552308301E+03  0.17300000000E+03 0. -1.
         -6    1    1    2    0  502  0.10444109088E+03  0.53701059595E+02  0.80006943093E+03  0.82694125522E+03  0.17300000000E+03 0. -1.
</event>
<event>
 4    1  0.5904698E+000  0.1000000E+03  0.7546771E-02  0.1280296E+00
         21   -1    0    0  503  502  0.00000000000E+00  0.00000000000E+00  0.36330027855E+03  0.36330027855E+03  0.00000000000E+00 0. -1.
         21   -1    0    0  501  503 -0.00000000000E+00 -0.00000000000E+00 -0.12611302437E+03  0.12611302437E+03  0.00000000000E+00 0. -1.
          6    1    1    2  501    0  0.52987673272E+02  0.65585194040E+02  0.22570859495E+03  0.29661840980E+03  0.17300000000E+03 0. -1.
         -6    1    1    2    0  502 -0.52987673272E+02 -0.65585194040E+02  0.11478659234E+02  0.19279489312E+03  0.17300000000E+03 0. -1.
</event>
<event>
 4    1  0.5904698E+000  0.1000000E+03  0.7546771E-02  0.1280296E+00
         21   -1    0    0  501  502  0.00000000000E+00  0.00000000000E+00  0.28837085364E+03  0.28837085364E+03  0.00000000000E+00 0.  1.
         21   -1    0    0  502  503 -0.00000000000E+00 -0.00000000000E+00 -0.14953854966E+03  0.14953854966E+03  0.00000000000E+00 0. -1.
          6    1    1    2  501    0  0.30219550074E+02 -0.42517840780E+01  0.18617432157E+03  0.25597104697E+03  0.17300000000E+03 0. -1.
         -6    1    1    2    0  503 -0.30219550074E+02  0.42517840780E+01 -0.47342017583E+02  0.18193835633E+03  0.17300000000E+03 0. -1.
</event>
<event>
 4    1  0.5904698E+000  0.1000000E+03  0.7546771E-02  0.1280296E+00
         21   -1    0    0  503  502  0.00000000000E+00  0.00000000000E+00  0.71191381559E+03  0.71191381559E+03  0.00000000000E+00 0. -1.
         21   -1    0    0  501  503 -0.00000000000E+00 -0.00000000000E+00 -0.83394083247E+02  0.83394083247E+02  0.00000000000E+00 0.  1.
          6    1    1    2  501    0 -0.89140489025E+02  0.70969649571E+02  0.10489283046E+03  0.23219436648E+03  0.17300000000E+03 0.  1.
         -6    1    1    2    0  502  0.89140489025E+02 -0.70969649571E+02  0.52362690189E+03  0.56311353236E+03  0.17300000000E+03 0. -1.
</event>
<event>
 4    1  0.5904698E+000  0.1000000E+03  0.7546771E-02  0.1280296E+00
         21   -1    0    0  503  502  0.00000000000E+00  0.00000000000E+00  0.42632020041E+03  0.42632020041E+03  0.00000000000E+00 0. -1.
         21   -1    0    0  501  503 -0.00000000000E+00 -0.00000000000E+00 -0.17364391967E+03  0.17364391967E+03  0.00000000000E+00 0. -1.
          6    1    1    2  501    0 -0.11744259393E+03 -0.60220973279E+02 -0.53750802531E+02  0.22413718403E+03  0.17300000000E+03 0. -1.
         -6    1    1    2    0  502  0.11744259393E+03  0.60220973279E+02  0.30642708327E+03  0.37582693604E+03  0.17300000000E+03 0. -1.
</event>
<event>
 4    1  0.5904698E+000  0.1000000E+03  0.7546771E-02  0.1280296E+00
         21   -1    0    0  501  502  0.00000000000E+00  0.00000000000E+00  0.29913395436E+03  0.29913395436E+03  0.00000000000E+00 0. -1.
         21   -1    0    0  502  503 -0.00000000000E+00 -0.00000000000E+00 -0.80202063826E+03  0.80202063826E+03  0.00000000000E+00 0.  1.
          6    1    1    2  501    0  0.24949863795E+03  0.14676285100E+03  0.14786787326E+03  0.36821571493E+03  0.17300000000E+03 0. -1.
         -6    1    1    2    0  503 -0.24949863795E+03 -0.14676285100E+03 -0.65075455716E+03  0.73293887770E+03  0.17300000000E+03 0.  1.
</event>
<event>
 4    1  0.5904698E+000  0.1000000E+03  0.7546771E-02  0.1280296E+00
         21   -1    0    0  501  502  0.00000000000E+00  0.00000000000E+00  0.12963916005E+03  0.12963916005E+03  0.00000000000E+00 0.  1.
         21   -1    0    0  502  503 -0.00000000000E+00 -0.00000000000E+00 -0.30920550595E+03  0.30920550595E+03  0.00000000000E+00 0. -1.
          6    1    1    2  501    0  0.46622043812E+02 -0.38894933449E+02 -0.16312959514E+01  0.18335237098E+03  0.17300000000E+03 0. -1.
         -6    1    1    2    0  503 -0.46622043812E+02  0.38894933449E+02 -0.17793504995E+03  0.25549229503E+03  0.17300000000E+03 0. -1.
</event>
<event>
 4    1  0.5904698E+000  0.1000000E+03  0.7546771E-02  0.1280296E+00
         21   -1    0    0  501  502  0.00000000000E+00  0.00000000000E+00  0.12504591273E+04  0.12504591273E+04  0.00000000000E+00 0.  1.
         21   -1    0    0  502  503 -0.00000000000E+00 -0.00000000000E+00 -0.43336331147E+02  0.43336331147E+02  0.00000000000E+00 0. -1.
          6    1    1    2  501    0 -0.29270425086E+02 -0.74294229140E+02  0.97519785698E+03  0.99363788702E+03  0.17300000000E+03 0. -1.
         -6    1    1    2    0  503  0.29270425086E+02  0.74294229140E+02  0.23192493914E+03  0.30015757139E+03  0.17300000000E+03 0. -1.
</event>
<event>
 4    1  0.5904698E+000  0.1000000E+03  0.7546771E-02  0.1280296E+00
         21   -1    0    0  501  502  0.00000000000E+00  0.00000000000E+00  0.37590507306E+03  0.37590507306E+03  0.00000000000E+00 0.  1.
         21   -1    0    0  502  503 -0.00000000000E+00 -0.00000000000E+00 -0.67862164039E+03  0.67862164039E+03  0.00000000000E+00 0. -1.
          6    1    1    2  501    0 -0.63846464689E+02 -0.16341206662E+02  0.33920910767E+03  0.38643916056E+03  0.17300000000E+03 0. -1.
         -6    1    1    2    0  503  0.63846464689E+02  0.16341206662E+02 -0.64192567501E+03  0.66808755289E+03  0.17300000000E+03 0. -1.
</event>
<event>
 4    1  0.5904698E+000  0.1000000E+03  0.7546771E-02  0.1280296E+00
         21   -1    0    0  501  502  0.00000000000E+00  0.00000000000E+00  0.10083315198E+03  0.10083315198E+03  0.00000000000E+00 0.  1.
         21   -1    0    0  502  503 -0.00000000000E+00 -0.00000000000E+00 -0.38127039861E+03  0.38127039861E+03  0.00000000000E+00 0.  1.
          6    1    1    2  501    0 -0.52382615111E+02 -0.21047614635E+02 -0.50474706607E+02  0.18884818362E+03  0.17300000000E+03 0.  1.
         -6    1    1    2    0  503  0.52382615111E+02  0.21047614635E+02 -0.22996254002E+03  0.29325536698E+03  0.17300000000E+03 0.  1.
</event>
<event>
 4    1  0.5904698E+000  0.1000000E+03  0.7546771E-02  0.1280296E+00
         21   -1    0    0  501  502  0.00000000000E+00  0.00000000000E+00  0.75189350065E+03  0.75189350065E+03  0.00000000000E+00 0.  1.
         21   -1    0    0  502  503 -0.00000000000E+00 -0.00000000000E+00 -0.17513464078E+03  0.17513464078E+03  0.00000000000E+00 0.  1.
          6    1    1    2  501    0  0.49594444924E+01 -0.60870806779E+02  0.68829137711E+03  0.71232286992E+03  0.17300000000E+03 0.  1.
         -6    1    1    2    0  503 -0.49594444924E+01  0.60870806779E+02 -0.11153251725E+03  0.21470527150E+03  0.17300000000E+03 0.  1.
</event>
<event>
 4    1  0.5904698E+000  0.1000000E+03  0.7546771E-02  0.1280296E+00
         21   -1    0    0  501  502  0.00000000000E+00  0.00000000000E+00  0.25271502298E+04  0.25271502298E+04  0.00000000000E+00 0. -1.
         21   -1    0    0  502  503 -0.00000000000E+00 -0.00000000000E+00 -0.48035908958E+02  0.48035908958E+02  0.00000000000E+00 0. -1.
          6    1    1    2  501    0  0.95388694893E+01 -0.13432948629E+03  0.22402933972E+04  0.22509950925E+04  0.17300000000E+03 0.  1.
         -6    1    1    2    0  503 -0.95388694893E+01  0.13432948629E+03  0.23882092372E+03  0.32419104634E+03  0.17300000000E+03 0.  1.
</event>
<event>
 4    1  0.5904698E+000  0.1000000E+03  0.7546771E-02  0.1280296E+00
         21   -1    0    0  503  502  0.00000000000E+00  0.00000000000E+00  0.10790501633E+04  0.10790501633E+04  0.00000000000E+00 0. -1.
         21   -1    0    0  501  503 -0.00000000000E+00 -0.00000000000E+00 -0.76531555609E+02  0.76531555609E+02  0.00000000000E+00 0.  1.
          6    1    1    2  501    0 -0.13995943240E+03 -0.89687092786E+02  0.18322572701E+03  0.30188256718E+03  0.17300000000E+03 0. -1.
         -6    1    1    2    0  502  0.13995943240E+03  0.89687092786E+02  0.81929288072E+03  0.85369915177E+03  0.17300000000E+03 0.  1.
</event>
<event>
 4    1  0.5904698E+000  0.1000000E+03  0.7546771E-02  0.1280296E+00
         21   -1    0    0  501  502  0.00000000000E+00  0.00000000000E+00  0.18512055402E+03  0.18512055402E+03  0.00000000000E+00 0. -1.
         21   -1    0    0  502  503 -0.00000000000E+00 -0.00000000000E+00 -0.43060089875E+03  0.43060089875E+03  0.00000000000E+00 0. -1.
          6    1    1    2  501    0 -0.86267494435E+01  0.18868155991E+03 -0.25226006233E+03  0.35949866606E+03  0.17300000000E+03 0. -1.
         -6    1    1    2    0  503  0.86267494435E+01 -0.18868155991E+03  0.67797175984E+01  0.25622278670E+03  0.17300000000E+03 0. -1.
</event>
<event>
 4    1  0.5904698E+000  0.1000000E+03  0.7546771E-02  0.1280296E+00
         21   -1    0    0  501  502  0.00000000000E+00  0.00000000000E+00  0.12088870172E+03  0.12088870172E+03  0.00000000000E+00 0. -1.
         21   -1    0    0  502  503 -0.00000000000E+00 -0.00000000000E+00 -0.28426571016E+03  0.28426571016E+03  0.00000000000E+00 0. -1.
          6    1    1    2  501    0 -0.61355246096E+02 -0.28959644885E+01 -0.10981922099E+03  0.21392081276E+03  0.17300000000E+03 0. -1.
         -6    1    1    2    0  503  0.61355246096E+02  0.28959644885E+01 -0.53557787452E+02  0.19123359912E+03  0.17300000000E+03 0. -1.
</event>
<event>
 4    1  0.5904698E+000  0.1000000E+03  0.7546771E-02  0.1280296E+00
         21   -1    0    0  501  502  0.00000000000E+00  0.00000000000E+00  0.19297825889E+03  0.19297825889E+03  0.00000000000E+00 0. -1.
         21   -1    0    0  502  503 -0.00000000000E+00 -0.00000000000E+00 -0.47914424903E+03  0.47914424903E+03  0.00000000000E+00 0. -1.
          6    1    1    2  501    0 -0.10399463293E+02 -0.48936917372E+02  0.12770172469E+03  0.22077069825E+03  0.17300000000E+03 0. -1.
         -6    1    1    2    0  503  0.10399463293E+02  0.48936917372E+02 -0.41386771483E+03  0.45135180967E+03  0.17300000000E+03 0. -1.
</event>
<event>
 4    1  0.5904698E+000  0.1000000E+03  0.7546771E-02  0.1280296E+00
         21   -1    0    0  501  502  0.00000000000E+00  0.00000000000E+00  0.12132126227E+03  0.12132126227E+03  0.00000000000E+00 0. -1.
         21   -1    0    0  502  503 -0.00000000000E+00 -0.00000000000E+00 -0.39682103844E+03  0.39682103844E+03  0.00000000000E+00 0. -1.
          6    1    1    2  501    0 -0.18604006841E+02 -0.21903545951E+02  0.17946128356E+02  0.17628652223E+03  0.17300000000E+03 0. -1.
         -6    1    1    2    0  503  0.18604006841E+02  0.21903545951E+02 -0.29344590452E+03  0.34185577848E+03  0.17300000000E+03 0. -1.
</event>
<event>
 4    1  0.5904698E+000  0.1000000E+03  0.7546771E-02  0.1280296E+00
         21   -1    0    0  503  502  0.00000000000E+00  0.00000000000E+00  0.39477423782E+03  0.39477423782E+03  0.00000000000E+00 0. -1.
         21   -1    0    0  501  503 -0.00000000000E+00 -0.00000000000E+00 -0.89193835144E+02  0.89193835144E+02  0.00000000000E+00 0.  1.
          6    1    1    2  501    0 -0.42868390238E+02 -0.46861279570E+02  0.10721982385E+03  0.21321062129E+03  0.17300000000E+03 0.  1.
         -6    1    1    2    0  502  0.42868390238E+02  0.46861279570E+02  0.19836057882E+03  0.27075745167E+03  0.17300000000E+03 0. -1.
</event>
<event>
 4    1  0.5904698E+000  0.1000000E+03  0.7546771E-02  0.1280296E+00
         21   -1    0    0  503  502  0.00000000000E+00  0.00000000000E+00  0.95081927607E+03  0.95081927607E+03  0.00000000000E+00 0. -1.
         21   -1    0    0  501  503 -0.00000000000E+00 -0.00000000000E+00 -0.41328326980E+02  0.41328326980E+02  0.00000000000E+00 0.  1.
          6    1    1    2  501    0  0.45779753746E+02 -0.45990121220E+02  0.27505488578E+03  0.33135338733E+03  0.17300000000E+03 0.  1.
         -6    1    1    2    0  502 -0.45779753746E+02  0.45990121220E+02  0.63443606331E+03  0.66079421572E+03  0.17300000000E+03 0. -1.
</event>
<event>
 4    1  0.5904698E+000  0.1000000E+03  0.7546771E-02  0.1280296E+00
         21   -1    0    0  503  502  0.00000000000E+00  0.00000000000E+00  0.15452415491E+04  0.15452415491E+04  0.00000000000E+00 0. -1.
         21   -1    0    0  501  503 -0.00000000000E+00 -0.00000000000E+00 -0.12825537447E+03  0.12825537447E+03  0.00000000000E+00 0.  1.
          6    1    1    2  501    0 -0.50014620837E+02  0.30164540465E+03  0.19455776418E+03  0.40158826681E+03  0.17300000000E+03 0.  1.
         -6    1    1    2    0  502  0.50014620837E+02 -0.30164540465E+03  0.12224284105E+04  0.12719086568E+04  0.17300000000E+03 0. -1.
</event>
<event>
 4    1  0.5904698E+000  0.1000000E+03  0.7546771E-02  0.1280296E+00
         21   -1    0    0  501  502  0.00000000000E+00  0.00000000000E+00  0.11430392778E+03  0.11430392778E+03  0.00000000000E+00 0.  1.
         21   -1    0    0  502  503 -0.00000000000E+00 -0.00000000000E+00 -0.65148313040E+03  0.65148313040E+03  0.00000000000E+00 0. -1.
          6    1    1    2  501    0  0.73669236955E+02  0.28929535321E+02  0.59138593395E+01  0.19033667072E+03  0.17300000000E+03 0.  1.
         -6    1    1    2    0  503 -0.73669236955E+02 -0.28929535321E+02 -0.54309306196E+03  0.57545038747E+03  0.17300000000E+03 0. -1.
</event>
<event>
 4    1  0.5904698E+000  0.1000000E+03  0.7546771E-02  0.1280296E+00
         21   -1    0    0  501  502  0.00000000000E+00  0.00000000000E+00  0.33332562085E+03  0.33332562085E+03  0.00000000000E+00 0.  1.
         21   -1    0    0  502  503 -0.00000000000E+00 -0.00000000000E+00 -0.19524476447E+03  0.19524476447E+03  0.00000000000E+00 0. -1.
          6    1    1    2  501    0 -0.13137247092E+03  0.92180743597E+02  0.16945545739E+03  0.29051706946E+03  0.17300000000E+03 0.  1.
         -6    1    1    2    0  503  0.13137247092E+03 -0.92180743597E+02 -0.31374601007E+02  0.23805331586E+03  0.17300000000E+03 0. -1.
</event>
<event>
 4    1  0.5904698E+000  0.1000000E+03  0.7546771E-02  0.1280296E+00
         21   -1    0    0  501  502  0.00000000000E+00  0.00000000000E+00  0.32060103405E+02  0.32060103405E+02  0.00000000000E+00 0.  1.
         21   -1    0    0  502  503 -0.00000000000E+00 -0.00000000000E+00 -0.15065580886E+04  0.15065580886E+04  0.00000000000E+00 0. -1.
          6    1    1    2  501    0 -0.52325576418E+02  0.10730467141E+03 -0.51258718312E+03  0.55400981828E+03  0.17300000000E+03 0.  1.
         -6    1    1    2    0  503  0.52325576418E+02 -0.10730467141E+03 -0.96191080203E+03  0.98460837368E+03  0.17300000000E+03 0. -1.
</event>
<event>
 4    1  0.5904698E+000  0.1000000E+03  0.7546771E-02  0.1280296E+00
         21   -1    0    0  501  502  0.00000000000E+00  0.00000000000E+00  0.33428506321E+03  0.33428506321E+03  0.00000000000E+00 0.  1.
         21   -1    0    0  502  503 -0.00000000000E+00 -0.00000000000E+00 -0.34291925577E+03  0.34291925577E+03  0.00000000000E+00 0. -1.
          6    1    1    2  501    0 -0.49717212926E+02  0.37726208247E+02  0.27997475226E+03  0.33497750664E+03  0.17300000000E+03 0.  1.
         -6    1    1    2    0  503  0.49717212926E+02 -0.37726208247E+02 -0.28860894482E+03  0.34222681233E+03  0.17300000000E+03 0. -1.
</event>
<event>
 4    1  0.5904698E+000  0.1000000E+03  0.7546771E-02  0.1280296E+00
         21   -1    0    0  503  502  0.00000000000E+00  0.00000000000E+00  0.63354231044E+03  0.63354231044E+03  0.00000000000E+00 0.  1.
         21   -1    0    0  501  503 -0.00000000000E+00 -0.00000000000E+00 -0.64884915983E+02  0.64884915983E+02  0.00000000000E+00 0.  1.
          6    1    1    2  501    0 -0.11928282636E+02  0.92603435551E+02  0.19888948603E+03  0.27964925864E+03  0.17300000000E+03 0.  1.
         -6    1    1    2    0  502  0.11928282636E+02 -0.92603435551E+02  0.36976790843E+03  0.41877796779E+03  0.17300000000E+03 0.  1.
</event>
<event>
 4    1  0.5904698E+000  0.1000000E+03  0.7546771E-02  0.1280296E+00
         21   -1    0    0  503  502  0.00000000000E+00  0.00000000000E+00  0.67115907988E+03  0.67115907988E+03  0.00000000000E+00 0.  1.
         21   -1    0    0  501  503 -0.00000000000E+00 -0.00000000000E+00 -0.12234021939E+03  0.12234021939E+03  0.00000000000E+00 0.  1.
          6    1    1    2  501    0  0.18403434241E+03 -0.95497675786E+02  0.40715846569E+03  0.48856469526E+03  0.17300000000E+03 0.  1.
         -6    1    1    2    0  502 -0.18403434241E+03  0.95497675786E+02  0.14166039480E+03  0.30493460401E+03  0.17300000000E+03 0.  1.
</event>
<event>
 4    1  0.5904698E+000  0.1000000E+03  0.7546771E-02  0.1280296E+00
         21   -1    0    0  501  502  0.00000000000E+00  0.00000000000E+00  0.10478914775E+04  0.10478914775E+04  0.00000000000E+00 0.  1.
         21   -1    0    0  502  503 -0.00000000000E+00 -0.00000000000E+00 -0.35845631262E+02  0.35845631262E+02  0.00000000000E+00 0. -1.
          6    1    1    2  501    0 -0.18999554173E+02  0.62662699907E+02  0.66774280468E+03  0.69289035945E+03  0.17300000000E+03 0.  1.
         -6    1    1    2    0  503  0.18999554173E+02 -0.62662699907E+02  0.34430304153E+03  0.39084674928E+03  0.17300000000E+03 0. -1.
</event>
<event>
 4    1  0.5904698E+000  0.1000000E+03  0.7546771E-02  0.1280296E+00
         21   -1    0    0  501  502  0.00000000000E+00  0.00000000000E+00  0.37365168628E+03  0.37365168628E+03  0.00000000000E+00 0.  1.
         21   -1    0    0  502  503 -0.00000000000E+00 -0.00000000000E+00 -0.40887444913E+03  0.40887444913E+03  0.00000000000E+00 0. -1.
          6    1    1    2  501    0 -0.67233267964E+02  0.11056334814E+03  0.30845374572E+03  0.37658635069E+03  0.17300000000E+03 0.  1.
         -6    1    1    2    0  503  0.67233267964E+02 -0.11056334814E+03 -0.34367650858E+03  0.40593978472E+03  0.17300000000E+03 0. -1.
</event>
<event>
 4    1  0.5904698E+000  0.1000000E+03  0.7546771E-02  0.1280296E+00
         21   -1    0    0  501  502  0.00000000000E+00  0.00000000000E+00  0.28213335557E+03  0.28213335557E+03  0.00000000000E+00 0.  1.
         21   -1    0    0  502  503 -0.00000000000E+00 -0.00000000000E+00 -0.25961232375E+03  0.25961232375E+03  0.00000000000E+00 0. -1.
          6    1    1    2  501    0 -0.73974423669E+02 -0.11423288023E+03  0.16886081323E+03  0.27742447716E+03  0.17300000000E+03 0.  1.
         -6    1    1    2    0  503  0.73974423669E+02  0.11423288023E+03 -0.14633978142E+03  0.26432120216E+03  0.17300000000E+03 0. -1.
</event>
<event>
 4    1  0.5904698E+000  0.1000000E+03  0.7546771E-02  0.1280296E+00
         21   -1    0    0  501  502  0.00000000000E+00  0.00000000000E+00  0.63361701139E+02  0.63361701139E+02  0.00000000000E+00 0.  1.
         21   -1    0    0  502  503 -0.00000000000E+00 -0.00000000000E+00 -0.73100497439E+03  0.73100497439E+03  0.00000000000E+00 0.  1.
          6    1    1    2  501    0  0.54563484111E+02 -0.62716753032E+01 -0.12040953083E+03  0.21781635114E+03  0.17300000000E+03 0.  1.
         -6    1    1    2    0  503 -0.54563484111E+02  0.62716753032E+01 -0.54723374242E+03  0.57655032439E+03  0.17300000000E+03 0.  1.
</event>
<event>
 4    1  0.5904698E+000  0.1000000E+03  0.7546771E-02  0.1280296E+00
         21   -1    0    0  501  502  0.00000000000E+00  0.00000000000E+00  0.15244284332E+03  0.15244284332E+03  0.00000000000E+00 0.  1.
         21   -1    0    0  502  503 -0.00000000000E+00 -0.00000000000E+00 -0.48447648094E+03  0.48447648094E+03  0.00000000000E+00 0.  1.
          6    1    1    2  501    0  0.68923940314E+01 -0.29674108439E+02  0.76973100059E+02  0.19178612030E+03  0.17300000000E+03 0.  1.
         -6    1    1    2    0  503 -0.68923940314E+01  0.29674108439E+02 -0.40900673768E+03  0.44513320397E+03  0.17300000000E+03 0.  1.
</event>
<event>
 4    1  0.5904698E+000  0.1000000E+03  0.7546771E-02  0.1280296E+00
         21   -1    0    0  501  502  0.00000000000E+00  0.00000000000E+00  0.20090634403E+03  0.20090634403E+03  0.00000000000E+00 0.  1.
         21   -1    0    0  502  503 -0.00000000000E+00 -0.00000000000E+00 -0.27520719989E+03  0.27520719989E+03  0.00000000000E+00 0.  1.
          6    1    1    2  501    0  0.46765009224E+02 -0.76062050413E+02  0.96354409329E+02  0.21722240630E+03  0.17300000000E+03 0.  1.
         -6    1    1    2    0  503 -0.46765009224E+02  0.76062050413E+02 -0.17065526519E+03  0.25889113762E+03  0.17300000000E+03 0.  1.
</event>
<event>
 4    1  0.5904698E+000  0.1000000E+03  0.7546771E-02  0.1280296E+00
         21   -1    0    0  501  502  0.00000000000E+00  0.00000000000E+00  0.40297635305E+03  0.40297635305E+03  0.00000000000E+00 0. -1.
         21   -1    0    0  502  503 -0.00000000000E+00 -0.00000000000E+00 -0.98962654864E+02  0.98962654864E+02  0.00000000000E+00 0.  1.
          6    1    1    2  501    0  0.29049593978E+02  0.93558519691E+02  0.17563671384E+03  0.26528160653E+03  0.17300000000E+03 0. -1.
         -6    1    1    2    0  503 -0.29049593978E+02 -0.93558519691E+02  0.12837698435E+03  0.23665740138E+03  0.17300000000E+03 0.  1.
</event>
<event>
 4    1  0.5904698E+000  0.1000000E+03  0.7546771E-02  0.1280296E+00
         21   -1    0    0  501  502  0.00000000000E+00  0.00000000000E+00  0.74696844425E+03  0.74696844425E+03  0.00000000000E+00 0. -1.
         21   -1    0    0  502  503 -0.00000000000E+00 -0.00000000000E+00 -0.41595978623E+03  0.41595978623E+03  0.00000000000E+00 0.  1.
          6    1    1    2  501    0  0.22835402077E+03  0.71403716720E+02  0.65870044228E+03  0.72184438920E+03  0.17300000000E+03 0. -1.
         -6    1    1    2    0  503 -0.22835402077E+03 -0.71403716720E+02 -0.32769178426E+03  0.44108384127E+03  0.17300000000E+03 0.  1.
</event>
<event>
 4    1  0.5904698E+000  0.1000000E+03  0.7546771E-02  0.1280296E+00
         21   -1    0    0  501  502  0.00000000000E+00  0.00000000000E+00  0.36213467446E+03  0.36213467446E+03  0.00000000000E+00 0.  1.
         21   -1    0    0  502  503 -0.00000000000E+00 -0.00000000000E+00 -0.15209114933E+03  0.15209114933E+03  0.00000000000E+00 0.  1.
          6    1    1    2  501    0 -0.19363938057E+02  0.11847847022E+03  0.21853998250E+03  0.30348119209E+03  0.17300000000E+03 0. -1.
         -6    1    1    2    0  503  0.19363938057E+02 -0.11847847022E+03 -0.84964573680E+01  0.21074463170E+03  0.17300000000E+03 0. -1.
</event>
<event>
 4    1  0.5904698E+000  0.1000000E+03  0.7546771E-02  0.1280296E+00
         21   -1    0    0  501  502  0.00000000000E+00  0.00000000000E+00  0.67300853700E+03  0.67300853700E+03  0.00000000000E+00 0.  1.
         21   -1    0    0  502  503 -0.00000000000E+00 -0.00000000000E+00 -0.13229751451E+03  0.13229751451E+03  0.00000000000E+00 0.  1.
          6    1    1    2  501    0  0.68639006191E+02  0.15722364217E+03  0.50282206061E+03  0.55873930546E+03  0.17300000000E+03 0. -1.
         -6    1    1    2    0  503 -0.68639006191E+02 -0.15722364217E+03  0.37888961882E+02  0.24656674605E+03  0.17300000000E+03 0. -1.
</event>
<event>
 4    1  0.5904698E+000  0.1000000E+03  0.7546771E-02  0.1280296E+00
         21   -1    0    0  501  502  0.00000000000E+00  0.00000000000E+00  0.27480145239E+02  0.27480145239E+02  0.00000000000E+00 0.  1.
         21   -1    0    0  502  503 -0.00000000000E+00 -0.00000000000E+00 -0.15622871436E+04  0.15622871436E+04  0.00000000000E+00 0.  1.
          6    1    1    2  501    0 -0.24735574964E+01 -0.11326667496E+03 -0.81704176476E+03  0.84280585161E+03  0.17300000000E+03 0. -1.
         -6    1    1    2    0  503  0.24735574964E+01  0.11326667496E+03 -0.71776523358E+03  0.74696143721E+03  0.17300000000E+03 0. -1.
</event>
<event>
 4    1  0.5904698E+000  0.1000000E+03  0.7546771E-02  0.1280296E+00
         21   -1    0    0  503  502  0.00000000000E+00  0.00000000000E+00  0.48235415691E+03  0.48235415691E+03  0.00000000000E+00 0.  1.
         21   -1    0    0  501  503 -0.00000000000E+00 -0.00000000000E+00 -0.13615220627E+03  0.13615220627E+03  0.00000000000E+00 0. -1.
          6    1    1    2  501    0  0.11481786533E+03  0.14971420309E+03  0.15846498874E+03  0.30106085342E+03  0.17300000000E+03 0. -1.
         -6    1    1    2    0  502 -0.11481786533E+03 -0.14971420309E+03  0.18773696190E+03  0.31744550976E+03  0.17300000000E+03 0.  1.
</event>
<event>
 4    1  0.5904698E+000  0.1000000E+03  0.7546771E-02  0.1280296E+00
         21   -1    0    0  503  502  0.00000000000E+00  0.00000000000E+00  0.34446998840E+04  0.34446998840E+04  0.00000000000E+00 0.  1.
         21   -1    0    0  501  503 -0.00000000000E+00 -0.00000000000E+00 -0.65198324965E+02  0.65198324965E+02  0.00000000000E+00 0. -1.
          6    1    1    2  501    0 -0.39781308568E+03  0.17519778949E+03  0.19695807410E+04  0.20243830695E+04  0.17300000000E+03 0. -1.
         -6    1    1    2    0  502  0.39781308568E+03 -0.17519778949E+03  0.14099208180E+04  0.14855151395E+04  0.17300000000E+03 0.  1.
</event>
<event>
 4    1  0.5904698E+000  0.1000000E+03  0.7546771E-02  0.1280296E+00
         21   -1    0    0  503  502  0.00000000000E+00  0.00000000000E+00  0.59807686366E+02  0.59807686366E+02  0.00000000000E+00 0.  1.
         21   -1    0    0  501  503 -0.00000000000E+00 -0.00000000000E+00 -0.11644249946E+04  0.11644249946E+04  0.00000000000E+00 0.  1.
          6    1    1    2  501    0  0.76392823956E+02  0.47419280251E+02 -0.96482043364E+03  0.98432307748E+03  0.17300000000E+03 0.  1.
         -6    1    1    2    0  502 -0.76392823956E+02 -0.47419280251E+02 -0.13979687456E+03  0.23990960345E+03  0.17300000000E+03 0.  1.
</event>
<event>
 4    1  0.5904698E+000  0.1000000E+03  0.7546771E-02  0.1280296E+00
         21   -1    0    0  503  502  0.00000000000E+00  0.00000000000E+00  0.23020640452E+03  0.23020640452E+03  0.00000000000E+00 0.  1.
         21   -1    0    0  501  503 -0.00000000000E+00 -0.00000000000E+00 -0.29160889724E+03  0.29160889724E+03  0.00000000000E+00 0.  1.
          6    1    1    2  501    0  0.37755120395E+02  0.46656945281E+02 -0.21528367759E+03  0.28262763753E+03  0.17300000000E+03 0.  1.
         -6    1    1    2    0  502 -0.37755120395E+02 -0.46656945281E+02  0.15388118488E+03  0.23918766423E+03  0.17300000000E+03 0.  1.
</event>
<event>
 4    1  0.5904698E+000  0.1000000E+03  0.7546771E-02  0.1280296E+00
         21   -1    0    0  503  502  0.00000000000E+00  0.00000000000E+00  0.18802667399E+04  0.18802667399E+04  0.00000000000E+00 0.  1.
         21   -1    0    0  501  503 -0.00000000000E+00 -0.00000000000E+00 -0.45397313010E+02  0.45397313010E+02  0.00000000000E+00 0.  1.
          6    1    1    2  501    0 -0.50570090566E+02  0.55984450520E+02  0.18246082432E+03  0.26251199053E+03  0.17300000000E+03 0.  1.
         -6    1    1    2    0  502  0.50570090566E+02 -0.55984450520E+02  0.16524086026E+04  0.16631520624E+04  0.17300000000E+03 0.  1.
</event>
<event>
 4    1  0.5904698E+000  0.1000000E+03  0.7546771E-02  0.1280296E+00
         21   -1    0    0  503  502  0.00000000000E+00  0.00000000000E+00  0.51032155726E+03  0.51032155726E+03  0.00000000000E+00 0.  1.
         21   -1    0    0  501  503 -0.00000000000E+00 -0.00000000000E+00 -0.19093251922E+03  0.19093251922E+03  0.00000000000E+00 0.  1.
          6    1    1    2  501    0 -0.12430476012E+03  0.57771178834E+02 -0.88237020540E+02  0.23770560424E+03  0.17300000000E+03 0.  1.
         -6    1    1    2    0  502  0.12430476012E+03 -0.57771178834E+02  0.40762605858E+03  0.46354847225E+03  0.17300000000E+03 0.  1.
</event>
<event>
 4    1  0.5904698E+000  0.1000000E+03  0.7546771E-02  0.1280296E+00
         21   -1    0    0  503  502  0.00000000000E+00  0.00000000000E+00  0.89618204040E+03  0.89618204040E+03  0.00000000000E+00 0.  1.
         21   -1    0    0  501  503 -0.00000000000E+00 -0.00000000000E+00 -0.32151192866E+03  0.32151192866E+03  0.00000000000E+00 0.  1.
          6    1    1    2  501    0  0.52981708653E+02 -0.92995624033E+02 -0.27609390835E+03  0.34294619661E+03  0.17300000000E+03 0.  1.
         -6    1    1    2    0  502 -0.52981708653E+02  0.92995624033E+02  0.85076402009E+03  0.87474777246E+03  0.17300000000E+03 0.  1.
</event>
<event>
 4    1  0.5904698E+000  0.1000000E+03  0.7546771E-02  0.1280296E+00
         21   -1    0    0  503  502  0.00000000000E+00  0.00000000000E+00  0.13624459838E+03  0.13624459838E+03  0.00000000000E+00 0.  1.
         21   -1    0    0  501  503 -0.00000000000E+00 -0.00000000000E+00 -0.24649199949E+03  0.24649199949E+03  0.00000000000E+00 0.  1.
          6    1    1    2  501    0 -0.12794666702E+02 -0.48896931399E+02 -0.89751456038E+02  0.20134283513E+03  0.17300000000E+03 0.  1.
         -6    1    1    2    0  502  0.12794666702E+02  0.48896931399E+02 -0.20495945075E+02  0.18139376274E+03  0.17300000000E+03 0.  1.
</event>
<event>
 4    1  0.5904698E+000  0.1000000E+03  0.7546771E-02  0.1280296E+00
         21   -1    0    0  503  502  0.00000000000E+00  0.00000000000E+00  0.37542890083E+03  0.37542890083E+03  0.00000000000E+00 0.  1.
         21   -1    0    0  501  503 -0.00000000000E+00 -0.00000000000E+00 -0.30512376650E+03  0.30512376650E+03  0.00000000000E+00 0. -1.
          6    1    1    2  501    0 -0.29560269412E+02 -0.24434657323E+03 -0.12074353192E+03  0.32417134031E+03  0.17300000000E+03 0. -1.
         -6    1    1    2    0  502  0.29560269412E+02  0.24434657323E+03  0.19104866624E+03  0.35638132702E+03  0.17300000000E+03 0.  1.
</event>
<event>
 4    1  0.5904698E+000  0.1000000E+03  0.7546771E-02  0.1280296E+00
         21   -1    0    0  501  502  0.00000000000E+00  0.00000000000E+00  0.14289484590E+03  0.14289484590E+03  0.00000000000E+00 0. -1.
         21   -1    0    0  502  503 -0.00000000000E+00 -0.00000000000E+00 -0.15707958400E+04  0.15707958400E+04  0.00000000000E+00 0.  1.
          6    1    1    2  501    0 -0.21764767772E+03 -0.29611884212E+03 -0.27289494371E+03  0.48934397981E+03  0.17300000000E+03 0.  1.
         -6    1    1    2    0  503  0.21764767772E+03  0.29611884212E+03 -0.11550060503E+04  0.12243467061E+04  0.17300000000E+03 0. -1.
</event>
<event>
 4    1  0.5904698E+000  0.1000000E+03  0.7546771E-02  0.1280296E+00
         21   -1    0    0  503  502  0.00000000000E+00  0.00000000000E+00  0.32386001659E+04  0.32386001659E+04  0.00000000000E+00 0. -1.
         21   -1    0    0  501  503 -0.00000000000E+00 -0.00000000000E+00 -0.81775062827E+02  0.81775062827E+02  0.00000000000E+00 0. -1.
          6    1    1    2  501    0 -0.12210822630E+03 -0.98387428676E+02  0.98944868899E+02  0.25359335980E+03  0.17300000000E+03 0. -1.
         -6    1    1    2    0  502  0.12210822630E+03  0.98387428676E+02  0.30578802342E+04  0.30667818689E+04  0.17300000000E+03 0. -1.
</event>
<event>
 4    1  0.5904698E+000  0.1000000E+03  0.7546771E-02  0.1280296E+00
         21   -1    0    0  503  502  0.00000000000E+00  0.00000000000E+00  0.15900789102E+03  0.15900789102E+03  0.00000000000E+00 0.  1.
         21   -1    0    0  501  503 -0.00000000000E+00 -0.00000000000E+00 -0.58490279611E+03  0.58490279611E+03  0.00000000000E+00 0.  1.
          6    1    1    2  501    0  0.32985779154E+02  0.18245414474E+02 -0.51579283745E+03  0.54533678396E+03  0.17300000000E+03 0.  1.
         -6    1    1    2    0  502 -0.32985779154E+02 -0.18245414474E+02  0.89897932363E+02  0.19857390317E+03  0.17300000000E+03 0.  1.
</event>
<event>
 4    1  0.5904698E+000  0.1000000E+03  0.7546771E-02  0.1280296E+00
         21   -1    0    0  503  502  0.00000000000E+00  0.00000000000E+00  0.21546667671E+04  0.21546667671E+04  0.00000000000E+00 0.  1.
         21   -1    0    0  501  503 -0.00000000000E+00 -0.00000000000E+00 -0.27439124814E+02  0.27439124814E+02  0.00000000000E+00 0.  1.
          6    1    1    2  501    0  0.10009034176E+03 -0.47482466281E+01  0.44262480052E+03  0.48568131156E+03  0.17300000000E+03 0.  1.
         -6    1    1    2    0  502 -0.10009034176E+03  0.47482466281E+01  0.16846028417E+04  0.16964245803E+04  0.17300000000E+03 0.  1.
</event>
<event>
 4    1  0.5904698E+000  0.1000000E+03  0.7546771E-02  0.1280296E+00
         21   -1    0    0  501  502  0.00000000000E+00  0.00000000000E+00  0.15716175174E+04  0.15716175174E+04  0.00000000000E+00 0. -1.
         21   -1    0    0  502  503 -0.00000000000E+00 -0.00000000000E+00 -0.20535970418E+02  0.20535970418E+02  0.00000000000E+00 0. -1.
          6    1    1    2  501    0 -0.22819702024E+02  0.11856928496E+02  0.59367874393E+03  0.61890611287E+03  0.17300000000E+03 0. -1.
         -6    1    1    2    0  503  0.22819702024E+02 -0.11856928496E+02  0.95740280310E+03  0.97324737499E+03  0.17300000000E+03 0. -1.
</event>
<event>
 4    1  0.5904698E+000  0.1000000E+03  0.7546771E-02  0.1280296E+00
         21   -1    0    0  503  502  0.00000000000E+00  0.00000000000E+00  0.12346772685E+03  0.12346772685E+03  0.00000000000E+00 0.  1.
         21   -1    0    0  501  503 -0.00000000000E+00 -0.00000000000E+00 -0.33425364779E+03  0.33425364779E+03  0.00000000000E+00 0.  1.
          6    1    1    2  501    0  0.77343287302E+02 -0.48497103957E+01 -0.18767878058E+03  0.26675424732E+03  0.17300000000E+03 0.  1.
         -6    1    1    2    0  502 -0.77343287302E+02  0.48497103957E+01 -0.23107140359E+02  0.19096712732E+03  0.17300000000E+03 0.  1.
</event>
<event>
 4    1  0.5904698E+000  0.1000000E+03  0.7546771E-02  0.1280296E+00
         21   -1    0    0  503  502  0.00000000000E+00  0.00000000000E+00  0.14982992576E+03  0.14982992576E+03  0.00000000000E+00 0.  1.
         21   -1    0    0  501  503 -0.00000000000E+00 -0.00000000000E+00 -0.46346022592E+03  0.46346022592E+03  0.00000000000E+00 0.  1.
          6    1    1    2  501    0  0.16183743923E+03 -0.92102636648E+02 -0.23774647939E+03  0.34803252847E+03  0.17300000000E+03 0.  1.
         -6    1    1    2    0  502 -0.16183743923E+03  0.92102636648E+02 -0.75883820778E+02  0.26525762321E+03  0.17300000000E+03 0.  1.
</event>
<event>
 4    1  0.5904698E+000  0.1000000E+03  0.7546771E-02  0.1280296E+00
         21   -1    0    0  503  502  0.00000000000E+00  0.00000000000E+00  0.28341654265E+03  0.28341654265E+03  0.00000000000E+00 0.  1.
         21   -1    0    0  501  503 -0.00000000000E+00 -0.00000000000E+00 -0.13292631703E+03  0.13292631703E+03  0.00000000000E+00 0.  1.
          6    1    1    2  501    0  0.54398674229E+02  0.25902355089E+02  0.64504598522E+01  0.18330509046E+03  0.17300000000E+03 0.  1.
         -6    1    1    2    0  502 -0.54398674229E+02 -0.25902355089E+02  0.14403976577E+03  0.23303776921E+03  0.17300000000E+03 0.  1.
</event>
<event>
 4    1  0.5904698E+000  0.1000000E+03  0.7546771E-02  0.1280296E+00
         21   -1    0    0  503  502  0.00000000000E+00  0.00000000000E+00  0.61320274433E+02  0.61320274433E+02  0.00000000000E+00 0.  1.
         21   -1    0    0  501  503 -0.00000000000E+00 -0.00000000000E+00 -0.72342346539E+03  0.72342346539E+03  0.00000000000E+00 0.  1.
          6    1    1    2  501    0 -0.14530344127E+02 -0.97577338157E+02 -0.45875571526E+03  0.50011826012E+03  0.17300000000E+03 0.  1.
         -6    1    1    2    0  502  0.14530344127E+02  0.97577338157E+02 -0.20334747569E+03  0.28462547969E+03  0.17300000000E+03 0.  1.
</event>
<event>
 4    1  0.5904698E+000  0.1000000E+03  0.7546771E-02  0.1280296E+00
         21   -1    0    0  501  502  0.00000000000E+00  0.00000000000E+00  0.19437373514E+03  0.19437373514E+03  0.00000000000E+00 0. -1.
         21   -1    0    0  502  503 -0.00000000000E+00 -0.00000000000E+00 -0.29474261665E+03  0.29474261665E+03  0.00000000000E+00 0.  1.
          6    1    1    2  501    0 -0.61558054032E+02  0.96387285221E+02  0.71918496784E+02  0.21950210238E+03  0.17300000000E+03 0. -1.
         -6    1    1    2    0  503  0.61558054032E+02 -0.96387285221E+02 -0.17228737829E+03  0.26961424941E+03  0.17300000000E+03 0.  1.
</event>
<event>
 4    1  0.5904698E+000  0.1000000E+03  0.7546771E-02  0.1280296E+00
         21   -1    0    0  501  502  0.00000000000E+00  0.00000000000E+00  0.18186207832E+03  0.18186207832E+03  0.00000000000E+00 0. -1.
         21   -1    0    0  502  503 -0.00000000000E+00 -0.00000000000E+00 -0.47071135125E+03  0.47071135125E+03  0.00000000000E+00 0.  1.
          6    1    1    2  501    0  0.11409875106E+03  0.67628585898E+02  0.73205384303E+02  0.22995690665E+03  0.17300000000E+03 0. -1.
         -6    1    1    2    0  503 -0.11409875106E+03 -0.67628585898E+02 -0.36205465724E+03  0.42261652293E+03  0.17300000000E+03 0.  1.
</event>
<event>
 4    1  0.5904698E+000  0.1000000E+03  0.7546771E-02  0.1280296E+00
         21   -1    0    0  503  502  0.00000000000E+00  0.00000000000E+00  0.51160523678E+03  0.51160523678E+03  0.00000000000E+00 0. -1.
         21   -1    0    0  501  503 -0.00000000000E+00 -0.00000000000E+00 -0.11358791536E+03  0.11358791536E+03  0.00000000000E+00 0.  1.
          6    1    1    2  501    0  0.65516537133E+02 -0.11959754509E+03  0.72040108326E+02  0.23176446371E+03  0.17300000000E+03 0. -1.
         -6    1    1    2    0  502 -0.65516537133E+02  0.11959754509E+03  0.32597721309E+03  0.39342868844E+03  0.17300000000E+03 0.  1.
</event>
<event>
 4    1  0.5904698E+000  0.1000000E+03  0.7546771E-02  0.1280296E+00
         21   -1    0    0  501  502  0.00000000000E+00  0.00000000000E+00  0.68507653250E+03  0.68507653250E+03  0.00000000000E+00 0. -1.
         21   -1    0    0  502  503 -0.00000000000E+00 -0.00000000000E+00 -0.65453934735E+02  0.65453934735E+02  0.00000000000E+00 0.  1.
          6    1    1    2  501    0 -0.71530311165E+02 -0.44176330012E+02  0.46676253700E+03  0.50484096456E+03  0.17300000000E+03 0. -1.
         -6    1    1    2    0  503  0.71530311165E+02  0.44176330012E+02  0.15286006076E+03  0.24568950268E+03  0.17300000000E+03 0.  1.
</event>
<event>
 4    1  0.5904698E+000  0.1000000E+03  0.7546771E-02  0.1280296E+00
         21   -1    0    0  501  502  0.00000000000E+00  0.00000000000E+00  0.27612673968E+03  0.27612673968E+03  0.00000000000E+00 0. -1.
         21   -1    0    0  502  503 -0.00000000000E+00 -0.00000000000E+00 -0.18330750504E+03  0.18330750504E+03  0.00000000000E+00 0.  1.
          6    1    1    2  501    0  0.11339189686E+03  0.31878489665E+02 -0.37870042669E+02  0.21269015141E+03  0.17300000000E+03 0. -1.
         -6    1    1    2    0  503 -0.11339189686E+03 -0.31878489665E+02  0.13068927730E+03  0.24674409330E+03  0.17300000000E+03 0.  1.
</event>
<event>
 4    1  0.5904698E+000  0.1000000E+03  0.7546771E-02  0.1280296E+00
         21   -1    0    0  501  502  0.00000000000E+00  0.00000000000E+00  0.84223920925E+03  0.84223920925E+03  0.00000000000E+00 0. -1.
         21   -1    0    0  502  503 -0.00000000000E+00 -0.00000000000E+00 -0.16439439638E+03  0.16439439638E+03  0.00000000000E+00 0.  1.
          6    1    1    2  501    0  0.14333144042E+03 -0.62375876337E+02  0.73117627238E+03  0.76745188322E+03  0.17300000000E+03 0. -1.
         -6    1    1    2    0  503 -0.14333144042E+03  0.62375876337E+02 -0.53331459511E+02  0.23918172241E+03  0.17300000000E+03 0.  1.
</event>
<event>
 4    1  0.5904698E+000  0.1000000E+03  0.7546771E-02  0.1280296E+00
         21   -1    0    0  501  502  0.00000000000E+00  0.00000000000E+00  0.14058750344E+03  0.14058750344E+03  0.00000000000E+00 0. -1.
         21   -1    0    0  502  503 -0.00000000000E+00 -0.00000000000E+00 -0.24225269544E+03  0.24225269544E+03  0.00000000000E+00 0.  1.
          6    1    1    2  501    0 -0.48714801804E+02  0.25312608747E+02 -0.85465303711E+02  0.20061699383E+03  0.17300000000E+03 0. -1.
         -6    1    1    2    0  503  0.48714801804E+02 -0.25312608747E+02 -0.16199888282E+02  0.18222320504E+03  0.17300000000E+03 0.  1.
</event>
<event>
 4    1  0.5904698E+000  0.1000000E+03  0.7546771E-02  0.1280296E+00
         21   -1    0    0  503  502  0.00000000000E+00  0.00000000000E+00  0.56037197406E+03  0.56037197406E+03  0.00000000000E+00 0. -1.
         21   -1    0    0  501  503 -0.00000000000E+00 -0.00000000000E+00 -0.11735496431E+03  0.11735496431E+03  0.00000000000E+00 0.  1.
          6    1    1    2  501    0 -0.12188060374E+03  0.14140417889E+03  0.26294691145E+03  0.36595095521E+03  0.17300000000E+03 0.  1.
         -6    1    1    2    0  502  0.12188060374E+03 -0.14140417889E+03  0.18007009829E+03  0.31177598316E+03  0.17300000000E+03 0. -1.
</event>
<event>
 4    1  0.5904698E+000  0.1000000E+03  0.7546771E-02  0.1280296E+00
         21   -1    0    0  503  502  0.00000000000E+00  0.00000000000E+00  0.91757932069E+02  0.91757932069E+02  0.00000000000E+00 0. -1.
         21   -1    0    0  501  503 -0.00000000000E+00 -0.00000000000E+00 -0.46707477791E+03  0.46707477791E+03  0.00000000000E+00 0.  1.
          6    1    1    2  501    0  0.15409972452E+02 -0.32803496646E+02 -0.33312111846E+03  0.37711035017E+03  0.17300000000E+03 0.  1.
         -6    1    1    2    0  502 -0.15409972452E+02  0.32803496646E+02 -0.42195727377E+02  0.18172235980E+03  0.17300000000E+03 0. -1.
</event>
<event>
 4    1  0.5904698E+000  0.1000000E+03  0.7546771E-02  0.1280296E+00
         21   -1    0    0  503  502  0.00000000000E+00  0.00000000000E+00  0.17494822626E+04  0.17494822626E+04  0.00000000000E+00 0.  1.
         21   -1    0    0  501  503 -0.00000000000E+00 -0.00000000000E+00 -0.34255776902E+02  0.34255776902E+02  0.00000000000E+00 0.  1.
          6    1    1    2  501    0  0.20546925196E+02 -0.37088349386E+02  0.24578682964E+03  0.30354223334E+03  0.17300000000E+03 0.  1.
         -6    1    1    2    0  502 -0.20546925196E+02  0.37088349386E+02  0.14694396561E+04  0.14801958062E+04  0.17300000000E+03 0.  1.
</event>
<event>
 4    1  0.5904698E+000  0.1000000E+03  0.7546771E-02  0.1280296E+00
         21   -1    0    0  501  502  0.00000000000E+00  0.00000000000E+00  0.33831353227E+02  0.33831353227E+02  0.00000000000E+00 0.  1.
         21   -1    0    0  502  503 -0.00000000000E+00 -0.00000000000E+00 -0.12600133946E+04  0.12600133946E+04  0.00000000000E+00 0. -1.
          6    1    1    2  501    0 -0.96611464139E+02  0.74085613120E+00 -0.43134126186E+03  0.47467737260E+03  0.17300000000E+03 0. -1.
         -6    1    1    2    0  503  0.96611464139E+02 -0.74085613120E+00 -0.79484077955E+03  0.81916737527E+03  0.17300000000E+03 0.  1.
</event>
<event>
 4    1  0.5904698E+000  0.1000000E+03  0.7546771E-02  0.1280296E+00
         21   -1    0    0  501  502  0.00000000000E+00  0.00000000000E+00  0.34434351003E+03  0.34434351003E+03  0.00000000000E+00 0.  1.
         21   -1    0    0  502  503 -0.00000000000E+00 -0.00000000000E+00 -0.12199411857E+03  0.12199411857E+03  0.00000000000E+00 0. -1.
          6    1    1    2  501    0  0.92911514527E+02 -0.35653532737E+02  0.16423265927E+03  0.25846680696E+03  0.17300000000E+03 0. -1.
         -6    1    1    2    0  503 -0.92911514527E+02  0.35653532737E+02  0.58116732194E+02  0.20787082164E+03  0.17300000000E+03 0.  1.
</event>
<event>
 4    1  0.5904698E+000  0.1000000E+03  0.7546771E-02  0.1280296E+00
         21   -1    0    0  503  502  0.00000000000E+00  0.00000000000E+00  0.35510289281E+03  0.35510289281E+03  0.00000000000E+00 0. -1.
         21   -1    0    0  501  503 -0.00000000000E+00 -0.00000000000E+00 -0.11586137190E+03  0.11586137190E+03  0.00000000000E+00 0. -1.
          6    1    1    2  501    0 -0.10517665028E+03 -0.10433423167E+02  0.11203238671E+03  0.23162737263E+03  0.17300000000E+03 0. -1.
         -6    1    1    2    0  502  0.10517665028E+03  0.10433423167E+02  0.12720913420E+03  0.23933689207E+03  0.17300000000E+03 0. -1.
</event>
<event>
 4    1  0.5904698E+000  0.1000000E+03  0.7546771E-02  0.1280296E+00
         21   -1    0    0  503  502  0.00000000000E+00  0.00000000000E+00  0.56457130725E+02  0.56457130725E+02  0.00000000000E+00 0. -1.
         21   -1    0    0  501  503 -0.00000000000E+00 -0.00000000000E+00 -0.58530675988E+03  0.58530675988E+03  0.00000000000E+00 0. -1.
          6    1    1    2  501    0  0.15066796809E+02 -0.23540599970E+02 -0.34971474319E+03  0.39116565521E+03  0.17300000000E+03 0. -1.
         -6    1    1    2    0  502 -0.15066796809E+02  0.23540599970E+02 -0.17913488597E+03  0.25059823540E+03  0.17300000000E+03 0. -1.
</event>
<event>
 4    1  0.5904698E+000  0.1000000E+03  0.7546771E-02  0.1280296E+00
         21   -1    0    0  503  502  0.00000000000E+00  0.00000000000E+00  0.35898866588E+03  0.35898866588E+03  0.00000000000E+00 0.  1.
         21   -1    0    0  501  503 -0.00000000000E+00 -0.00000000000E+00 -0.12803055923E+03  0.12803055923E+03  0.00000000000E+00 0. -1.
          6    1    1    2  501    0  0.32533408440E+01 -0.11192154901E+03  0.48324770514E+02  0.21166317772E+03  0.17300000000E+03 0.  1.
         -6    1    1    2    0  502 -0.32533408440E+01  0.11192154901E+03  0.18263333614E+03  0.27535604738E+03  0.17300000000E+03 0. -1.
</event>
<event>
 4    1  0.5904698E+000  0.1000000E+03  0.7546771E-02  0.1280296E+00
         21   -1    0    0  503  502  0.00000000000E+00  0.00000000000E+00  0.17203064709E+04  0.17203064709E+04  0.00000000000E+00 0.  1.
         21   -1    0    0  501  503 -0.00000000000E+00 -0.00000000000E+00 -0.39198794935E+02  0.39198794935E+02  0.00000000000E+00 0. -1.
          6    1    1    2  501    0  0.69384031083E+02  0.13283135776E+02  0.22966965834E+03  0.29608738141E+03  0.17300000000E+03 0.  1.
         -6    1    1    2    0  502 -0.69384031083E+02 -0.13283135776E+02  0.14514380177E+04  0.14634178845E+04  0.17300000000E+03 0. -1.
</event>
<event>
 4    1  0.5904698E+000  0.1000000E+03  0.7546771E-02  0.1280296E+00
         21   -1    0    0  503  502  0.00000000000E+00  0.00000000000E+00  0.10824725343E+03  0.10824725343E+03  0.00000000000E+00 0. -1.
         21   -1    0    0  501  503 -0.00000000000E+00 -0.00000000000E+00 -0.43209364514E+03  0.43209364514E+03  0.00000000000E+00 0.  1.
          6    1    1    2  501    0 -0.58407817881E+02 -0.24334009905E+02 -0.30347930188E+03  0.35501028703E+03  0.17300000000E+03 0.  1.
         -6    1    1    2    0  502  0.58407817881E+02  0.24334009905E+02 -0.20367089830E+02  0.18533061155E+03  0.17300000000E+03 0. -1.
</event>
<event>
 4    1  0.5904698E+000  0.1000000E+03  0.7546771E-02  0.1280296E+00
         21   -1    0    0  501  502  0.00000000000E+00  0.00000000000E+00  0.94874651210E+02  0.94874651210E+02  0.00000000000E+00 0. -1.
         21   -1    0    0  502  503 -0.00000000000E+00 -0.00000000000E+00 -0.53440125525E+03  0.53440125525E+03  0.00000000000E+00 0. -1.
          6    1    1    2  501    0  0.10334115511E+03 -0.80426074736E+02 -0.13563939569E+03  0.25588042813E+03  0.17300000000E+03 0. -1.
         -6    1    1    2    0  503 -0.10334115511E+03  0.80426074736E+02 -0.30388720834E+03  0.37339547832E+03  0.17300000000E+03 0. -1.
</event>
<event>
 4    1  0.5904698E+000  0.1000000E+03  0.7546771E-02  0.1280296E+00
         21   -1    0    0  503  502  0.00000000000E+00  0.00000000000E+00  0.41974848157E+03  0.41974848157E+03  0.00000000000E+00 0. -1.
         21   -1    0    0  501  503 -0.00000000000E+00 -0.00000000000E+00 -0.12079196404E+03  0.12079196404E+03  0.00000000000E+00 0. -1.
          6    1    1    2  501    0  0.66249603927E+02  0.45937898871E+02  0.60758028359E+01  0.19095867604E+03  0.17300000000E+03 0. -1.
         -6    1    1    2    0  502 -0.66249603927E+02 -0.45937898871E+02  0.29288071470E+03  0.34958176957E+03  0.17300000000E+03 0. -1.
</event>
<event>
 4    1  0.5904698E+000  0.1000000E+03  0.7546771E-02  0.1280296E+00
         21   -1    0    0  503  502  0.00000000000E+00  0.00000000000E+00  0.62694557568E+03  0.62694557568E+03  0.00000000000E+00 0. -1.
         21   -1    0    0  501  503 -0.00000000000E+00 -0.00000000000E+00 -0.76803977030E+02  0.76803977030E+02  0.00000000000E+00 0. -1.
          6    1    1    2  501    0 -0.21063364851E+01 -0.14334806002E+00  0.58630986656E+02  0.18267744743E+03  0.17300000000E+03 0. -1.
         -6    1    1    2    0  502  0.21063364851E+01  0.14334806002E+00  0.49151061199E+03  0.52107210528E+03  0.17300000000E+03 0. -1.
</event>
<event>
 4    1  0.5904698E+000  0.1000000E+03  0.7546771E-02  0.1280296E+00
         21   -1    0    0  503  502  0.00000000000E+00  0.00000000000E+00  0.59408831264E+03  0.59408831264E+03  0.00000000000E+00 0.  1.
         21   -1    0    0  501  503 -0.00000000000E+00 -0.00000000000E+00 -0.80888723400E+02  0.80888723400E+02  0.00000000000E+00 0.  1.
          6    1    1    2  501    0  0.74998934169E+02 -0.10923073061E+03  0.29335092985E+03  0.36543119829E+03  0.17300000000E+03 0.  1.
         -6    1    1    2    0  502 -0.74998934169E+02  0.10923073061E+03  0.21984865939E+03  0.30954583775E+03  0.17300000000E+03 0.  1.
</event>
<event>
 4    1  0.5904698E+000  0.1000000E+03  0.7546771E-02  0.1280296E+00
         21   -1    0    0  503  502  0.00000000000E+00  0.00000000000E+00  0.26935086549E+02  0.26935086549E+02  0.00000000000E+00 0. -1.
         21   -1    0    0  501  503 -0.00000000000E+00 -0.00000000000E+00 -0.11257498959E+04  0.11257498959E+04  0.00000000000E+00 0. -1.
          6    1    1    2  501    0 -0.13115379723E+02  0.34223928576E+01 -0.50150741604E+03  0.53068108531E+03  0.17300000000E+03 0. -1.
         -6    1    1    2    0  502  0.13115379723E+02 -0.34223928576E+01 -0.59730739332E+03  0.62200389715E+03  0.17300000000E+03 0. -1.
</event>
<event>
 4    1  0.5904698E+000  0.1000000E+03  0.7546771E-02  0.1280296E+00
         21   -1    0    0  501  502  0.00000000000E+00  0.00000000000E+00  0.11566521070E+03  0.11566521070E+03  0.00000000000E+00 0.  1.
         21   -1    0    0  502  503 -0.00000000000E+00 -0.00000000000E+00 -0.45348313842E+03  0.45348313842E+03  0.00000000000E+00 0.  1.
          6    1    1    2  501    0  0.65264541651E+02 -0.11709791654E+03 -0.25274042671E+03  0.33433232831E+03  0.17300000000E+03 0.  1.
         -6    1    1    2    0  503 -0.65264541651E+02  0.11709791654E+03 -0.85077501001E+02  0.23481602082E+03  0.17300000000E+03 0.  1.
</event>
<event>
 4    1  0.5904698E+000  0.1000000E+03  0.7546771E-02  0.1280296E+00
         21   -1    0    0  501  502  0.00000000000E+00  0.00000000000E+00  0.28362615024E+04  0.28362615024E+04  0.00000000000E+00 0. -1.
         21   -1    0    0  502  503 -0.00000000000E+00 -0.00000000000E+00 -0.13637908596E+02  0.13637908596E+02  0.00000000000E+00 0. -1.
          6    1    1    2  501    0 -0.71929180487E+01 -0.53449692527E+02  0.19651373144E+04  0.19734746697E+04  0.17300000000E+03 0.  1.
         -6    1    1    2    0  503  0.71929180487E+01  0.53449692527E+02  0.85748627945E+03  0.87642474129E+03  0.17300000000E+03 0.  1.
</event>
<event>
 4    1  0.5904698E+000  0.1000000E+03  0.7546771E-02  0.1280296E+00
         21   -1    0    0  501  502  0.00000000000E+00  0.00000000000E+00  0.12495003080E+03  0.12495003080E+03  0.00000000000E+00 0. -1.
         21   -1    0    0  502  503 -0.00000000000E+00 -0.00000000000E+00 -0.45932619737E+03  0.45932619737E+03  0.00000000000E+00 0. -1.
          6    1    1    2  501    0 -0.19115688961E+02  0.50844418914E+02  0.23735663152E+02  0.18287412667E+03  0.17300000000E+03 0.  1.
         -6    1    1    2    0  503  0.19115688961E+02 -0.50844418914E+02 -0.35811182972E+03  0.40140210150E+03  0.17300000000E+03 0.  1.
</event>
<event>
 4    1  0.5904698E+000  0.1000000E+03  0.7546771E-02  0.1280296E+00
         21   -1    0    0  501  502  0.00000000000E+00  0.00000000000E+00  0.32919139851E+03  0.32919139851E+03  0.00000000000E+00 0. -1.
         21   -1    0    0  502  503 -0.00000000000E+00 -0.00000000000E+00 -0.15130755290E+03  0.15130755290E+03  0.00000000000E+00 0.  1.
          6    1    1    2  501    0 -0.39640555895E+02  0.50153094981E+02  0.22422586492E+03  0.29033247339E+03  0.17300000000E+03 0.  1.
         -6    1    1    2    0  503  0.39640555895E+02 -0.50153094981E+02 -0.46342019315E+02  0.19016647802E+03  0.17300000000E+03 0. -1.
</event>
<event>
 4    1  0.5904698E+000  0.1000000E+03  0.7546771E-02  0.1280296E+00
         21   -1    0    0  501  502  0.00000000000E+00  0.00000000000E+00  0.82799461417E+03  0.82799461417E+03  0.00000000000E+00 0.  1.
         21   -1    0    0  502  503 -0.00000000000E+00 -0.00000000000E+00 -0.56118639331E+02  0.56118639331E+02  0.00000000000E+00 0. -1.
          6    1    1    2  501    0 -0.85614928970E+02 -0.91387136047E+02  0.32595931665E+03  0.38969218726E+03  0.17300000000E+03 0.  1.
         -6    1    1    2    0  503  0.85614928970E+02  0.91387136047E+02  0.44591665818E+03  0.49442106624E+03  0.17300000000E+03 0. -1.
</event>
<event>
 4    1  0.5904698E+000  0.1000000E+03  0.7546771E-02  0.1280296E+00
         21   -1    0    0  503  502  0.00000000000E+00  0.00000000000E+00  0.20938013887E+03  0.20938013887E+03  0.00000000000E+00 0.  1.
         21   -1    0    0  501  503 -0.00000000000E+00 -0.00000000000E+00 -0.20330326934E+03  0.20330326934E+03  0.00000000000E+00 0.  1.
          6    1    1    2  501    0 -0.58608323552E+01  0.73460498052E+02 -0.81869962242E+02  0.20509140608E+03  0.17300000000E+03 0.  1.
         -6    1    1    2    0  502  0.58608323552E+01 -0.73460498052E+02  0.87946831771E+02  0.20759200213E+03  0.17300000000E+03 0.  1.
</event>
<event>
 4    1  0.5904698E+000  0.1000000E+03  0.7546771E-02  0.1280296E+00
         21   -1    0    0  503  502  0.00000000000E+00  0.00000000000E+00  0.16300972651E+04  0.16300972651E+04  0.00000000000E+00 0.  1.
         21   -1    0    0  501  503 -0.00000000000E+00 -0.00000000000E+00 -0.30939631826E+02  0.30939631826E+02  0.00000000000E+00 0.  1.
          6    1    1    2  501    0 -0.18335024435E+02 -0.11555675703E+03  0.49426107681E+03  0.53657483100E+03  0.17300000000E+03 0.  1.
         -6    1    1    2    0  502  0.18335024435E+02  0.11555675703E+03  0.11048965565E+04  0.11244620659E+04  0.17300000000E+03 0.  1.
</event>
<event>
 4    1  0.5904698E+000  0.1000000E+03  0.7546771E-02  0.1280296E+00
         21   -1    0    0  503  502  0.00000000000E+00  0.00000000000E+00  0.51964611636E+03  0.51964611636E+03  0.00000000000E+00 0.  1.
         21   -1    0    0  501  503 -0.00000000000E+00 -0.00000000000E+00 -0.85870504147E+02  0.85870504147E+02  0.00000000000E+00 0.  1.
          6    1    1    2  501    0  0.10288032530E+03  0.45379550813E+02  0.15200109889E+03  0.25627524077E+03  0.17300000000E+03 0.  1.
         -6    1    1    2    0  502 -0.10288032530E+03 -0.45379550813E+02  0.28177451332E+03  0.34924137974E+03  0.17300000000E+03 0.  1.
</event>
<event>
 4    1  0.5904698E+000  0.1000000E+03  0.7546771E-02  0.1280296E+00
         21   -1    0    0  503  502  0.00000000000E+00  0.00000000000E+00  0.35102554010E+03  0.35102554010E+03  0.00000000000E+00 0.  1.
         21   -1    0    0  501  503 -0.00000000000E+00 -0.00000000000E+00 -0.25152300053E+03  0.25152300053E+03  0.00000000000E+00 0.  1.
          6    1    1    2  501    0 -0.12751409387E+03  0.13626888987E+03 -0.10578867860E+03  0.27558900378E+03  0.17300000000E+03 0.  1.
         -6    1    1    2    0  502  0.12751409387E+03 -0.13626888987E+03  0.20529121817E+03  0.32695953685E+03  0.17300000000E+03 0.  1.
</event>
<event>
 4    1  0.5904698E+000  0.1000000E+03  0.7546771E-02  0.1280296E+00
         21   -1    0    0  501  502  0.00000000000E+00  0.00000000000E+00  0.69197473467E+03  0.69197473467E+03  0.00000000000E+00 0.  1.
         21   -1    0    0  502  503 -0.00000000000E+00 -0.00000000000E+00 -0.10837382413E+03  0.10837382413E+03  0.00000000000E+00 0.  1.
          6    1    1    2  501    0 -0.11147383234E+03  0.16979076503E+03  0.38197192884E+03  0.46592582415E+03  0.17300000000E+03 0.  1.
         -6    1    1    2    0  503  0.11147383234E+03 -0.16979076503E+03  0.20162898170E+03  0.33442273465E+03  0.17300000000E+03 0.  1.
</event>
<event>
 4    1  0.5904698E+000  0.1000000E+03  0.7546771E-02  0.1280296E+00
         21   -1    0    0  503  502  0.00000000000E+00  0.00000000000E+00  0.15494834543E+03  0.15494834543E+03  0.00000000000E+00 0. -1.
         21   -1    0    0  501  503 -0.00000000000E+00 -0.00000000000E+00 -0.14646431242E+04  0.14646431242E+04  0.00000000000E+00 0. -1.
          6    1    1    2  501    0  0.70366347979E+02  0.12198725660E+03 -0.13703756329E+04  0.13884130109E+04  0.17300000000E+03 0. -1.
         -6    1    1    2    0  502 -0.70366347979E+02 -0.12198725660E+03  0.60680854134E+02  0.23117845868E+03  0.17300000000E+03 0. -1.
</event>
<event>
 4    1  0.5904698E+000  0.1000000E+03  0.7546771E-02  0.1280296E+00
         21   -1    0    0  503  502  0.00000000000E+00  0.00000000000E+00  0.51173833098E+02  0.51173833098E+02  0.00000000000E+00 0. -1.
         21   -1    0    0  501  503 -0.00000000000E+00 -0.00000000000E+00 -0.23048502056E+04  0.23048502056E+04  0.00000000000E+00 0. -1.
          6    1    1    2  501    0 -0.40918230404E+02 -0.62047178819E+02 -0.21120233313E+04  0.21203998929E+04  0.17300000000E+03 0. -1.
         -6    1    1    2    0  502  0.40918230404E+02  0.62047178819E+02 -0.14165304116E+03  0.23562414572E+03  0.17300000000E+03 0. -1.
</event>
<event>
 4    1  0.5904698E+000  0.1000000E+03  0.7546771E-02  0.1280296E+00
         21   -1    0    0  503  502  0.00000000000E+00  0.00000000000E+00  0.67151337050E+03  0.67151337050E+03  0.00000000000E+00 0. -1.
         21   -1    0    0  501  503 -0.00000000000E+00 -0.00000000000E+00 -0.78419576639E+02  0.78419576639E+02  0.00000000000E+00 0. -1.
          6    1    1    2  501    0 -0.42225201392E+02  0.99394675892E+02  0.12463824503E+03  0.23901037918E+03  0.17300000000E+03 0. -1.
         -6    1    1    2    0  502  0.42225201392E+02 -0.99394675892E+02  0.46845554882E+03  0.51092256796E+03  0.17300000000E+03 0. -1.
</event>
<event>
 4    1  0.5904698E+000  0.1000000E+03  0.7546771E-02  0.1280296E+00
         21   -1    0    0  503  502  0.00000000000E+00  0.00000000000E+00  0.12637841668E+03  0.12637841668E+03  0.00000000000E+00 0.  1.
         21   -1    0    0  501  503 -0.00000000000E+00 -0.00000000000E+00 -0.33750108336E+03  0.33750108336E+03  0.00000000000E+00 0. -1.
          6    1    1    2  501    0 -0.23603842094E+02 -0.84162800261E+02 -0.18563237477E+03  0.26838199804E+03  0.17300000000E+03 0. -1.
         -6    1    1    2    0  502  0.23603842094E+02  0.84162800261E+02 -0.25490291911E+02  0.19549750201E+03  0.17300000000E+03 0.  1.
</event>
<event>
 4    1  0.5904698E+000  0.1000000E+03  0.7546771E-02  0.1280296E+00
         21   -1    0    0  503  502  0.00000000000E+00  0.00000000000E+00  0.59144589955E+03  0.59144589955E+03  0.00000000000E+00 0.  1.
         21   -1    0    0  501  503 -0.00000000000E+00 -0.00000000000E+00 -0.51832813262E+02  0.51832813262E+02  0.00000000000E+00 0. -1.
          6    1    1    2  501    0  0.10267579146E+02 -0.21297768745E+02  0.24597598479E+03  0.30164913928E+03  0.17300000000E+03 0. -1.
         -6    1    1    2    0  502 -0.10267579146E+02  0.21297768745E+02  0.29363710150E+03  0.34162957354E+03  0.17300000000E+03 0.  1.
</event>
<event>
 4    1  0.5904698E+000  0.1000000E+03  0.7546771E-02  0.1280296E+00
         21   -1    0    0  503  502  0.00000000000E+00  0.00000000000E+00  0.22759610929E+04  0.22759610929E+04  0.00000000000E+00 0. -1.
         21   -1    0    0  501  503 -0.00000000000E+00 -0.00000000000E+00 -0.20719954116E+02  0.20719954116E+02  0.00000000000E+00 0. -1.
          6    1    1    2  501    0  0.29288769734E+02  0.11125744529E+03  0.79347909309E+03  0.82022809165E+03  0.17300000000E+03 0. -1.
         -6    1    1    2    0  502 -0.29288769734E+02 -0.11125744529E+03  0.14617620457E+04  0.14764529554E+04  0.17300000000E+03 0. -1.
</event>
<event>
 4    1  0.5904698E+000  0.1000000E+03  0.7546771E-02  0.1280296E+00
         21   -1    0    0  503  502  0.00000000000E+00  0.00000000000E+00  0.40737605526E+03  0.40737605526E+03  0.00000000000E+00 0.  1.
         21   -1    0    0  501  503 -0.00000000000E+00 -0.00000000000E+00 -0.95382551963E+02  0.95382551963E+02  0.00000000000E+00 0. -1.
          6    1    1    2  501    0 -0.46610819988E+02 -0.80642986819E+02  0.13576442999E+03  0.23882386881E+03  0.17300000000E+03 0. -1.
         -6    1    1    2    0  502  0.46610819988E+02  0.80642986819E+02  0.17622907331E+03  0.26393473842E+03  0.17300000000E+03 0.  1.
</event>
<event>
 4    1  0.5904698E+000  0.1000000E+03  0.7546771E-02  0.1280296E+00
         21   -1    0    0  503  502  0.00000000000E+00  0.00000000000E+00  0.14043827569E+02  0.14043827569E+02  0.00000000000E+00 0.  1.
         21   -1    0    0  501  503 -0.00000000000E+00 -0.00000000000E+00 -0.25932680652E+04  0.25932680652E+04  0.00000000000E+00 0.  1.
          6    1    1    2  501    0  0.10741118839E+02 -0.78170843241E+02 -0.14006809226E+04  0.14135282450E+04  0.17300000000E+03 0.  1.
         -6    1    1    2    0  502 -0.10741118839E+02  0.78170843241E+02 -0.11785433150E+04  0.11937836478E+04  0.17300000000E+03 0.  1.
</event>
<event>
 4    1  0.5904698E+000  0.1000000E+03  0.7546771E-02  0.1280296E+00
         21   -1    0    0  503  502  0.00000000000E+00  0.00000000000E+00  0.25294710272E+03  0.25294710272E+03  0.00000000000E+00 0.  1.
         21   -1    0    0  501  503 -0.00000000000E+00 -0.00000000000E+00 -0.39634745304E+03  0.39634745304E+03  0.00000000000E+00 0.  1.
          6    1    1    2  501    0 -0.23616309419E+03 -0.73284481301E+02 -0.16995073455E+03  0.34634646588E+03  0.17300000000E+03 0.  1.
         -6    1    1    2    0  502  0.23616309419E+03  0.73284481301E+02  0.26550384229E+02  0.30294808987E+03  0.17300000000E+03 0.  1.
</event>
<event>
 4    1  0.5904698E+000  0.1000000E+03  0.7546771E-02  0.1280296E+00
         21   -1    0    0  503  502  0.00000000000E+00  0.00000000000E+00  0.16450794202E+04  0.16450794202E+04  0.00000000000E+00 0.  1.
         21   -1    0    0  501  503 -0.00000000000E+00 -0.00000000000E+00 -0.40822341549E+02  0.40822341549E+02  0.00000000000E+00 0.  1.
          6    1    1    2  501    0  0.14134938795E+03  0.78424297190E+02  0.45946952254E+03  0.51688612092E+03  0.17300000000E+03 0.  1.
         -6    1    1    2    0  502 -0.14134938795E+03 -0.78424297190E+02  0.11447875561E+04  0.11690156408E+04  0.17300000000E+03 0.  1.
</event>
<event>
 4    1  0.5904698E+000  0.1000000E+03  0.7546771E-02  0.1280296E+00
         21   -1    0    0  503  502  0.00000000000E+00  0.00000000000E+00  0.12004503406E+03  0.12004503406E+03  0.00000000000E+00 0. -1.
         21   -1    0    0  501  503 -0.00000000000E+00 -0.00000000000E+00 -0.35991667770E+03  0.35991667770E+03  0.00000000000E+00 0. -1.
          6    1    1    2  501    0  0.69379851692E+01  0.33559695416E+01 -0.25267016110E+03  0.30631782266E+03  0.17300000000E+03 0. -1.
         -6    1    1    2    0  502 -0.69379851692E+01 -0.33559695416E+01  0.12798517467E+02  0.17364388909E+03  0.17300000000E+03 0. -1.
</event>
<event>
 4    1  0.5904698E+000  0.1000000E+03  0.7546771E-02  0.1280296E+00
         21   -1    0    0  503  502  0.00000000000E+00  0.00000000000E+00  0.57899366423E+02  0.57899366423E+02  0.00000000000E+00 0. -1.
         21   -1    0    0  501  503 -0.00000000000E+00 -0.00000000000E+00 -0.11794514851E+04  0.11794514851E+04  0.00000000000E+00 0. -1.
          6    1    1    2  501    0  0.18593198847E+03 -0.90613800724E+00 -0.70650520041E+03  0.75076635755E+03  0.17300000000E+03 0. -1.
         -6    1    1    2    0  502 -0.18593198847E+03  0.90613800724E+00 -0.41504691832E+03  0.48658449403E+03  0.17300000000E+03 0. -1.
</event>
<event>
 4    1  0.5904698E+000  0.1000000E+03  0.7546771E-02  0.1280296E+00
         21   -1    0    0  503  502  0.00000000000E+00  0.00000000000E+00  0.21368751502E+03  0.21368751502E+03  0.00000000000E+00 0. -1.
         21   -1    0    0  501  503 -0.00000000000E+00 -0.00000000000E+00 -0.32638185686E+03  0.32638185686E+03  0.00000000000E+00 0. -1.
          6    1    1    2  501    0 -0.47655270313E+02 -0.96403481733E+02 -0.22820794062E+03  0.30589625732E+03  0.17300000000E+03 0. -1.
         -6    1    1    2    0  502  0.47655270313E+02  0.96403481733E+02  0.11551359878E+03  0.23417311456E+03  0.17300000000E+03 0. -1.
</event>
<event>
 4    1  0.5904698E+000  0.1000000E+03  0.7546771E-02  0.1280296E+00
         21   -1    0    0  503  502  0.00000000000E+00  0.00000000000E+00  0.21630722776E+04  0.21630722776E+04  0.00000000000E+00 0. -1.
         21   -1    0    0  501  503 -0.00000000000E+00 -0.00000000000E+00 -0.86967382554E+02  0.86967382554E+02  0.00000000000E+00 0. -1.
          6    1    1    2  501    0  0.27656469797E+03  0.18149301840E+03  0.46528510217E+03  0.59652910590E+03  0.17300000000E+03 0. -1.
         -6    1    1    2    0  502 -0.27656469797E+03 -0.18149301840E+03  0.16108197928E+04  0.16535105542E+04  0.17300000000E+03 0. -1.
</event>
<event>
 4    1  0.5904698E+000  0.1000000E+03  0.7546771E-02  0.1280296E+00
         21   -1    0    0  503  502  0.00000000000E+00  0.00000000000E+00  0.12569023345E+03  0.12569023345E+03  0.00000000000E+00 0. -1.
         21   -1    0    0  501  503 -0.00000000000E+00 -0.00000000000E+00 -0.51283286806E+03  0.51283286806E+03  0.00000000000E+00 0. -1.
          6    1    1    2  501    0  0.36114741427E+02 -0.75041106749E+02 -0.40245880596E+03  0.44591202355E+03  0.17300000000E+03 0. -1.
         -6    1    1    2    0  502 -0.36114741427E+02  0.75041106749E+02  0.15316171353E+02  0.19261107797E+03  0.17300000000E+03 0. -1.
</event>
<event>
 4    1  0.5904698E+000  0.1000000E+03  0.7546771E-02  0.1280296E+00
         21   -1    0    0  501  502  0.00000000000E+00  0.00000000000E+00  0.24872024987E+03  0.24872024987E+03  0.00000000000E+00 0.  1.
         21   -1    0    0  502  503 -0.00000000000E+00 -0.00000000000E+00 -0.49424075277E+03  0.49424075277E+03  0.00000000000E+00 0.  1.
          6    1    1    2  501    0 -0.18119146695E+03  0.14206389419E+03  0.89108137343E+02  0.30146601445E+03  0.17300000000E+03 0.  1.
         -6    1    1    2    0  503  0.18119146695E+03 -0.14206389419E+03 -0.33462864024E+03  0.44149498819E+03  0.17300000000E+03 0.  1.
</event>
<event>
 4    1  0.5904698E+000  0.1000000E+03  0.7546771E-02  0.1280296E+00
         21   -1    0    0  501  502  0.00000000000E+00  0.00000000000E+00  0.22867666779E+03  0.22867666779E+03  0.00000000000E+00 0.  1.
         21   -1    0    0  502  503 -0.00000000000E+00 -0.00000000000E+00 -0.33791674515E+03  0.33791674515E+03  0.00000000000E+00 0.  1.
          6    1    1    2  501    0 -0.10332488611E+03 -0.92945148006E+02  0.11600237099E+03  0.25040044469E+03  0.17300000000E+03 0.  1.
         -6    1    1    2    0  503  0.10332488611E+03  0.92945148006E+02 -0.22524244836E+03  0.31619296825E+03  0.17300000000E+03 0.  1.
</event>
<event>
 4    1  0.5904698E+000  0.1000000E+03  0.7546771E-02  0.1280296E+00
         21   -1    0    0  503  502  0.00000000000E+00  0.00000000000E+00  0.19473450663E+03  0.19473450663E+03  0.00000000000E+00 0.  1.
         21   -1    0    0  501  503 -0.00000000000E+00 -0.00000000000E+00 -0.19405441566E+03  0.19405441566E+03  0.00000000000E+00 0.  1.
          6    1    1    2  501    0  0.82698152101E+02  0.51010628952E+01 -0.31204981595E+02  0.19433928085E+03  0.17300000000E+03 0.  1.
         -6    1    1    2    0  502 -0.82698152101E+02 -0.51010628952E+01  0.31885072563E+02  0.19444964144E+03  0.17300000000E+03 0.  1.
</event>
<event>
 4    1  0.5904698E+000  0.1000000E+03  0.7546771E-02  0.1280296E+00
         21   -1    0    0  503  502  0.00000000000E+00  0.00000000000E+00  0.10636933721E+03  0.10636933721E+03  0.00000000000E+00 0.  1.
         21   -1    0    0  501  503 -0.00000000000E+00 -0.00000000000E+00 -0.39525741313E+03  0.39525741313E+03  0.00000000000E+00 0.  1.
          6    1    1    2  501    0 -0.10999793492E+02 -0.62100744479E+02 -0.25478290094E+03  0.31435779700E+03  0.17300000000E+03 0.  1.
         -6    1    1    2    0  502  0.10999793492E+02  0.62100744479E+02 -0.34105174977E+02  0.18726895333E+03  0.17300000000E+03 0.  1.
</event>
<event>
 4    1  0.5904698E+000  0.1000000E+03  0.7546771E-02  0.1280296E+00
         21   -1    0    0  501  502  0.00000000000E+00  0.00000000000E+00  0.56077767340E+03  0.56077767340E+03  0.00000000000E+00 0. -1.
         21   -1    0    0  502  503 -0.00000000000E+00 -0.00000000000E+00 -0.34729176893E+03  0.34729176893E+03  0.00000000000E+00 0.  1.
          6    1    1    2  501    0 -0.27628884334E+03 -0.16732737236E+03  0.35978345098E+03  0.51352420206E+03  0.17300000000E+03 0. -1.
         -6    1    1    2    0  503  0.27628884334E+03  0.16732737236E+03 -0.14629754652E+03  0.39454524026E+03  0.17300000000E+03 0.  1.
</event>
<event>
 4    1  0.5904698E+000  0.1000000E+03  0.7546771E-02  0.1280296E+00
         21   -1    0    0  503  502  0.00000000000E+00  0.00000000000E+00  0.74733359608E+02  0.74733359608E+02  0.00000000000E+00 0.  1.
         21   -1    0    0  501  503 -0.00000000000E+00 -0.00000000000E+00 -0.57132127005E+03  0.57132127005E+03  0.00000000000E+00 0. -1.
          6    1    1    2  501    0 -0.58202537770E+02  0.74600683560E+02 -0.34485163527E+03  0.39724607958E+03  0.17300000000E+03 0.  1.
         -6    1    1    2    0  502  0.58202537770E+02 -0.74600683560E+02 -0.15173627517E+03  0.24880855008E+03  0.17300000000E+03 0. -1.
</event>
<event>
 4    1  0.5904698E+000  0.1000000E+03  0.7546771E-02  0.1280296E+00
         21   -1    0    0  503  502  0.00000000000E+00  0.00000000000E+00  0.17815450964E+03  0.17815450964E+03  0.00000000000E+00 0.  1.
         21   -1    0    0  501  503 -0.00000000000E+00 -0.00000000000E+00 -0.41181660020E+03  0.41181660020E+03  0.00000000000E+00 0.  1.
          6    1    1    2  501    0 -0.16010956317E+03 -0.12801199264E+03 -0.75852379938E+02  0.27875567442E+03  0.17300000000E+03 0.  1.
         -6    1    1    2    0  502  0.16010956317E+03  0.12801199264E+03 -0.15780971061E+03  0.31121543542E+03  0.17300000000E+03 0.  1.
</event>
<event>
 4    1  0.5904698E+000  0.1000000E+03  0.7546771E-02  0.1280296E+00
         21   -1    0    0  503  502  0.00000000000E+00  0.00000000000E+00  0.93140781665E+03  0.93140781665E+03  0.00000000000E+00 0.  1.
         21   -1    0    0  501  503 -0.00000000000E+00 -0.00000000000E+00 -0.37335440580E+02  0.37335440580E+02  0.00000000000E+00 0. -1.
          6    1    1    2  501    0  0.39330183456E+02 -0.11657490997E+02  0.30095937374E+03  0.34955443792E+03  0.17300000000E+03 0.  1.
         -6    1    1    2    0  502 -0.39330183456E+02  0.11657490997E+02  0.59311300233E+03  0.61918881931E+03  0.17300000000E+03 0. -1.
</event>
<event>
 4    1  0.5904698E+000  0.1000000E+03  0.7546771E-02  0.1280296E+00
         21   -1    0    0  503  502  0.00000000000E+00  0.00000000000E+00  0.38791626916E+03  0.38791626916E+03  0.00000000000E+00 0.  1.
         21   -1    0    0  501  503 -0.00000000000E+00 -0.00000000000E+00 -0.18025601505E+03  0.18025601505E+03  0.00000000000E+00 0. -1.
          6    1    1    2  501    0  0.63820008757E+02 -0.10106996183E+03 -0.68421287975E+02  0.22113028592E+03  0.17300000000E+03 0.  1.
         -6    1    1    2    0  502 -0.63820008757E+02  0.10106996183E+03  0.27608154208E+03  0.34704199829E+03  0.17300000000E+03 0. -1.
</event>
<event>
 4    1  0.5904698E+000  0.1000000E+03  0.7546771E-02  0.1280296E+00
         21   -1    0    0  503  502  0.00000000000E+00  0.00000000000E+00  0.37632346543E+03  0.37632346543E+03  0.00000000000E+00 0. -1.
         21   -1    0    0  501  503 -0.00000000000E+00 -0.00000000000E+00 -0.13520380719E+03  0.13520380719E+03  0.00000000000E+00 0. -1.
          6    1    1    2  501    0  0.27026630746E+02  0.13485550436E+03  0.17170884681E+03  0.27987385354E+03  0.17300000000E+03 0. -1.
         -6    1    1    2    0  502 -0.27026630746E+02 -0.13485550436E+03  0.69410811428E+02  0.23165341907E+03  0.17300000000E+03 0. -1.
</event>
<event>
 4    1  0.5904698E+000  0.1000000E+03  0.7546771E-02  0.1280296E+00
         21   -1    0    0  503  502  0.00000000000E+00  0.00000000000E+00  0.44450231104E+03  0.44450231104E+03  0.00000000000E+00 0. -1.
         21   -1    0    0  501  503 -0.00000000000E+00 -0.00000000000E+00 -0.12460680868E+03  0.12460680868E+03  0.00000000000E+00 0. -1.
          6    1    1    2  501    0 -0.47414906135E+02  0.14256639152E+03  0.94997532826E+02  0.24804612587E+03  0.17300000000E+03 0. -1.
         -6    1    1    2    0  502  0.47414906135E+02 -0.14256639152E+03  0.22489796954E+03  0.32106299385E+03  0.17300000000E+03 0. -1.
</event>
<event>
 4    1  0.5904698E+000  0.1000000E+03  0.7546771E-02  0.1280296E+00
         21   -1    0    0  501  502  0.00000000000E+00  0.00000000000E+00  0.16813595475E+03  0.16813595475E+03  0.00000000000E+00 0. -1.
         21   -1    0    0  502  503 -0.00000000000E+00 -0.00000000000E+00 -0.39763555682E+03  0.39763555682E+03  0.00000000000E+00 0.  1.
          6    1    1    2  501    0  0.79104057983E+00 -0.59907152854E+02  0.85010953870E+02  0.20185478688E+03  0.17300000000E+03 0. -1.
         -6    1    1    2    0  503 -0.79104057983E+00  0.59907152854E+02 -0.31451055594E+03  0.36391672469E+03  0.17300000000E+03 0.  1.
</event>
<event>
 4    1  0.5904698E+000  0.1000000E+03  0.7546771E-02  0.1280296E+00
         21   -1    0    0  501  502  0.00000000000E+00  0.00000000000E+00  0.15710389695E+03  0.15710389695E+03  0.00000000000E+00 0. -1.
         21   -1    0    0  502  503 -0.00000000000E+00 -0.00000000000E+00 -0.36713466444E+03  0.36713466444E+03  0.00000000000E+00 0.  1.
          6    1    1    2  501    0 -0.75577869399E+02 -0.19058155656E+02  0.55665020881E+02  0.19774433542E+03  0.17300000000E+03 0. -1.
         -6    1    1    2    0  503  0.75577869399E+02  0.19058155656E+02 -0.26569578836E+03  0.32649422597E+03  0.17300000000E+03 0.  1.
</event>
<event>
 4    1  0.5904698E+000  0.1000000E+03  0.7546771E-02  0.1280296E+00
         21   -1    0    0  503  502  0.00000000000E+00  0.00000000000E+00  0.74573679194E+03  0.74573679194E+03  0.00000000000E+00 0.  1.
         21   -1    0    0  501  503 -0.00000000000E+00 -0.00000000000E+00 -0.14292863202E+03  0.14292863202E+03  0.00000000000E+00 0. -1.
          6    1    1    2  501    0  0.45915888528E+02  0.68530874163E+02 -0.58303531309E+02  0.20033235210E+03  0.17300000000E+03 0.  1.
         -6    1    1    2    0  502 -0.45915888528E+02 -0.68530874163E+02  0.66111169123E+03  0.68833307186E+03  0.17300000000E+03 0. -1.
</event>
<event>
 4    1  0.5904698E+000  0.1000000E+03  0.7546771E-02  0.1280296E+00
         21   -1    0    0  501  502  0.00000000000E+00  0.00000000000E+00  0.56363802271E+02  0.56363802271E+02  0.00000000000E+00 0.  1.
         21   -1    0    0  502  503 -0.00000000000E+00 -0.00000000000E+00 -0.12842718969E+04  0.12842718969E+04  0.00000000000E+00 0. -1.
          6    1    1    2  501    0  0.12204232098E+03 -0.16326947642E+03 -0.53895365837E+03  0.60162388243E+03  0.17300000000E+03 0.  1.
         -6    1    1    2    0  503 -0.12204232098E+03  0.16326947642E+03 -0.68895443628E+03  0.73901181676E+03  0.17300000000E+03 0. -1.
</event>
<event>
 4    1  0.5904698E+000  0.1000000E+03  0.7546771E-02  0.1280296E+00
         21   -1    0    0  501  502  0.00000000000E+00  0.00000000000E+00  0.74550959187E+02  0.74550959187E+02  0.00000000000E+00 0.  1.
         21   -1    0    0  502  503 -0.00000000000E+00 -0.00000000000E+00 -0.69292345174E+03  0.69292345174E+03  0.00000000000E+00 0. -1.
          6    1    1    2  501    0 -0.20055966315E+02  0.32317943184E+02 -0.68736395686E+02  0.19000100876E+03  0.17300000000E+03 0.  1.
         -6    1    1    2    0  503  0.20055966315E+02 -0.32317943184E+02 -0.54963609687E+03  0.57747340217E+03  0.17300000000E+03 0. -1.
</event>
<event>
 4    1  0.5904698E+000  0.1000000E+03  0.7546771E-02  0.1280296E+00
         21   -1    0    0  501  502  0.00000000000E+00  0.00000000000E+00  0.22677766130E+03  0.22677766130E+03  0.00000000000E+00 0.  1.
         21   -1    0    0  502  503 -0.00000000000E+00 -0.00000000000E+00 -0.22037642371E+03  0.22037642371E+03  0.00000000000E+00 0. -1.
          6    1    1    2  501    0 -0.53444536026E+02 -0.10053062104E+03  0.87380057927E+02  0.22478211388E+03  0.17300000000E+03 0.  1.
         -6    1    1    2    0  503  0.53444536026E+02  0.10053062104E+03 -0.80978820339E+02  0.22237197112E+03  0.17300000000E+03 0. -1.
</event>
<event>
 4    1  0.5904698E+000  0.1000000E+03  0.7546771E-02  0.1280296E+00
         21   -1    0    0  501  502  0.00000000000E+00  0.00000000000E+00  0.32345567262E+03  0.32345567262E+03  0.00000000000E+00 0.  1.
         21   -1    0    0  502  503 -0.00000000000E+00 -0.00000000000E+00 -0.51708990639E+03  0.51708990639E+03  0.00000000000E+00 0. -1.
          6    1    1    2  501    0  0.94945120939E+02  0.65761769410E+02  0.26503387550E+03  0.33691414555E+03  0.17300000000E+03 0.  1.
         -6    1    1    2    0  503 -0.94945120939E+02 -0.65761769410E+02 -0.45866810927E+03  0.50363143346E+03  0.17300000000E+03 0. -1.
</event>
<event>
 4    1  0.5904698E+000  0.1000000E+03  0.7546771E-02  0.1280296E+00
         21   -1    0    0  501  502  0.00000000000E+00  0.00000000000E+00  0.60147318816E+02  0.60147318816E+02  0.00000000000E+00 0.  1.
         21   -1    0    0  502  503 -0.00000000000E+00 -0.00000000000E+00 -0.11803907414E+04  0.11803907414E+04  0.00000000000E+00 0. -1.
          6    1    1    2  501    0 -0.15759633702E+03 -0.66868583027E+02 -0.30767557190E+03  0.39230252405E+03  0.17300000000E+03 0.  1.
         -6    1    1    2    0  503  0.15759633702E+03  0.66868583027E+02 -0.81256785070E+03  0.84823553617E+03  0.17300000000E+03 0. -1.
</event>
<event>
 4    1  0.5904698E+000  0.1000000E+03  0.7546771E-02  0.1280296E+00
         21   -1    0    0  503  502  0.00000000000E+00  0.00000000000E+00  0.26458801692E+03  0.26458801692E+03  0.00000000000E+00 0. -1.
         21   -1    0    0  501  503 -0.00000000000E+00 -0.00000000000E+00 -0.29718949083E+03  0.29718949083E+03  0.00000000000E+00 0.  1.
          6    1    1    2  501    0 -0.30958540250E+02 -0.51902777678E+02 -0.22891232007E+03  0.29322718125E+03  0.17300000000E+03 0. -1.
         -6    1    1    2    0  502  0.30958540250E+02  0.51902777678E+02  0.19631084615E+03  0.26855032650E+03  0.17300000000E+03 0.  1.
</event>
<event>
 4    1  0.5904698E+000  0.1000000E+03  0.7546771E-02  0.1280296E+00
         21   -1    0    0  503  502  0.00000000000E+00  0.00000000000E+00  0.43251357553E+02  0.43251357553E+02  0.00000000000E+00 0. -1.
         21   -1    0    0  501  503 -0.00000000000E+00 -0.00000000000E+00 -0.72137699456E+03  0.72137699456E+03  0.00000000000E+00 0.  1.
          6    1    1    2  501    0  0.87858297605E+01 -0.25050553214E+02 -0.39059273073E+03  0.42801448844E+03  0.17300000000E+03 0. -1.
         -6    1    1    2    0  502 -0.87858297605E+01  0.25050553214E+02 -0.28753290628E+03  0.33661386367E+03  0.17300000000E+03 0.  1.
</event>
<event>
 4    1  0.5904698E+000  0.1000000E+03  0.7546771E-02  0.1280296E+00
         21   -1    0    0  503  502  0.00000000000E+00  0.00000000000E+00  0.11749393481E+04  0.11749393481E+04  0.00000000000E+00 0. -1.
         21   -1    0    0  501  503 -0.00000000000E+00 -0.00000000000E+00 -0.11287419939E+03  0.11287419939E+03  0.00000000000E+00 0.  1.
          6    1    1    2  501    0  0.17561799813E+03 -0.41928994529E+02  0.62919290028E+02  0.25785181579E+03  0.17300000000E+03 0. -1.
         -6    1    1    2    0  502 -0.17561799813E+03  0.41928994529E+02  0.99914585867E+03  0.10299617317E+04  0.17300000000E+03 0.  1.
</event>
<event>
 4    1  0.5904698E+000  0.1000000E+03  0.7546771E-02  0.1280296E+00
         21   -1    0    0  503  502  0.00000000000E+00  0.00000000000E+00  0.13258948164E+04  0.13258948164E+04  0.00000000000E+00 0. -1.
         21   -1    0    0  501  503 -0.00000000000E+00 -0.00000000000E+00 -0.37975229139E+02  0.37975229139E+02  0.00000000000E+00 0.  1.
          6    1    1    2  501    0 -0.88327109416E+02  0.46117266507E+02  0.33264329030E+03  0.38795494469E+03  0.17300000000E+03 0. -1.
         -6    1    1    2    0  502  0.88327109416E+02 -0.46117266507E+02  0.95527629697E+03  0.97591510085E+03  0.17300000000E+03 0.  1.
</event>
<event>
 4    1  0.5904698E+000  0.1000000E+03  0.7546771E-02  0.1280296E+00
         21   -1    0    0  503  502  0.00000000000E+00  0.00000000000E+00  0.77345761777E+02  0.77345761777E+02  0.00000000000E+00 0. -1.
         21   -1    0    0  501  503 -0.00000000000E+00 -0.00000000000E+00 -0.80870744307E+03  0.80870744307E+03  0.00000000000E+00 0.  1.
          6    1    1    2  501    0  0.16809811144E+03 -0.57621960376E+02 -0.42291169972E+03  0.49026581682E+03  0.17300000000E+03 0. -1.
         -6    1    1    2    0  502 -0.16809811144E+03  0.57621960376E+02 -0.30844998158E+03  0.39578738803E+03  0.17300000000E+03 0.  1.
</event>
<event>
 4    1  0.5904698E+000  0.1000000E+03  0.7546771E-02  0.1280296E+00
         21   -1    0    0  503  502  0.00000000000E+00  0.00000000000E+00  0.23800277233E+03  0.23800277233E+03  0.00000000000E+00 0. -1.
         21   -1    0    0  501  503 -0.00000000000E+00 -0.00000000000E+00 -0.46016928895E+03  0.46016928895E+03  0.00000000000E+00 0. -1.
          6    1    1    2  501    0 -0.94351389804E+02 -0.72120504137E+02 -0.38102302893E+03  0.43498402321E+03  0.17300000000E+03 0. -1.
         -6    1    1    2    0  502  0.94351389804E+02  0.72120504137E+02  0.15885651231E+03  0.26318803806E+03  0.17300000000E+03 0. -1.
</event>
<event>
 4    1  0.5904698E+000  0.1000000E+03  0.7546771E-02  0.1280296E+00
         21   -1    0    0  501  502  0.00000000000E+00  0.00000000000E+00  0.24600212524E+02  0.24600212524E+02  0.00000000000E+00 0. -1.
         21   -1    0    0  502  503 -0.00000000000E+00 -0.00000000000E+00 -0.14035137495E+04  0.14035137495E+04  0.00000000000E+00 0. -1.
          6    1    1    2  501    0 -0.33244854634E+02  0.58246264452E+02 -0.65104948604E+03  0.67697288052E+03  0.17300000000E+03 0. -1.
         -6    1    1    2    0  503  0.33244854634E+02 -0.58246264452E+02 -0.72786405090E+03  0.75114108147E+03  0.17300000000E+03 0. -1.
</event>
<event>
 4    1  0.5904698E+000  0.1000000E+03  0.7546771E-02  0.1280296E+00
         21   -1    0    0  501  502  0.00000000000E+00  0.00000000000E+00  0.14626799019E+03  0.14626799019E+03  0.00000000000E+00 0. -1.
         21   -1    0    0  502  503 -0.00000000000E+00 -0.00000000000E+00 -0.25402592576E+03  0.25402592576E+03  0.00000000000E+00 0. -1.
          6    1    1    2  501    0 -0.70652458253E+01  0.67337411294E+02 -0.50218003618E+00  0.18577808494E+03  0.17300000000E+03 0. -1.
         -6    1    1    2    0  503  0.70652458253E+01 -0.67337411294E+02 -0.10725575554E+03  0.21451583101E+03  0.17300000000E+03 0. -1.
</event>
<event>
 4    1  0.5904698E+000  0.1000000E+03  0.7546771E-02  0.1280296E+00
         21   -1    0    0  501  502  0.00000000000E+00  0.00000000000E+00  0.12293158785E+03  0.12293158785E+03  0.00000000000E+00 0. -1.
         21   -1    0    0  502  503 -0.00000000000E+00 -0.00000000000E+00 -0.47951667511E+03  0.47951667511E+03  0.00000000000E+00 0. -1.
          6    1    1    2  501    0 -0.12148793888E+03 -0.10697231291E+03 -0.11245106624E+03  0.26225300250E+03  0.17300000000E+03 0. -1.
         -6    1    1    2    0  503  0.12148793888E+03  0.10697231291E+03 -0.24413402102E+03  0.34019526047E+03  0.17300000000E+03 0. -1.
</event>
<event>
 4    1  0.5904698E+000  0.1000000E+03  0.7546771E-02  0.1280296E+00
         21   -1    0    0  501  502  0.00000000000E+00  0.00000000000E+00  0.10238475070E+03  0.10238475070E+03  0.00000000000E+00 0. -1.
         21   -1    0    0  502  503 -0.00000000000E+00 -0.00000000000E+00 -0.49423969767E+03  0.49423969767E+03  0.00000000000E+00 0.  1.
          6    1    1    2  501    0 -0.11993657247E+03  0.69369563073E+02 -0.14496748224E+03  0.26484238445E+03  0.17300000000E+03 0.  1.
         -6    1    1    2    0  503  0.11993657247E+03 -0.69369563073E+02 -0.24688746474E+03  0.33178206392E+03  0.17300000000E+03 0. -1.
</event>
<event>
 4    1  0.5904698E+000  0.1000000E+03  0.7546771E-02  0.1280296E+00
         21   -1    0    0  501  502  0.00000000000E+00  0.00000000000E+00  0.14787966586E+03  0.14787966586E+03  0.00000000000E+00 0.  1.
         21   -1    0    0  502  503 -0.00000000000E+00 -0.00000000000E+00 -0.22563524683E+03  0.22563524683E+03  0.00000000000E+00 0. -1.
          6    1    1    2  501    0 -0.29605930806E+01  0.79759947303E+01  0.20434400724E+02  0.17441028162E+03  0.17300000000E+03 0.  1.
         -6    1    1    2    0  503  0.29605930806E+01 -0.79759947303E+01 -0.98189981696E+02  0.19910463106E+03  0.17300000000E+03 0. -1.
</event>
<event>
 4    1  0.5904698E+000  0.1000000E+03  0.7546771E-02  0.1280296E+00
         21   -1    0    0  501  502  0.00000000000E+00  0.00000000000E+00  0.61499081439E+03  0.61499081439E+03  0.00000000000E+00 0.  1.
         21   -1    0    0  502  503 -0.00000000000E+00 -0.00000000000E+00 -0.86094456766E+02  0.86094456766E+02  0.00000000000E+00 0. -1.
          6    1    1    2  501    0  0.10142530045E+03  0.10521333700E+03  0.32654238852E+03  0.39738629739E+03  0.17300000000E+03 0.  1.
         -6    1    1    2    0  503 -0.10142530045E+03 -0.10521333700E+03  0.20235396910E+03  0.30369897377E+03  0.17300000000E+03 0. -1.
</event>
<event>
 4    1  0.5904698E+000  0.1000000E+03  0.7546771E-02  0.1280296E+00
         21   -1    0    0  503  502  0.00000000000E+00  0.00000000000E+00  0.11585871532E+03  0.11585871532E+03  0.00000000000E+00 0.  1.
         21   -1    0    0  501  503 -0.00000000000E+00 -0.00000000000E+00 -0.43892091378E+03  0.43892091378E+03  0.00000000000E+00 0.  1.
          6    1    1    2  501    0 -0.61433278833E+02  0.13083619211E+03 -0.15461019277E+03  0.27335959581E+03  0.17300000000E+03 0.  1.
         -6    1    1    2    0  502  0.61433278833E+02 -0.13083619211E+03 -0.16845200570E+03  0.28142003329E+03  0.17300000000E+03 0.  1.
</event>
<event>
 4    1  0.5904698E+000  0.1000000E+03  0.7546771E-02  0.1280296E+00
         21   -1    0    0  503  502  0.00000000000E+00  0.00000000000E+00  0.12766055235E+04  0.12766055235E+04  0.00000000000E+00 0. -1.
         21   -1    0    0  501  503 -0.00000000000E+00 -0.00000000000E+00 -0.90488248663E+02  0.90488248663E+02  0.00000000000E+00 0. -1.
          6    1    1    2  501    0  0.24734841764E+03  0.45015878698E+01  0.27898920791E+03  0.41105411095E+03  0.17300000000E+03 0.  1.
         -6    1    1    2    0  502 -0.24734841764E+03 -0.45015878698E+01  0.90712806693E+03  0.95603966121E+03  0.17300000000E+03 0.  1.
</event>
<event>
 4    1  0.5904698E+000  0.1000000E+03  0.7546771E-02  0.1280296E+00
         21   -1    0    0  503  502  0.00000000000E+00  0.00000000000E+00  0.25079544258E+03  0.25079544258E+03  0.00000000000E+00 0. -1.
         21   -1    0    0  501  503 -0.00000000000E+00 -0.00000000000E+00 -0.12925817804E+03  0.12925817804E+03  0.00000000000E+00 0. -1.
          6    1    1    2  501    0 -0.48062401253E+01  0.42538212045E+02  0.87795725880E+02  0.19866979869E+03  0.17300000000E+03 0.  1.
         -6    1    1    2    0  502  0.48062401253E+01 -0.42538212045E+02  0.33741538656E+02  0.18138382193E+03  0.17300000000E+03 0.  1.
</event>
<event>
 4    1  0.5904698E+000  0.1000000E+03  0.7546771E-02  0.1280296E+00
         21   -1    0    0  503  502  0.00000000000E+00  0.00000000000E+00  0.67547079664E+02  0.67547079664E+02  0.00000000000E+00 0. -1.
         21   -1    0    0  501  503 -0.00000000000E+00 -0.00000000000E+00 -0.17350069459E+04  0.17350069459E+04  0.00000000000E+00 0. -1.
          6    1    1    2  501    0  0.19274655153E+03 -0.19731683425E+03 -0.11121078250E+04  0.11587916036E+04  0.17300000000E+03 0.  1.
         -6    1    1    2    0  502 -0.19274655153E+03  0.19731683425E+03 -0.55535204131E+03  0.64376242201E+03  0.17300000000E+03 0.  1.
</event>
<event>
 4    1  0.5904698E+000  0.1000000E+03  0.7546771E-02  0.1280296E+00
         21   -1    0    0  503  502  0.00000000000E+00  0.00000000000E+00  0.26056792161E+03  0.26056792161E+03  0.00000000000E+00 0. -1.
         21   -1    0    0  501  503 -0.00000000000E+00 -0.00000000000E+00 -0.42018105811E+03  0.42018105811E+03  0.00000000000E+00 0. -1.
          6    1    1    2  501    0  0.47824861972E+02  0.74377524241E+02 -0.35532542415E+03  0.40497455547E+03  0.17300000000E+03 0.  1.
         -6    1    1    2    0  502 -0.47824861972E+02 -0.74377524241E+02  0.19571228764E+03  0.27577442425E+03  0.17300000000E+03 0.  1.
</event>
<event>
 4    1  0.5904698E+000  0.1000000E+03  0.7546771E-02  0.1280296E+00
         21   -1    0    0  503  502  0.00000000000E+00  0.00000000000E+00  0.19662985279E+04  0.19662985279E+04  0.00000000000E+00 0. -1.
         21   -1    0    0  501  503 -0.00000000000E+00 -0.00000000000E+00 -0.47595065061E+02  0.47595065061E+02  0.00000000000E+00 0. -1.
          6    1    1    2  501    0  0.79834432736E+02 -0.42499434386E+02  0.18407141345E+03  0.26831143066E+03  0.17300000000E+03 0.  1.
         -6    1    1    2    0  502 -0.79834432736E+02  0.42499434386E+02  0.17346320494E+04  0.17455821623E+04  0.17300000000E+03 0.  1.
</event>
<event>
 4    1  0.5904698E+000  0.1000000E+03  0.7546771E-02  0.1280296E+00
         21   -1    0    0  501  502  0.00000000000E+00  0.00000000000E+00  0.74293325626E+03  0.74293325626E+03  0.00000000000E+00 0. -1.
         21   -1    0    0  502  503 -0.00000000000E+00 -0.00000000000E+00 -0.65839724650E+02  0.65839724650E+02  0.00000000000E+00 0. -1.
          6    1    1    2  501    0  0.11136925472E+02  0.10048981444E+03  0.50971030431E+03  0.54768223290E+03  0.17300000000E+03 0. -1.
         -6    1    1    2    0  503 -0.11136925472E+02 -0.10048981444E+03  0.16738322730E+03  0.26109074801E+03  0.17300000000E+03 0. -1.
</event>
<event>
 4    1  0.5904698E+000  0.1000000E+03  0.7546771E-02  0.1280296E+00
         21   -1    0    0  501  502  0.00000000000E+00  0.00000000000E+00  0.11414598663E+04  0.11414598663E+04  0.00000000000E+00 0. -1.
         21   -1    0    0  502  503 -0.00000000000E+00 -0.00000000000E+00 -0.92666122408E+02  0.92666122408E+02  0.00000000000E+00 0. -1.
          6    1    1    2  501    0 -0.88737196964E+02  0.18106884970E+02  0.10178566423E+04  0.10364184935E+04  0.17300000000E+03 0. -1.
         -6    1    1    2    0  503  0.88737196964E+02 -0.18106884970E+02  0.30937101605E+02  0.19770749521E+03  0.17300000000E+03 0. -1.
</event>
<event>
 4    1  0.5904698E+000  0.1000000E+03  0.7546771E-02  0.1280296E+00
         21   -1    0    0  501  502  0.00000000000E+00  0.00000000000E+00  0.23550344504E+03  0.23550344504E+03  0.00000000000E+00 0. -1.
         21   -1    0    0  502  503 -0.00000000000E+00 -0.00000000000E+00 -0.25135821793E+03  0.25135821793E+03  0.00000000000E+00 0. -1.
          6    1    1    2  501    0 -0.52660692065E+02 -0.18758043371E+02  0.15384240736E+03  0.23816275734E+03  0.17300000000E+03 0. -1.
         -6    1    1    2    0  503  0.52660692065E+02  0.18758043371E+02 -0.16969718024E+03  0.24869890563E+03  0.17300000000E+03 0. -1.
</event>
<event>
 4    1  0.5904698E+000  0.1000000E+03  0.7546771E-02  0.1280296E+00
         21   -1    0    0  503  502  0.00000000000E+00  0.00000000000E+00  0.16375422396E+04  0.16375422396E+04  0.00000000000E+00 0. -1.
         21   -1    0    0  501  503 -0.00000000000E+00 -0.00000000000E+00 -0.24509765120E+02  0.24509765120E+02  0.00000000000E+00 0.  1.
          6    1    1    2  501    0  0.10525303556E+02  0.72664409781E+02  0.51865281458E+03  0.55165264482E+03  0.17300000000E+03 0.  1.
         -6    1    1    2    0  502 -0.10525303556E+02 -0.72664409781E+02  0.10943796599E+04  0.11103993599E+04  0.17300000000E+03 0. -1.
</event>
<event>
 4    1  0.5904698E+000  0.1000000E+03  0.7546771E-02  0.1280296E+00
         21   -1    0    0  503  502  0.00000000000E+00  0.00000000000E+00  0.18866325891E+03  0.18866325891E+03  0.00000000000E+00 0. -1.
         21   -1    0    0  501  503 -0.00000000000E+00 -0.00000000000E+00 -0.27243416970E+03  0.27243416970E+03  0.00000000000E+00 0.  1.
          6    1    1    2  501    0  0.12685859851E+02 -0.14295415251E+02 -0.18961621495E+03  0.25738803179E+03  0.17300000000E+03 0.  1.
         -6    1    1    2    0  502 -0.12685859851E+02  0.14295415251E+02  0.10584530416E+03  0.20370939681E+03  0.17300000000E+03 0. -1.
</event>
<event>
 4    1  0.5904698E+000  0.1000000E+03  0.7546771E-02  0.1280296E+00
         21   -1    0    0  501  502  0.00000000000E+00  0.00000000000E+00  0.89338184431E+03  0.89338184431E+03  0.00000000000E+00 0. -1.
         21   -1    0    0  502  503 -0.00000000000E+00 -0.00000000000E+00 -0.16080633548E+03  0.16080633548E+03  0.00000000000E+00 0.  1.
          6    1    1    2  501    0 -0.89985990657E+02  0.16096581877E+03  0.75894646592E+03  0.79996013117E+03  0.17300000000E+03 0. -1.
         -6    1    1    2    0  503  0.89985990657E+02 -0.16096581877E+03 -0.26370957087E+02  0.25422804862E+03  0.17300000000E+03 0.  1.
</event>
<event>
 4    1  0.5904698E+000  0.1000000E+03  0.7546771E-02  0.1280296E+00
         21   -1    0    0  501  502  0.00000000000E+00  0.00000000000E+00  0.58887385626E+03  0.58887385626E+03  0.00000000000E+00 0. -1.
         21   -1    0    0  502  503 -0.00000000000E+00 -0.00000000000E+00 -0.12775349535E+03  0.12775349535E+03  0.00000000000E+00 0.  1.
          6    1    1    2  501    0  0.18323411623E+03 -0.70528151758E+02  0.33791105974E+03  0.42738957151E+03  0.17300000000E+03 0. -1.
         -6    1    1    2    0  503 -0.18323411623E+03  0.70528151758E+02  0.12320930117E+03  0.28923778010E+03  0.17300000000E+03 0.  1.
</event>
<event>
 4    1  0.5904698E+000  0.1000000E+03  0.7546771E-02  0.1280296E+00
         21   -1    0    0  501  502  0.00000000000E+00  0.00000000000E+00  0.70857953124E+03  0.70857953124E+03  0.00000000000E+00 0. -1.
         21   -1    0    0  502  503 -0.00000000000E+00 -0.00000000000E+00 -0.13871148610E+03  0.13871148610E+03  0.00000000000E+00 0.  1.
          6    1    1    2  501    0 -0.42877348532E+02  0.22959204122E+03  0.44372279817E+03  0.53044311102E+03  0.17300000000E+03 0. -1.
         -6    1    1    2    0  503  0.42877348532E+02 -0.22959204122E+03  0.12614524697E+03  0.31684790633E+03  0.17300000000E+03 0.  1.
</event>
<event>
 4    1  0.5904698E+000  0.1000000E+03  0.7546771E-02  0.1280296E+00
         21   -1    0    0  503  502  0.00000000000E+00  0.00000000000E+00  0.31496831387E+03  0.31496831387E+03  0.00000000000E+00 0. -1.
         21   -1    0    0  501  503 -0.00000000000E+00 -0.00000000000E+00 -0.23419105064E+03  0.23419105064E+03  0.00000000000E+00 0.  1.
          6    1    1    2  501    0  0.36226726981E+02 -0.50437753473E+02 -0.16175366072E+03  0.24484605261E+03  0.17300000000E+03 0. -1.
         -6    1    1    2    0  502 -0.36226726981E+02  0.50437753473E+02  0.24253092395E+03  0.30431331189E+03  0.17300000000E+03 0. -1.
</event>
<event>
 4    1  0.5904698E+000  0.1000000E+03  0.7546771E-02  0.1280296E+00
         21   -1    0    0  503  502  0.00000000000E+00  0.00000000000E+00  0.12088964672E+04  0.12088964672E+04  0.00000000000E+00 0. -1.
         21   -1    0    0  501  503 -0.00000000000E+00 -0.00000000000E+00 -0.13089546597E+03  0.13089546597E+03  0.00000000000E+00 0.  1.
          6    1    1    2  501    0  0.72041333407E+02 -0.15233548642E+03  0.66916261760E+01  0.24159849338E+03  0.17300000000E+03 0. -1.
         -6    1    1    2    0  502 -0.72041333407E+02  0.15233548642E+03  0.10713093751E+04  0.10981934398E+04  0.17300000000E+03 0. -1.
</event>
<event>
 4    1  0.5904698E+000  0.1000000E+03  0.7546771E-02  0.1280296E+00
         21   -1    0    0  503  502  0.00000000000E+00  0.00000000000E+00  0.50379258194E+03  0.50379258194E+03  0.00000000000E+00 0. -1.
         21   -1    0    0  501  503 -0.00000000000E+00 -0.00000000000E+00 -0.10697958150E+03  0.10697958150E+03  0.00000000000E+00 0.  1.
          6    1    1    2  501    0  0.22687010695E+02  0.14912061235E+03  0.24425618979E+03  0.33517419908E+03  0.17300000000E+03 0. -1.
         -6    1    1    2    0  502 -0.22687010695E+02 -0.14912061235E+03  0.15255681065E+03  0.27559796435E+03  0.17300000000E+03 0. -1.
</event>
<event>
 4    1  0.5904698E+000  0.1000000E+03  0.7546771E-02  0.1280296E+00
         21   -1    0    0  503  502  0.00000000000E+00  0.00000000000E+00  0.82344058851E+03  0.82344058851E+03  0.00000000000E+00 0.  1.
         21   -1    0    0  501  503 -0.00000000000E+00 -0.00000000000E+00 -0.10895255453E+03  0.10895255453E+03  0.00000000000E+00 0. -1.
          6    1    1    2  501    0 -0.23280329609E+02  0.96384872371E+02  0.93688363498E+01  0.19962162324E+03  0.17300000000E+03 0.  1.
         -6    1    1    2    0  502  0.23280329609E+02 -0.96384872371E+02  0.70511919763E+03  0.73277151981E+03  0.17300000000E+03 0. -1.
</event>
<event>
 4    1  0.5904698E+000  0.1000000E+03  0.7546771E-02  0.1280296E+00
         21   -1    0    0  503  502  0.00000000000E+00  0.00000000000E+00  0.81135597987E+03  0.81135597987E+03  0.00000000000E+00 0.  1.
         21   -1    0    0  501  503 -0.00000000000E+00 -0.00000000000E+00 -0.92497645891E+02  0.92497645891E+02  0.00000000000E+00 0. -1.
          6    1    1    2  501    0 -0.21529475581E+01 -0.20844811621E+03  0.29213020118E+03  0.39840219223E+03  0.17300000000E+03 0.  1.
         -6    1    1    2    0  502  0.21529475581E+01  0.20844811621E+03  0.42672813280E+03  0.50545143353E+03  0.17300000000E+03 0. -1.
</event>
<event>
 4    1  0.5904698E+000  0.1000000E+03  0.7546771E-02  0.1280296E+00
         21   -1    0    0  501  502  0.00000000000E+00  0.00000000000E+00  0.45424914066E+02  0.45424914066E+02  0.00000000000E+00 0.  1.
         21   -1    0    0  502  503 -0.00000000000E+00 -0.00000000000E+00 -0.10252952418E+04  0.10252952418E+04  0.00000000000E+00 0. -1.
          6    1    1    2  501    0 -0.11118461468E+03 -0.47200559753E+02 -0.60239158633E+03  0.63827465456E+03  0.17300000000E+03 0. -1.
         -6    1    1    2    0  503  0.11118461468E+03  0.47200559753E+02 -0.37747874141E+03  0.43244550130E+03  0.17300000000E+03 0.  1.
</event>
<event>
 4    1  0.5904698E+000  0.1000000E+03  0.7546771E-02  0.1280296E+00
         21   -1    0    0  503  502  0.00000000000E+00  0.00000000000E+00  0.36594605010E+03  0.36594605010E+03  0.00000000000E+00 0.  1.
         21   -1    0    0  501  503 -0.00000000000E+00 -0.00000000000E+00 -0.33735322473E+03  0.33735322473E+03  0.00000000000E+00 0.  1.
          6    1    1    2  501    0 -0.12427906447E+03 -0.22869141032E+03 -0.14639494524E+03  0.34511668608E+03  0.17300000000E+03 0.  1.
         -6    1    1    2    0  502  0.12427906447E+03  0.22869141032E+03  0.17498777061E+03  0.35818258875E+03  0.17300000000E+03 0.  1.
</event>
<event>
 4    1  0.5904698E+000  0.1000000E+03  0.7546771E-02  0.1280296E+00
         21   -1    0    0  503  502  0.00000000000E+00  0.00000000000E+00  0.79796702555E+02  0.79796702555E+02  0.00000000000E+00 0.  1.
         21   -1    0    0  501  503 -0.00000000000E+00 -0.00000000000E+00 -0.13600344154E+04  0.13600344154E+04  0.00000000000E+00 0.  1.
          6    1    1    2  501    0 -0.83377422156E+02 -0.15258804595E+03 -0.11207012544E+04  0.11472293615E+04  0.17300000000E+03 0.  1.
         -6    1    1    2    0  502  0.83377422156E+02  0.15258804595E+03 -0.15953645841E+03  0.29260175641E+03  0.17300000000E+03 0.  1.
</event>
<event>
 4    1  0.5904698E+000  0.1000000E+03  0.7546771E-02  0.1280296E+00
         21   -1    0    0  503  502  0.00000000000E+00  0.00000000000E+00  0.80456343286E+02  0.80456343286E+02  0.00000000000E+00 0. -1.
         21   -1    0    0  501  503 -0.00000000000E+00 -0.00000000000E+00 -0.11164787685E+04  0.11164787685E+04  0.00000000000E+00 0. -1.
          6    1    1    2  501    0 -0.11152329220E+03  0.98951668308E+02 -0.90556554022E+03  0.93392013845E+03  0.17300000000E+03 0. -1.
         -6    1    1    2    0  502  0.11152329220E+03 -0.98951668308E+02 -0.13045688502E+03  0.26301497336E+03  0.17300000000E+03 0. -1.
</event>
<event>
 4    1  0.5904698E+000  0.1000000E+03  0.7546771E-02  0.1280296E+00
         21   -1    0    0  503  502  0.00000000000E+00  0.00000000000E+00  0.23363111353E+02  0.23363111353E+02  0.00000000000E+00 0.  1.
         21   -1    0    0  501  503 -0.00000000000E+00 -0.00000000000E+00 -0.18662068273E+04  0.18662068273E+04  0.00000000000E+00 0.  1.
          6    1    1    2  501    0  0.41599845201E+02  0.41574482056E+02 -0.13786699889E+04  0.13907260417E+04  0.17300000000E+03 0.  1.
         -6    1    1    2    0  502 -0.41599845201E+02 -0.41574482056E+02 -0.46417372705E+03  0.49884389699E+03  0.17300000000E+03 0.  1.
</event>
<event>
 4    1  0.5904698E+000  0.1000000E+03  0.7546771E-02  0.1280296E+00
         21   -1    0    0  501  502  0.00000000000E+00  0.00000000000E+00  0.55317263291E+03  0.55317263291E+03  0.00000000000E+00 0. -1.
         21   -1    0    0  502  503 -0.00000000000E+00 -0.00000000000E+00 -0.15087779643E+03  0.15087779643E+03  0.00000000000E+00 0.  1.
          6    1    1    2  501    0 -0.20902496684E+03  0.80532694998E+02  0.13056274141E+03  0.31169308810E+03  0.17300000000E+03 0.  1.
         -6    1    1    2    0  503  0.20902496684E+03 -0.80532694998E+02  0.27173209507E+03  0.39235734123E+03  0.17300000000E+03 0. -1.
</event>
<event>
 4    1  0.5904698E+000  0.1000000E+03  0.7546771E-02  0.1280296E+00
         21   -1    0    0  501  502  0.00000000000E+00  0.00000000000E+00  0.11112315806E+03  0.11112315806E+03  0.00000000000E+00 0. -1.
         21   -1    0    0  502  503 -0.00000000000E+00 -0.00000000000E+00 -0.41662681675E+03  0.41662681675E+03  0.00000000000E+00 0.  1.
          6    1    1    2  501    0  0.10007890433E+03 -0.36573233519E+02 -0.65908571577E+02  0.21360320295E+03  0.17300000000E+03 0. -1.
         -6    1    1    2    0  503 -0.10007890433E+03  0.36573233519E+02 -0.23959508711E+03  0.31414677186E+03  0.17300000000E+03 0.  1.
</event>
<event>
 4    1  0.5904698E+000  0.1000000E+03  0.7546771E-02  0.1280296E+00
         21   -1    0    0  501  502  0.00000000000E+00  0.00000000000E+00  0.98249666743E+03  0.98249666743E+03  0.00000000000E+00 0. -1.
         21   -1    0    0  502  503 -0.00000000000E+00 -0.00000000000E+00 -0.85558192440E+02  0.85558192440E+02  0.00000000000E+00 0.  1.
          6    1    1    2  501    0  0.69452253837E+02  0.18246117680E+03  0.21536859543E+03  0.33827256540E+03  0.17300000000E+03 0. -1.
         -6    1    1    2    0  503 -0.69452253837E+02 -0.18246117680E+03  0.68156987956E+03  0.72978229447E+03  0.17300000000E+03 0.  1.
</event>
<event>
 4    1  0.5904698E+000  0.1000000E+03  0.7546771E-02  0.1280296E+00
         21   -1    0    0  503  502  0.00000000000E+00  0.00000000000E+00  0.13251337554E+04  0.13251337554E+04  0.00000000000E+00 0.  1.
         21   -1    0    0  501  503 -0.00000000000E+00 -0.00000000000E+00 -0.18168586925E+03  0.18168586925E+03  0.00000000000E+00 0.  1.
          6    1    1    2  501    0 -0.21575746839E+03 -0.29863501982E+02 -0.48928130839E+02  0.28242888645E+03  0.17300000000E+03 0.  1.
         -6    1    1    2    0  502  0.21575746839E+03  0.29863501982E+02  0.11923760170E+04  0.12243907382E+04  0.17300000000E+03 0.  1.
</event>
<event>
 4    1  0.5904698E+000  0.1000000E+03  0.7546771E-02  0.1280296E+00
         21   -1    0    0  503  502  0.00000000000E+00  0.00000000000E+00  0.10969819037E+03  0.10969819037E+03  0.00000000000E+00 0.  1.
         21   -1    0    0  501  503 -0.00000000000E+00 -0.00000000000E+00 -0.32167396612E+03  0.32167396612E+03  0.00000000000E+00 0.  1.
          6    1    1    2  501    0  0.19354030960E+02 -0.41013372096E+02 -0.17196024034E+03  0.24810481548E+03  0.17300000000E+03 0.  1.
         -6    1    1    2    0  502 -0.19354030960E+02  0.41013372096E+02 -0.40015535411E+02  0.18326734101E+03  0.17300000000E+03 0.  1.
</event>
<event>
 4    1  0.5904698E+000  0.1000000E+03  0.7546771E-02  0.1280296E+00
         21   -1    0    0  503  502  0.00000000000E+00  0.00000000000E+00  0.83050198346E+03  0.83050198346E+03  0.00000000000E+00 0.  1.
         21   -1    0    0  501  503 -0.00000000000E+00 -0.00000000000E+00 -0.77351472426E+02  0.77351472426E+02  0.00000000000E+00 0.  1.
          6    1    1    2  501    0  0.42141341459E+02 -0.81010878632E+02  0.87945357799E+02  0.21448086412E+03  0.17300000000E+03 0.  1.
         -6    1    1    2    0  502 -0.42141341459E+02  0.81010878632E+02  0.66520515324E+03  0.69337259176E+03  0.17300000000E+03 0.  1.
</event>
<event>
 4    1  0.5904698E+000  0.1000000E+03  0.7546771E-02  0.1280296E+00
         21   -1    0    0  503  502  0.00000000000E+00  0.00000000000E+00  0.46022205276E+03  0.46022205276E+03  0.00000000000E+00 0. -1.
         21   -1    0    0  501  503 -0.00000000000E+00 -0.00000000000E+00 -0.10336442604E+03  0.10336442604E+03  0.00000000000E+00 0. -1.
          6    1    1    2  501    0  0.89629154671E+02  0.47244686178E+02  0.67466383031E+02  0.21153287824E+03  0.17300000000E+03 0. -1.
         -6    1    1    2    0  502 -0.89629154671E+02 -0.47244686178E+02  0.28939124369E+03  0.35205360056E+03  0.17300000000E+03 0. -1.
</event>
<event>
 4    1  0.5904698E+000  0.1000000E+03  0.7546771E-02  0.1280296E+00
         21   -1    0    0  503  502  0.00000000000E+00  0.00000000000E+00  0.75454553466E+02  0.75454553466E+02  0.00000000000E+00 0. -1.
         21   -1    0    0  501  503 -0.00000000000E+00 -0.00000000000E+00 -0.58102622258E+03  0.58102622258E+03  0.00000000000E+00 0. -1.
          6    1    1    2  501    0 -0.40355693679E+01  0.97834411389E+02 -0.35587312603E+03  0.40763039595E+03  0.17300000000E+03 0. -1.
         -6    1    1    2    0  502  0.40355693679E+01 -0.97834411389E+02 -0.14969854308E+03  0.24885038009E+03  0.17300000000E+03 0. -1.
</event>
<event>
 4    1  0.5904698E+000  0.1000000E+03  0.7546771E-02  0.1280296E+00
         21   -1    0    0  503  502  0.00000000000E+00  0.00000000000E+00  0.66618625848E+03  0.66618625848E+03  0.00000000000E+00 0.  1.
         21   -1    0    0  501  503 -0.00000000000E+00 -0.00000000000E+00 -0.21343174230E+03  0.21343174230E+03  0.00000000000E+00 0.  1.
          6    1    1    2  501    0  0.21937247432E+03 -0.25183167235E+03  0.25751784238E+03  0.45583759480E+03  0.17300000000E+03 0.  1.
         -6    1    1    2    0  502 -0.21937247432E+03  0.25183167235E+03  0.19523667380E+03  0.42378040597E+03  0.17300000000E+03 0.  1.
</event>
<event>
 4    1  0.5904698E+000  0.1000000E+03  0.7546771E-02  0.1280296E+00
         21   -1    0    0  503  502  0.00000000000E+00  0.00000000000E+00  0.21911033770E+03  0.21911033770E+03  0.00000000000E+00 0. -1.
         21   -1    0    0  501  503 -0.00000000000E+00 -0.00000000000E+00 -0.41002313872E+03  0.41002313872E+03  0.00000000000E+00 0. -1.
          6    1    1    2  501    0 -0.96705706144E+02  0.43058212168E+02 -0.32707067222E+03  0.38485091641E+03  0.17300000000E+03 0. -1.
         -6    1    1    2    0  502  0.96705706144E+02 -0.43058212168E+02  0.13615787120E+03  0.24428256001E+03  0.17300000000E+03 0. -1.
</event>
<event>
 4    1  0.5904698E+000  0.1000000E+03  0.7546771E-02  0.1280296E+00
         21   -1    0    0  503  502  0.00000000000E+00  0.00000000000E+00  0.12277693876E+03  0.12277693876E+03  0.00000000000E+00 0. -1.
         21   -1    0    0  501  503 -0.00000000000E+00 -0.00000000000E+00 -0.46190729830E+03  0.46190729830E+03  0.00000000000E+00 0. -1.
          6    1    1    2  501    0  0.17411951828E+02 -0.60907671263E+02 -0.35480471970E+03  0.39978532940E+03  0.17300000000E+03 0. -1.
         -6    1    1    2    0  502 -0.17411951828E+02  0.60907671263E+02  0.15674360167E+02  0.18489890765E+03  0.17300000000E+03 0. -1.
</event>
<event>
 4    1  0.5904698E+000  0.1000000E+03  0.7546771E-02  0.1280296E+00
         21   -1    0    0  503  502  0.00000000000E+00  0.00000000000E+00  0.34583458519E+03  0.34583458519E+03  0.00000000000E+00 0. -1.
         21   -1    0    0  501  503 -0.00000000000E+00 -0.00000000000E+00 -0.28726398112E+03  0.28726398112E+03  0.00000000000E+00 0. -1.
          6    1    1    2  501    0 -0.15344805156E+03 -0.18658888112E+03 -0.76310818942E+02  0.30678014305E+03  0.17300000000E+03 0. -1.
         -6    1    1    2    0  502  0.15344805156E+03  0.18658888112E+03  0.13488142302E+03  0.32631842326E+03  0.17300000000E+03 0. -1.
</event>
<event>
 4    1  0.5904698E+000  0.1000000E+03  0.7546771E-02  0.1280296E+00
         21   -1    0    0  503  502  0.00000000000E+00  0.00000000000E+00  0.14249326793E+03  0.14249326793E+03  0.00000000000E+00 0. -1.
         21   -1    0    0  501  503 -0.00000000000E+00 -0.00000000000E+00 -0.86153744015E+03  0.86153744015E+03  0.00000000000E+00 0. -1.
          6    1    1    2  501    0 -0.83624111608E+02 -0.56334819018E+01 -0.77923330625E+03  0.80259471325E+03  0.17300000000E+03 0. -1.
         -6    1    1    2    0  502  0.83624111608E+02  0.56334819018E+01  0.60189134026E+02  0.20143599484E+03  0.17300000000E+03 0. -1.
</event>
<event>
 4    1  0.5904698E+000  0.1000000E+03  0.7546771E-02  0.1280296E+00
         21   -1    0    0  503  502  0.00000000000E+00  0.00000000000E+00  0.57575148886E+03  0.57575148886E+03  0.00000000000E+00 0.  1.
         21   -1    0    0  501  503 -0.00000000000E+00 -0.00000000000E+00 -0.83472343596E+02  0.83472343596E+02  0.00000000000E+00 0.  1.
          6    1    1    2  501    0 -0.74932165914E+02  0.11142650631E+03  0.26114712263E+03  0.34081888952E+03  0.17300000000E+03 0.  1.
         -6    1    1    2    0  502  0.74932165914E+02 -0.11142650631E+03  0.23113202263E+03  0.31840494293E+03  0.17300000000E+03 0.  1.
</event>
<event>
 4    1  0.5904698E+000  0.1000000E+03  0.7546771E-02  0.1280296E+00
         21   -1    0    0  501  502  0.00000000000E+00  0.00000000000E+00  0.51058206241E+03  0.51058206241E+03  0.00000000000E+00 0.  1.
         21   -1    0    0  502  503 -0.00000000000E+00 -0.00000000000E+00 -0.17496635249E+03  0.17496635249E+03  0.00000000000E+00 0.  1.
          6    1    1    2  501    0 -0.22959982210E+03 -0.78464440119E+02  0.19428279470E+03  0.35573522596E+03  0.17300000000E+03 0.  1.
         -6    1    1    2    0  503  0.22959982210E+03  0.78464440119E+02  0.14133291522E+03  0.32981318894E+03  0.17300000000E+03 0.  1.
</event>
<event>
 4    1  0.5904698E+000  0.1000000E+03  0.7546771E-02  0.1280296E+00
         21   -1    0    0  501  502  0.00000000000E+00  0.00000000000E+00  0.32968913389E+03  0.32968913389E+03  0.00000000000E+00 0. -1.
         21   -1    0    0  502  503 -0.00000000000E+00 -0.00000000000E+00 -0.10477982561E+03  0.10477982561E+03  0.00000000000E+00 0. -1.
          6    1    1    2  501    0 -0.42286137197E+02 -0.31014379839E+01  0.17450021177E+03  0.24935328397E+03  0.17300000000E+03 0. -1.
         -6    1    1    2    0  503  0.42286137197E+02  0.31014379839E+01  0.50409096511E+02  0.18511567553E+03  0.17300000000E+03 0. -1.
</event>
<event>
 4    1  0.5904698E+000  0.1000000E+03  0.7546771E-02  0.1280296E+00
         21   -1    0    0  503  502  0.00000000000E+00  0.00000000000E+00  0.18866270262E+03  0.18866270262E+03  0.00000000000E+00 0. -1.
         21   -1    0    0  501  503 -0.00000000000E+00 -0.00000000000E+00 -0.37489882122E+03  0.37489882122E+03  0.00000000000E+00 0. -1.
          6    1    1    2  501    0  0.52615759936E+02 -0.39909918916E+02 -0.29537140876E+03  0.34861796990E+03  0.17300000000E+03 0. -1.
         -6    1    1    2    0  502 -0.52615759936E+02  0.39909918916E+02  0.10913529016E+03  0.21494355394E+03  0.17300000000E+03 0. -1.
</event>
<event>
 4    1  0.5904698E+000  0.1000000E+03  0.7546771E-02  0.1280296E+00
         21   -1    0    0  503  502  0.00000000000E+00  0.00000000000E+00  0.20900371232E+03  0.20900371232E+03  0.00000000000E+00 0. -1.
         21   -1    0    0  501  503 -0.00000000000E+00 -0.00000000000E+00 -0.14823121860E+03  0.14823121860E+03  0.00000000000E+00 0. -1.
          6    1    1    2  501    0 -0.21849838060E+02 -0.14375099307E+02  0.10924024490E+02  0.17530656923E+03  0.17300000000E+03 0. -1.
         -6    1    1    2    0  502  0.21849838060E+02  0.14375099307E+02  0.49848469232E+02  0.18192836169E+03  0.17300000000E+03 0. -1.
</event>
<event>
 4    1  0.5904698E+000  0.1000000E+03  0.7546771E-02  0.1280296E+00
         21   -1    0    0  503  502  0.00000000000E+00  0.00000000000E+00  0.11310173039E+03  0.11310173039E+03  0.00000000000E+00 0. -1.
         21   -1    0    0  501  503 -0.00000000000E+00 -0.00000000000E+00 -0.36311133599E+03  0.36311133599E+03  0.00000000000E+00 0. -1.
          6    1    1    2  501    0 -0.81735241170E+01 -0.15942905968E+02 -0.24721320454E+03  0.30226536560E+03  0.17300000000E+03 0. -1.
         -6    1    1    2    0  502  0.81735241170E+01  0.15942905968E+02 -0.27964010648E+01  0.17394770078E+03  0.17300000000E+03 0. -1.
</event>
<event>
 4    1  0.5904698E+000  0.1000000E+03  0.7546771E-02  0.1280296E+00
         21   -1    0    0  503  502  0.00000000000E+00  0.00000000000E+00  0.26491588450E+03  0.26491588450E+03  0.00000000000E+00 0.  1.
         21   -1    0    0  501  503 -0.00000000000E+00 -0.00000000000E+00 -0.14035852716E+04  0.14035852716E+04  0.00000000000E+00 0. -1.
          6    1    1    2  501    0  0.10968865677E+03  0.17921184788E+03 -0.13158733754E+04  0.13437262474E+04  0.17300000000E+03 0. -1.
         -6    1    1    2    0  502 -0.10968865677E+03 -0.17921184788E+03  0.17720398831E+03  0.32477490869E+03  0.17300000000E+03 0.  1.
</event>
<event>
 4    1  0.5904698E+000  0.1000000E+03  0.7546771E-02  0.1280296E+00
         21   -1    0    0  503  502  0.00000000000E+00  0.00000000000E+00  0.92254957619E+02  0.92254957619E+02  0.00000000000E+00 0.  1.
         21   -1    0    0  501  503 -0.00000000000E+00 -0.00000000000E+00 -0.52986601029E+03  0.52986601029E+03  0.00000000000E+00 0. -1.
          6    1    1    2  501    0  0.19158779136E+01  0.34328871066E+02 -0.40636133465E+03  0.44299060518E+03  0.17300000000E+03 0. -1.
         -6    1    1    2    0  502 -0.19158779136E+01 -0.34328871066E+02 -0.31249718025E+02  0.17913036273E+03  0.17300000000E+03 0.  1.
</event>
<event>
 4    1  0.5904698E+000  0.1000000E+03  0.7546771E-02  0.1280296E+00
         21   -1    0    0  503  502  0.00000000000E+00  0.00000000000E+00  0.31988279000E+03  0.31988279000E+03  0.00000000000E+00 0.  1.
         21   -1    0    0  501  503 -0.00000000000E+00 -0.00000000000E+00 -0.19086902894E+03  0.19086902894E+03  0.00000000000E+00 0.  1.
          6    1    1    2  501    0  0.17063787968E+03 -0.30560077639E+02  0.30612740081E+02  0.24681439217E+03  0.17300000000E+03 0.  1.
         -6    1    1    2    0  502 -0.17063787968E+03  0.30560077639E+02  0.98401020978E+02  0.26393742678E+03  0.17300000000E+03 0.  1.
</event>
<event>
 4    1  0.5904698E+000  0.1000000E+03  0.7546771E-02  0.1280296E+00
         21   -1    0    0  503  502  0.00000000000E+00  0.00000000000E+00  0.28193359707E+03  0.28193359707E+03  0.00000000000E+00 0. -1.
         21   -1    0    0  501  503 -0.00000000000E+00 -0.00000000000E+00 -0.34378402343E+03  0.34378402343E+03  0.00000000000E+00 0. -1.
          6    1    1    2  501    0 -0.66790973658E+01  0.13306103720E+03 -0.25393043638E+03  0.33490224914E+03  0.17300000000E+03 0.  1.
         -6    1    1    2    0  502  0.66790973658E+01 -0.13306103720E+03  0.19208001002E+03  0.29081537135E+03  0.17300000000E+03 0.  1.
</event>
<event>
 4    1  0.5904698E+000  0.1000000E+03  0.7546771E-02  0.1280296E+00
         21   -1    0    0  503  502  0.00000000000E+00  0.00000000000E+00  0.86853946838E+02  0.86853946838E+02  0.00000000000E+00 0. -1.
         21   -1    0    0  501  503 -0.00000000000E+00 -0.00000000000E+00 -0.11444665073E+04  0.11444665073E+04  0.00000000000E+00 0. -1.
          6    1    1    2  501    0  0.72022830151E+02  0.98905156750E+02 -0.98469058515E+03  0.10072308904E+04  0.17300000000E+03 0.  1.
         -6    1    1    2    0  502 -0.72022830151E+02 -0.98905156750E+02 -0.72921975318E+02  0.22408956374E+03  0.17300000000E+03 0.  1.
</event>
<event>
 4    1  0.5904698E+000  0.1000000E+03  0.7546771E-02  0.1280296E+00
         21   -1    0    0  501  502  0.00000000000E+00  0.00000000000E+00  0.83292138261E+02  0.83292138261E+02  0.00000000000E+00 0. -1.
         21   -1    0    0  502  503 -0.00000000000E+00 -0.00000000000E+00 -0.66134464759E+03  0.66134464759E+03  0.00000000000E+00 0. -1.
          6    1    1    2  501    0  0.29564027594E+02 -0.61300263223E+01 -0.42023099430E+02  0.18057283803E+03  0.17300000000E+03 0. -1.
         -6    1    1    2    0  503 -0.29564027594E+02  0.61300263223E+01 -0.53602940990E+03  0.56406394782E+03  0.17300000000E+03 0. -1.
</event>
<event>
 4    1  0.5904698E+000  0.1000000E+03  0.7546771E-02  0.1280296E+00
         21   -1    0    0  501  502  0.00000000000E+00  0.00000000000E+00  0.96642563101E+03  0.96642563101E+03  0.00000000000E+00 0. -1.
         21   -1    0    0  502  503 -0.00000000000E+00 -0.00000000000E+00 -0.55476174804E+02  0.55476174804E+02  0.00000000000E+00 0. -1.
          6    1    1    2  501    0  0.24846083930E+02 -0.13740668594E+03  0.59825761771E+03  0.63823122955E+03  0.17300000000E+03 0. -1.
         -6    1    1    2    0  503 -0.24846083930E+02  0.13740668594E+03  0.31269183850E+03  0.38367057626E+03  0.17300000000E+03 0. -1.
</event>
<event>
 4    1  0.5904698E+000  0.1000000E+03  0.7546771E-02  0.1280296E+00
         21   -1    0    0  501  502  0.00000000000E+00  0.00000000000E+00  0.11443257927E+03  0.11443257927E+03  0.00000000000E+00 0. -1.
         21   -1    0    0  502  503 -0.00000000000E+00 -0.00000000000E+00 -0.13112605698E+04  0.13112605698E+04  0.00000000000E+00 0. -1.
          6    1    1    2  501    0 -0.12082788702E+03 -0.81385327596E+02 -0.19688484073E+02  0.22702331650E+03  0.17300000000E+03 0. -1.
         -6    1    1    2    0  503  0.12082788702E+03  0.81385327596E+02 -0.11771395065E+04  0.11986698326E+04  0.17300000000E+03 0. -1.
</event>
<event>
 4    1  0.5904698E+000  0.1000000E+03  0.7546771E-02  0.1280296E+00
         21   -1    0    0  503  502  0.00000000000E+00  0.00000000000E+00  0.38432292636E+03  0.38432292636E+03  0.00000000000E+00 0. -1.
         21   -1    0    0  501  503 -0.00000000000E+00 -0.00000000000E+00 -0.17339065399E+03  0.17339065399E+03  0.00000000000E+00 0.  1.
          6    1    1    2  501    0  0.12694805634E+03 -0.13427610618E+02 -0.48871741372E+02  0.22048482224E+03  0.17300000000E+03 0.  1.
         -6    1    1    2    0  502 -0.12694805634E+03  0.13427610618E+02  0.25980401375E+03  0.33722875811E+03  0.17300000000E+03 0. -1.
</event>
<event>
 4    1  0.5904698E+000  0.1000000E+03  0.7546771E-02  0.1280296E+00
         21   -1    0    0  503  502  0.00000000000E+00  0.00000000000E+00  0.10823557981E+03  0.10823557981E+03  0.00000000000E+00 0. -1.
         21   -1    0    0  501  503 -0.00000000000E+00 -0.00000000000E+00 -0.46333166122E+03  0.46333166122E+03  0.00000000000E+00 0.  1.
          6    1    1    2  501    0  0.80708589313E+02  0.31800608077E+02 -0.32133500837E+03  0.37511377296E+03  0.17300000000E+03 0. -1.
         -6    1    1    2    0  502 -0.80708589313E+02 -0.31800608077E+02 -0.33761073049E+02  0.19645346807E+03  0.17300000000E+03 0.  1.
</event>
<event>
 4    1  0.5904698E+000  0.1000000E+03  0.7546771E-02  0.1280296E+00
         21   -1    0    0  503  502  0.00000000000E+00  0.00000000000E+00  0.23334379206E+03  0.23334379206E+03  0.00000000000E+00 0. -1.
         21   -1    0    0  501  503 -0.00000000000E+00 -0.00000000000E+00 -0.29488239707E+03  0.29488239707E+03  0.00000000000E+00 0. -1.
          6    1    1    2  501    0  0.32555442312E+02  0.11295083692E+02 -0.22624604448E+03  0.28688622899E+03  0.17300000000E+03 0. -1.
         -6    1    1    2    0  502 -0.32555442312E+02 -0.11295083692E+02  0.16470743948E+03  0.24133996014E+03  0.17300000000E+03 0. -1.
</event>
<event>
 4    1  0.5904698E+000  0.1000000E+03  0.7546771E-02  0.1280296E+00
         21   -1    0    0  501  502  0.00000000000E+00  0.00000000000E+00  0.15564111510E+04  0.15564111510E+04  0.00000000000E+00 0. -1.
         21   -1    0    0  502  503 -0.00000000000E+00 -0.00000000000E+00 -0.43641883340E+02  0.43641883340E+02  0.00000000000E+00 0. -1.
          6    1    1    2  501    0 -0.14680618362E+02  0.10749494959E+03  0.12534900133E+04  0.12700145268E+04  0.17300000000E+03 0. -1.
         -6    1    1    2    0  503  0.14680618362E+02 -0.10749494959E+03  0.25927925435E+03  0.33003850757E+03  0.17300000000E+03 0. -1.
</event>
<event>
 4    1  0.5904698E+000  0.1000000E+03  0.7546771E-02  0.1280296E+00
         21   -1    0    0  501  502  0.00000000000E+00  0.00000000000E+00  0.23138968101E+03  0.23138968101E+03  0.00000000000E+00 0. -1.
         21   -1    0    0  502  503 -0.00000000000E+00 -0.00000000000E+00 -0.31871767106E+03  0.31871767106E+03  0.00000000000E+00 0. -1.
          6    1    1    2  501    0 -0.66567132373E+02 -0.43884492987E+02  0.15237278882E+03  0.24393338970E+03  0.17300000000E+03 0. -1.
         -6    1    1    2    0  503  0.66567132373E+02  0.43884492987E+02 -0.23970077888E+03  0.30617396237E+03  0.17300000000E+03 0. -1.
</event>
<event>
 4    1  0.5904698E+000  0.1000000E+03  0.7546771E-02  0.1280296E+00
         21   -1    0    0  501  502  0.00000000000E+00  0.00000000000E+00  0.93663132145E+02  0.93663132145E+02  0.00000000000E+00 0. -1.
         21   -1    0    0  502  503 -0.00000000000E+00 -0.00000000000E+00 -0.49453207057E+03  0.49453207057E+03  0.00000000000E+00 0. -1.
          6    1    1    2  501    0  0.13548586626E+02  0.10810121457E+03 -0.10855330506E+03  0.23147841548E+03  0.17300000000E+03 0. -1.
         -6    1    1    2    0  503 -0.13548586626E+02 -0.10810121457E+03 -0.29231563336E+03  0.35671678723E+03  0.17300000000E+03 0. -1.
</event>
<event>
 4    1  0.5904698E+000  0.1000000E+03  0.7546771E-02  0.1280296E+00
         21   -1    0    0  501  502  0.00000000000E+00  0.00000000000E+00  0.26161232237E+02  0.26161232237E+02  0.00000000000E+00 0.  1.
         21   -1    0    0  502  503 -0.00000000000E+00 -0.00000000000E+00 -0.13847253044E+04  0.13847253044E+04  0.00000000000E+00 0.  1.
          6    1    1    2  501    0 -0.49613630242E+02 -0.46376477635E+02 -0.52714699298E+03  0.55895012496E+03  0.17300000000E+03 0.  1.
         -6    1    1    2    0  503  0.49613630242E+02  0.46376477635E+02 -0.83141707914E+03  0.85193641163E+03  0.17300000000E+03 0.  1.
</event>
<event>
 4    1  0.5904698E+000  0.1000000E+03  0.7546771E-02  0.1280296E+00
         21   -1    0    0  503  502  0.00000000000E+00  0.00000000000E+00  0.18471964465E+03  0.18471964465E+03  0.00000000000E+00 0.  1.
         21   -1    0    0  501  503 -0.00000000000E+00 -0.00000000000E+00 -0.21282591998E+03  0.21282591998E+03  0.00000000000E+00 0.  1.
          6    1    1    2  501    0  0.73429876512E+02  0.42003994119E+02 -0.61371608433E+02  0.20211817486E+03  0.17300000000E+03 0.  1.
         -6    1    1    2    0  502 -0.73429876512E+02 -0.42003994119E+02  0.33265333107E+02  0.19542738977E+03  0.17300000000E+03 0.  1.
</event>
<event>
 4    1  0.5904698E+000  0.1000000E+03  0.7546771E-02  0.1280296E+00
         21   -1    0    0  503  502  0.00000000000E+00  0.00000000000E+00  0.19624874003E+03  0.19624874003E+03  0.00000000000E+00 0.  1.
         21   -1    0    0  501  503 -0.00000000000E+00 -0.00000000000E+00 -0.70569740020E+03  0.70569740020E+03  0.00000000000E+00 0.  1.
          6    1    1    2  501    0  0.20726069329E+02 -0.80905291334E+02 -0.64096597159E+03  0.66913497357E+03  0.17300000000E+03 0.  1.
         -6    1    1    2    0  502 -0.20726069329E+02  0.80905291334E+02  0.13151731142E+03  0.23281116665E+03  0.17300000000E+03 0.  1.
</event>
<event>
 4    1  0.5904698E+000  0.1000000E+03  0.7546771E-02  0.1280296E+00
         21   -1    0    0  503  502  0.00000000000E+00  0.00000000000E+00  0.61941691777E+03  0.61941691777E+03  0.00000000000E+00 0.  1.
         21   -1    0    0  501  503 -0.00000000000E+00 -0.00000000000E+00 -0.64504905787E+02  0.64504905787E+02  0.00000000000E+00 0.  1.
          6    1    1    2  501    0 -0.93752816717E+02 -0.17937507784E+02  0.22570493961E+03  0.29997177299E+03  0.17300000000E+03 0.  1.
         -6    1    1    2    0  502  0.93752816717E+02  0.17937507784E+02  0.32920707237E+03  0.38395005056E+03  0.17300000000E+03 0.  1.
</event>
<event>
 4    1  0.5904698E+000  0.1000000E+03  0.7546771E-02  0.1280296E+00
         21   -1    0    0  503  502  0.00000000000E+00  0.00000000000E+00  0.18074040186E+03  0.18074040186E+03  0.00000000000E+00 0.  1.
         21   -1    0    0  501  503 -0.00000000000E+00 -0.00000000000E+00 -0.37344055254E+03  0.37344055254E+03  0.00000000000E+00 0.  1.
          6    1    1    2  501    0  0.93652661572E+02 -0.10490269246E+03 -0.23861187482E+03  0.32655783976E+03  0.17300000000E+03 0. -1.
         -6    1    1    2    0  502 -0.93652661572E+02  0.10490269246E+03  0.45911724138E+02  0.22762311464E+03  0.17300000000E+03 0. -1.
</event>
<event>
 4    1  0.5904698E+000  0.1000000E+03  0.7546771E-02  0.1280296E+00
         21   -1    0    0  503  502  0.00000000000E+00  0.00000000000E+00  0.12276996375E+03  0.12276996375E+03  0.00000000000E+00 0.  1.
         21   -1    0    0  501  503 -0.00000000000E+00 -0.00000000000E+00 -0.62502541738E+03  0.62502541738E+03  0.00000000000E+00 0.  1.
          6    1    1    2  501    0 -0.20137485568E+02  0.14438005956E+03 -0.46689683243E+03  0.51881863118E+03  0.17300000000E+03 0. -1.
         -6    1    1    2    0  502  0.20137485568E+02 -0.14438005956E+03 -0.35358621203E+02  0.22897674995E+03  0.17300000000E+03 0. -1.
</event>
<event>
 4    1  0.5904698E+000  0.1000000E+03  0.7546771E-02  0.1280296E+00
         21   -1    0    0  503  502  0.00000000000E+00  0.00000000000E+00  0.12437208038E+03  0.12437208038E+03  0.00000000000E+00 0.  1.
         21   -1    0    0  501  503 -0.00000000000E+00 -0.00000000000E+00 -0.55754495444E+03  0.55754495444E+03  0.00000000000E+00 0.  1.
          6    1    1    2  501    0  0.44303228344E+02  0.12562100252E+03 -0.40719207977E+03  0.46203658096E+03  0.17300000000E+03 0. -1.
         -6    1    1    2    0  502 -0.44303228344E+02 -0.12562100252E+03 -0.25980794293E+02  0.21988045386E+03  0.17300000000E+03 0. -1.
</event>
<event>
 4    1  0.5904698E+000  0.1000000E+03  0.7546771E-02  0.1280296E+00
         21   -1    0    0  501  502  0.00000000000E+00  0.00000000000E+00  0.73739900615E+02  0.73739900615E+02  0.00000000000E+00 0.  1.
         21   -1    0    0  502  503 -0.00000000000E+00 -0.00000000000E+00 -0.17542868748E+04  0.17542868748E+04  0.00000000000E+00 0.  1.
          6    1    1    2  501    0  0.16385112875E+03  0.18652853196E+03 -0.34624717986E+03  0.45984366386E+03  0.17300000000E+03 0.  1.
         -6    1    1    2    0  503 -0.16385112875E+03 -0.18652853196E+03 -0.13342997943E+04  0.13681831116E+04  0.17300000000E+03 0.  1.
</event>
<event>
 4    1  0.5904698E+000  0.1000000E+03  0.7546771E-02  0.1280296E+00
         21   -1    0    0  501  502  0.00000000000E+00  0.00000000000E+00  0.39827317566E+02  0.39827317566E+02  0.00000000000E+00 0.  1.
         21   -1    0    0  502  503 -0.00000000000E+00 -0.00000000000E+00 -0.17559105490E+04  0.17559105490E+04  0.00000000000E+00 0.  1.
          6    1    1    2  501    0  0.12902277387E+03  0.13528763369E+03 -0.10994287188E+04  0.11285486821E+04  0.17300000000E+03 0.  1.
         -6    1    1    2    0  503 -0.12902277387E+03 -0.13528763369E+03 -0.61665451266E+03  0.66718918456E+03  0.17300000000E+03 0.  1.
</event>
<event>
 4    1  0.5904698E+000  0.1000000E+03  0.7546771E-02  0.1280296E+00
         21   -1    0    0  501  502  0.00000000000E+00  0.00000000000E+00  0.20441140641E+02  0.20441140641E+02  0.00000000000E+00 0.  1.
         21   -1    0    0  502  503 -0.00000000000E+00 -0.00000000000E+00 -0.15997669029E+04  0.15997669029E+04  0.00000000000E+00 0.  1.
          6    1    1    2  501    0  0.36565038765E+01  0.46324696660E+02 -0.67877391947E+03  0.70201309197E+03  0.17300000000E+03 0.  1.
         -6    1    1    2    0  503 -0.36565038765E+01 -0.46324696660E+02 -0.90055184274E+03  0.91819495153E+03  0.17300000000E+03 0.  1.
</event>
<event>
 4    1  0.5904698E+000  0.1000000E+03  0.7546771E-02  0.1280296E+00
         21   -1    0    0  503  502  0.00000000000E+00  0.00000000000E+00  0.97909085127E+02  0.97909085127E+02  0.00000000000E+00 0.  1.
         21   -1    0    0  501  503 -0.00000000000E+00 -0.00000000000E+00 -0.79449605804E+03  0.79449605804E+03  0.00000000000E+00 0.  1.
          6    1    1    2  501    0  0.33327758153E+02 -0.14193926207E+03 -0.60922764426E+03  0.64988061682E+03  0.17300000000E+03 0. -1.
         -6    1    1    2    0  502 -0.33327758153E+02  0.14193926207E+03 -0.87359328650E+02  0.24252452635E+03  0.17300000000E+03 0. -1.
</event>
<event>
 4    1  0.5904698E+000  0.1000000E+03  0.7546771E-02  0.1280296E+00
         21   -1    0    0  501  502  0.00000000000E+00  0.00000000000E+00  0.64589811369E+03  0.64589811369E+03  0.00000000000E+00 0.  1.
         21   -1    0    0  502  503 -0.00000000000E+00 -0.00000000000E+00 -0.82233841807E+02  0.82233841807E+02  0.00000000000E+00 0.  1.
          6    1    1    2  501    0 -0.27615773535E+02  0.56980702101E+02  0.50058545997E+03  0.53340813089E+03  0.17300000000E+03 0.  1.
         -6    1    1    2    0  503  0.27615773535E+02 -0.56980702101E+02  0.63078811916E+02  0.19472382461E+03  0.17300000000E+03 0.  1.
</event>
<event>
 4    1  0.5904698E+000  0.1000000E+03  0.7546771E-02  0.1280296E+00
         21   -1    0    0  501  502  0.00000000000E+00  0.00000000000E+00  0.85132887092E+03  0.85132887092E+03  0.00000000000E+00 0.  1.
         21   -1    0    0  502  503 -0.00000000000E+00 -0.00000000000E+00 -0.59408931392E+02  0.59408931392E+02  0.00000000000E+00 0.  1.
          6    1    1    2  501    0  0.10958707314E+03 -0.64516186221E+01  0.58369783958E+03  0.61861386819E+03  0.17300000000E+03 0.  1.
         -6    1    1    2    0  503 -0.10958707314E+03  0.64516186221E+01  0.20822209995E+03  0.29212393412E+03  0.17300000000E+03 0.  1.
</event>
<event>
 4    1  0.5904698E+000  0.1000000E+03  0.7546771E-02  0.1280296E+00
         21   -1    0    0  501  502  0.00000000000E+00  0.00000000000E+00  0.88980243528E+02  0.88980243528E+02  0.00000000000E+00 0.  1.
         21   -1    0    0  502  503 -0.00000000000E+00 -0.00000000000E+00 -0.93663733486E+03  0.93663733486E+03  0.00000000000E+00 0.  1.
          6    1    1    2  501    0 -0.17765648208E+03  0.14444940323E+03 -0.47959962700E+03  0.55890272672E+03  0.17300000000E+03 0.  1.
         -6    1    1    2    0  503  0.17765648208E+03 -0.14444940323E+03 -0.36805746433E+03  0.46671485167E+03  0.17300000000E+03 0.  1.
</event>
<event>
 4    1  0.5904698E+000  0.1000000E+03  0.7546771E-02  0.1280296E+00
         21   -1    0    0  501  502  0.00000000000E+00  0.00000000000E+00  0.24705572261E+03  0.24705572261E+03  0.00000000000E+00 0.  1.
         21   -1    0    0  502  503 -0.00000000000E+00 -0.00000000000E+00 -0.19460972763E+03  0.19460972763E+03  0.00000000000E+00 0.  1.
          6    1    1    2  501    0 -0.13164351141E+03  0.27599867726E+01  0.54936067234E+02  0.22424228661E+03  0.17300000000E+03 0.  1.
         -6    1    1    2    0  503  0.13164351141E+03 -0.27599867726E+01 -0.24900722500E+01  0.21742316363E+03  0.17300000000E+03 0.  1.
</event>
<event>
 4    1  0.5904698E+000  0.1000000E+03  0.7546771E-02  0.1280296E+00
         21   -1    0    0  503  502  0.00000000000E+00  0.00000000000E+00  0.22025940301E+03  0.22025940301E+03  0.00000000000E+00 0. -1.
         21   -1    0    0  501  503 -0.00000000000E+00 -0.00000000000E+00 -0.18888311458E+03  0.18888311458E+03  0.00000000000E+00 0.  1.
          6    1    1    2  501    0 -0.94010741718E+02  0.28210400291E+02 -0.29616454695E+02  0.20109694337E+03  0.17300000000E+03 0. -1.
         -6    1    1    2    0  502  0.94010741718E+02 -0.28210400291E+02  0.60992743124E+02  0.20804557423E+03  0.17300000000E+03 0.  1.
</event>
<event>
 4    1  0.5904698E+000  0.1000000E+03  0.7546771E-02  0.1280296E+00
         21   -1    0    0  503  502  0.00000000000E+00  0.00000000000E+00  0.64097343026E+02  0.64097343026E+02  0.00000000000E+00 0. -1.
         21   -1    0    0  501  503 -0.00000000000E+00 -0.00000000000E+00 -0.58754046788E+03  0.58754046788E+03  0.00000000000E+00 0.  1.
          6    1    1    2  501    0 -0.25697823717E+02  0.81016130353E+02 -0.29951809749E+03  0.35617984537E+03  0.17300000000E+03 0. -1.
         -6    1    1    2    0  502  0.25697823717E+02 -0.81016130353E+02 -0.22392502737E+03  0.29545796554E+03  0.17300000000E+03 0.  1.
</event>
<event>
 4    1  0.5904698E+000  0.1000000E+03  0.7546771E-02  0.1280296E+00
         21   -1    0    0  503  502  0.00000000000E+00  0.00000000000E+00  0.50303758953E+03  0.50303758953E+03  0.00000000000E+00 0.  1.
         21   -1    0    0  501  503 -0.00000000000E+00 -0.00000000000E+00 -0.68587265357E+02  0.68587265357E+02  0.00000000000E+00 0.  1.
          6    1    1    2  501    0 -0.17367178719E+02  0.62668780189E+02  0.24576321302E+03  0.30750211671E+03  0.17300000000E+03 0. -1.
         -6    1    1    2    0  502  0.17367178719E+02 -0.62668780189E+02  0.18868711115E+03  0.26412273818E+03  0.17300000000E+03 0. -1.
</event>
<event>
 4    1  0.5904698E+000  0.1000000E+03  0.7546771E-02  0.1280296E+00
         21   -1    0    0  503  502  0.00000000000E+00  0.00000000000E+00  0.90294198323E+02  0.90294198323E+02  0.00000000000E+00 0.  1.
         21   -1    0    0  501  503 -0.00000000000E+00 -0.00000000000E+00 -0.88716589965E+03  0.88716589965E+03  0.00000000000E+00 0.  1.
          6    1    1    2  501    0 -0.13486613237E+03 -0.13893168837E+03 -0.59292699847E+03  0.64728843123E+03  0.17300000000E+03 0. -1.
         -6    1    1    2    0  502  0.13486613237E+03  0.13893168837E+03 -0.20394470286E+03  0.33017166674E+03  0.17300000000E+03 0. -1.
</event>
<event>
 4    1  0.5904698E+000  0.1000000E+03  0.7546771E-02  0.1280296E+00
         21   -1    0    0  501  502  0.00000000000E+00  0.00000000000E+00  0.57433046373E+02  0.57433046373E+02  0.00000000000E+00 0. -1.
         21   -1    0    0  502  503 -0.00000000000E+00 -0.00000000000E+00 -0.63441277879E+03  0.63441277879E+03  0.00000000000E+00 0. -1.
          6    1    1    2  501    0  0.79068634837E+02 -0.30786505360E+01 -0.26007016764E+03  0.32222169263E+03  0.17300000000E+03 0. -1.
         -6    1    1    2    0  503 -0.79068634837E+02  0.30786505360E+01 -0.31690956478E+03  0.36962413253E+03  0.17300000000E+03 0. -1.
</event>
<event>
 4    1  0.5904698E+000  0.1000000E+03  0.7546771E-02  0.1280296E+00
         21   -1    0    0  503  502  0.00000000000E+00  0.00000000000E+00  0.22875523407E+02  0.22875523407E+02  0.00000000000E+00 0. -1.
         21   -1    0    0  501  503 -0.00000000000E+00 -0.00000000000E+00 -0.15125983805E+04  0.15125983805E+04  0.00000000000E+00 0.  1.
          6    1    1    2  501    0 -0.23712745391E+02 -0.51903461876E+01 -0.10085964865E+04  0.10236137487E+04  0.17300000000E+03 0.  1.
         -6    1    1    2    0  502  0.23712745391E+02  0.51903461876E+01 -0.48112637059E+03  0.51186015518E+03  0.17300000000E+03 0. -1.
</event>
<event>
 4    1  0.5904698E+000  0.1000000E+03  0.7546771E-02  0.1280296E+00
         21   -1    0    0  503  502  0.00000000000E+00  0.00000000000E+00  0.94999058920E+02  0.94999058920E+02  0.00000000000E+00 0.  1.
         21   -1    0    0  501  503 -0.00000000000E+00 -0.00000000000E+00 -0.13022933304E+04  0.13022933304E+04  0.00000000000E+00 0.  1.
          6    1    1    2  501    0 -0.26655238554E+03 -0.16681886422E+02 -0.90132065247E+03  0.95584328116E+03  0.17300000000E+03 0.  1.
         -6    1    1    2    0  502  0.26655238554E+03  0.16681886422E+02 -0.30597361903E+03  0.44144910818E+03  0.17300000000E+03 0.  1.
</event>
<event>
 4    1  0.5904698E+000  0.1000000E+03  0.7546771E-02  0.1280296E+00
         21   -1    0    0  503  502  0.00000000000E+00  0.00000000000E+00  0.66675057378E+03  0.66675057378E+03  0.00000000000E+00 0.  1.
         21   -1    0    0  501  503 -0.00000000000E+00 -0.00000000000E+00 -0.41405057163E+03  0.41405057163E+03  0.00000000000E+00 0.  1.
          6    1    1    2  501    0 -0.41340308835E+02  0.89580751373E+02 -0.37372644698E+03  0.42347867635E+03  0.17300000000E+03 0.  1.
         -6    1    1    2    0  502  0.41340308835E+02 -0.89580751373E+02  0.62642644914E+03  0.65732246906E+03  0.17300000000E+03 0.  1.
</event>
<event>
 4    1  0.5904698E+000  0.1000000E+03  0.7546771E-02  0.1280296E+00
         21   -1    0    0  503  502  0.00000000000E+00  0.00000000000E+00  0.14923756592E+03  0.14923756592E+03  0.00000000000E+00 0.  1.
         21   -1    0    0  501  503 -0.00000000000E+00 -0.00000000000E+00 -0.33142470483E+03  0.33142470483E+03  0.00000000000E+00 0.  1.
          6    1    1    2  501    0  0.77228948370E+02  0.85137606450E+02 -0.17699745184E+03  0.27289159103E+03  0.17300000000E+03 0. -1.
         -6    1    1    2    0  502 -0.77228948370E+02 -0.85137606450E+02 -0.51896870662E+01  0.20777067972E+03  0.17300000000E+03 0. -1.
</event>
<event>
 4    1  0.5904698E+000  0.1000000E+03  0.7546771E-02  0.1280296E+00
         21   -1    0    0  503  502  0.00000000000E+00  0.00000000000E+00  0.31363958869E+02  0.31363958869E+02  0.00000000000E+00 0.  1.
         21   -1    0    0  501  503 -0.00000000000E+00 -0.00000000000E+00 -0.15367946307E+04  0.15367946307E+04  0.00000000000E+00 0.  1.
          6    1    1    2  501    0  0.13417931779E+03 -0.11053054039E+02 -0.79567662383E+03  0.82532208806E+03  0.17300000000E+03 0. -1.
         -6    1    1    2    0  502 -0.13417931779E+03  0.11053054039E+02 -0.70975404800E+03  0.74283650151E+03  0.17300000000E+03 0. -1.
</event>
<event>
 4    1  0.5904698E+000  0.1000000E+03  0.7546771E-02  0.1280296E+00
         21   -1    0    0  503  502  0.00000000000E+00  0.00000000000E+00  0.61425542866E+03  0.61425542866E+03  0.00000000000E+00 0. -1.
         21   -1    0    0  501  503 -0.00000000000E+00 -0.00000000000E+00 -0.62968293425E+02  0.62968293425E+02  0.00000000000E+00 0. -1.
          6    1    1    2  501    0  0.50463741549E+01 -0.88773804964E+02  0.22564314808E+03  0.29790952421E+03  0.17300000000E+03 0. -1.
         -6    1    1    2    0  502 -0.50463741549E+01  0.88773804964E+02  0.32564398715E+03  0.37931419787E+03  0.17300000000E+03 0. -1.
</event>
<event>
 4    1  0.5904698E+000  0.1000000E+03  0.7546771E-02  0.1280296E+00
         21   -1    0    0  503  502  0.00000000000E+00  0.00000000000E+00  0.11079590789E+03  0.11079590789E+03  0.00000000000E+00 0. -1.
         21   -1    0    0  501  503 -0.00000000000E+00 -0.00000000000E+00 -0.93579201549E+03  0.93579201549E+03  0.00000000000E+00 0. -1.
          6    1    1    2  501    0 -0.22013188133E+03 -0.53828219732E+02 -0.65571455293E+03  0.71501475323E+03  0.17300000000E+03 0. -1.
         -6    1    1    2    0  502  0.22013188133E+03  0.53828219732E+02 -0.16928155467E+03  0.33157317016E+03  0.17300000000E+03 0. -1.
</event>
<event>
 4    1  0.5904698E+000  0.1000000E+03  0.7546771E-02  0.1280296E+00
         21   -1    0    0  501  502  0.00000000000E+00  0.00000000000E+00  0.20958955818E+03  0.20958955818E+03  0.00000000000E+00 0.  1.
         21   -1    0    0  502  503 -0.00000000000E+00 -0.00000000000E+00 -0.15680470192E+04  0.15680470192E+04  0.00000000000E+00 0. -1.
          6    1    1    2  501    0 -0.15842446553E+03  0.11355461713E+03  0.11243252717E+03  0.28383628294E+03  0.17300000000E+03 0.  1.
         -6    1    1    2    0  503  0.15842446553E+03 -0.11355461713E+03 -0.14708899881E+04  0.14938002944E+04  0.17300000000E+03 0. -1.
</event>
<event>
 4    1  0.5904698E+000  0.1000000E+03  0.7546771E-02  0.1280296E+00
         21   -1    0    0  501  502  0.00000000000E+00  0.00000000000E+00  0.41167428842E+03  0.41167428842E+03  0.00000000000E+00 0. -1.
         21   -1    0    0  502  503 -0.00000000000E+00 -0.00000000000E+00 -0.10060758034E+03  0.10060758034E+03  0.00000000000E+00 0. -1.
          6    1    1    2  501    0 -0.53990298361E+02 -0.40389683109E+02  0.26040007280E+03  0.31981788057E+03  0.17300000000E+03 0. -1.
         -6    1    1    2    0  503  0.53990298361E+02  0.40389683109E+02  0.50666635279E+02  0.19246398819E+03  0.17300000000E+03 0. -1.
</event>
<event>
 4    1  0.5904698E+000  0.1000000E+03  0.7546771E-02  0.1280296E+00
         21   -1    0    0  501  502  0.00000000000E+00  0.00000000000E+00  0.61971325443E+03  0.61971325443E+03  0.00000000000E+00 0.  1.
         21   -1    0    0  502  503 -0.00000000000E+00 -0.00000000000E+00 -0.11635731471E+03  0.11635731471E+03  0.00000000000E+00 0. -1.
          6    1    1    2  501    0 -0.17632021301E+03 -0.61900839407E+02  0.36844623057E+03  0.44788632069E+03  0.17300000000E+03 0. -1.
         -6    1    1    2    0  503  0.17632021301E+03  0.61900839407E+02  0.13490970915E+03  0.28818424845E+03  0.17300000000E+03 0.  1.
</event>
<event>
 4    1  0.5904698E+000  0.1000000E+03  0.7546771E-02  0.1280296E+00
         21   -1    0    0  501  502  0.00000000000E+00  0.00000000000E+00  0.40465382614E+03  0.40465382614E+03  0.00000000000E+00 0.  1.
         21   -1    0    0  502  503 -0.00000000000E+00 -0.00000000000E+00 -0.36274292473E+03  0.36274292473E+03  0.00000000000E+00 0. -1.
          6    1    1    2  501    0 -0.30352442944E+02  0.10819492437E+03  0.34428301957E+03  0.40135671168E+03  0.17300000000E+03 0. -1.
         -6    1    1    2    0  503  0.30352442944E+02 -0.10819492437E+03 -0.30237211815E+03  0.36604003918E+03  0.17300000000E+03 0.  1.
</event>
<event>
 4    1  0.5904698E+000  0.1000000E+03  0.7546771E-02  0.1280296E+00
         21   -1    0    0  503  502  0.00000000000E+00  0.00000000000E+00  0.17595698180E+03  0.17595698180E+03  0.00000000000E+00 0.  1.
         21   -1    0    0  501  503 -0.00000000000E+00 -0.00000000000E+00 -0.24807021569E+03  0.24807021569E+03  0.00000000000E+00 0.  1.
          6    1    1    2  501    0  0.13316681926E+02 -0.10821566673E+03 -0.79499779824E+02  0.21940186767E+03  0.17300000000E+03 0.  1.
         -6    1    1    2    0  502 -0.13316681926E+02  0.10821566673E+03  0.73865459368E+01  0.20462532982E+03  0.17300000000E+03 0.  1.
</event>
<event>
 4    1  0.5904698E+000  0.1000000E+03  0.7546771E-02  0.1280296E+00
         21   -1    0    0  501  502  0.00000000000E+00  0.00000000000E+00  0.18002113973E+03  0.18002113973E+03  0.00000000000E+00 0. -1.
         21   -1    0    0  502  503 -0.00000000000E+00 -0.00000000000E+00 -0.26815201499E+03  0.26815201499E+03  0.00000000000E+00 0.  1.
          6    1    1    2  501    0 -0.25620631148E+01  0.13371283670E+03 -0.22230117317E+02  0.21979277736E+03  0.17300000000E+03 0. -1.
         -6    1    1    2    0  503  0.25620631148E+01 -0.13371283670E+03 -0.65900757942E+02  0.22838037736E+03  0.17300000000E+03 0.  1.
</event>
<event>
 4    1  0.5904698E+000  0.1000000E+03  0.7546771E-02  0.1280296E+00
         21   -1    0    0  501  502  0.00000000000E+00  0.00000000000E+00  0.14380060894E+03  0.14380060894E+03  0.00000000000E+00 0. -1.
         21   -1    0    0  502  503 -0.00000000000E+00 -0.00000000000E+00 -0.25226007294E+03  0.25226007294E+03  0.00000000000E+00 0.  1.
          6    1    1    2  501    0  0.10920983113E+02 -0.74036589231E+02 -0.25841292199E+02  0.19025629240E+03  0.17300000000E+03 0. -1.
         -6    1    1    2    0  503 -0.10920983113E+02  0.74036589231E+02 -0.82618171792E+02  0.20580438948E+03  0.17300000000E+03 0.  1.
</event>
<event>
 4    1  0.5904698E+000  0.1000000E+03  0.7546771E-02  0.1280296E+00
         21   -1    0    0  503  502  0.00000000000E+00  0.00000000000E+00  0.44848895360E+03  0.44848895360E+03  0.00000000000E+00 0.  1.
         21   -1    0    0  501  503 -0.00000000000E+00 -0.00000000000E+00 -0.16488539110E+03  0.16488539110E+03  0.00000000000E+00 0.  1.
          6    1    1    2  501    0  0.11085433915E+03  0.72796150201E+02 -0.41554683533E+02  0.22190934121E+03  0.17300000000E+03 0.  1.
         -6    1    1    2    0  502 -0.11085433915E+03 -0.72796150201E+02  0.32515824604E+03  0.39146500349E+03  0.17300000000E+03 0.  1.
</event>
<event>
 4    1  0.5904698E+000  0.1000000E+03  0.7546771E-02  0.1280296E+00
         21   -1    0    0  503  502  0.00000000000E+00  0.00000000000E+00  0.10756261452E+03  0.10756261452E+03  0.00000000000E+00 0.  1.
         21   -1    0    0  501  503 -0.00000000000E+00 -0.00000000000E+00 -0.42003056489E+03  0.42003056489E+03  0.00000000000E+00 0.  1.
          6    1    1    2  501    0 -0.27271750543E+02  0.11372870345E+03 -0.20545037765E+03  0.29294508708E+03  0.17300000000E+03 0.  1.
         -6    1    1    2    0  502  0.27271750543E+02 -0.11372870345E+03 -0.10701757272E+03  0.23464809234E+03  0.17300000000E+03 0.  1.
</event>
<event>
 4    1  0.5904698E+000  0.1000000E+03  0.7546771E-02  0.1280296E+00
         21   -1    0    0  503  502  0.00000000000E+00  0.00000000000E+00  0.17973062631E+03  0.17973062631E+03  0.00000000000E+00 0.  1.
         21   -1    0    0  501  503 -0.00000000000E+00 -0.00000000000E+00 -0.19818436541E+03  0.19818436541E+03  0.00000000000E+00 0.  1.
          6    1    1    2  501    0  0.70137175410E+02 -0.17966810951E+02 -0.30436373517E+02  0.18999316436E+03  0.17300000000E+03 0.  1.
         -6    1    1    2    0  502 -0.70137175410E+02  0.17966810951E+02  0.11982634425E+02  0.18792182736E+03  0.17300000000E+03 0.  1.
</event>
<event>
 4    1  0.5904698E+000  0.1000000E+03  0.7546771E-02  0.1280296E+00
         21   -1    0    0  503  502  0.00000000000E+00  0.00000000000E+00  0.21213522060E+02  0.21213522060E+02  0.00000000000E+00 0. -1.
         21   -1    0    0  501  503 -0.00000000000E+00 -0.00000000000E+00 -0.27188366268E+04  0.27188366268E+04  0.00000000000E+00 0.  1.
          6    1    1    2  501    0  0.26596246360E+02 -0.14851297201E+03 -0.94609099799E+03  0.97354026093E+03  0.17300000000E+03 0. -1.
         -6    1    1    2    0  502 -0.26596246360E+02  0.14851297201E+03 -0.17515321068E+04  0.17665098879E+04  0.17300000000E+03 0. -1.
</event>
<event>
 4    1  0.5904698E+000  0.1000000E+03  0.7546771E-02  0.1280296E+00
         21   -1    0    0  503  502  0.00000000000E+00  0.00000000000E+00  0.21455662302E+04  0.21455662302E+04  0.00000000000E+00 0. -1.
         21   -1    0    0  501  503 -0.00000000000E+00 -0.00000000000E+00 -0.31984953418E+02  0.31984953418E+02  0.00000000000E+00 0.  1.
          6    1    1    2  501    0  0.13451131991E+02 -0.14913666024E+03  0.52658561616E+03  0.57414639904E+03  0.17300000000E+03 0. -1.
         -6    1    1    2    0  502 -0.13451131991E+02  0.14913666024E+03  0.15869956606E+04  0.16034047845E+04  0.17300000000E+03 0. -1.
</event>
<event>
 4    1  0.5904698E+000  0.1000000E+03  0.7546771E-02  0.1280296E+00
         21   -1    0    0  501  502  0.00000000000E+00  0.00000000000E+00  0.80514439554E+03  0.80514439554E+03  0.00000000000E+00 0. -1.
         21   -1    0    0  502  503 -0.00000000000E+00 -0.00000000000E+00 -0.10008414434E+03  0.10008414434E+03  0.00000000000E+00 0.  1.
          6    1    1    2  501    0  0.10726717276E+02  0.13944725274E+03  0.63367952419E+03  0.67159462337E+03  0.17300000000E+03 0. -1.
         -6    1    1    2    0  503 -0.10726717276E+02 -0.13944725274E+03  0.71380727010E+02  0.23363391652E+03  0.17300000000E+03 0.  1.
</event>
<event>
 4    1  0.5904698E+000  0.1000000E+03  0.7546771E-02  0.1280296E+00
         21   -1    0    0  503  502  0.00000000000E+00  0.00000000000E+00  0.64606761970E+02  0.64606761970E+02  0.00000000000E+00 0.  1.
         21   -1    0    0  501  503 -0.00000000000E+00 -0.00000000000E+00 -0.65804978722E+03  0.65804978722E+03  0.00000000000E+00 0. -1.
          6    1    1    2  501    0  0.10619391796E+03  0.16483571913E+02 -0.24030045807E+03  0.31499550235E+03  0.17300000000E+03 0.  1.
         -6    1    1    2    0  502 -0.10619391796E+03 -0.16483571913E+02 -0.35314256718E+03  0.40766104684E+03  0.17300000000E+03 0. -1.
</event>
<event>
 4    1  0.5904698E+000  0.1000000E+03  0.7546771E-02  0.1280296E+00
         21   -1    0    0  503  502  0.00000000000E+00  0.00000000000E+00  0.14982459902E+03  0.14982459902E+03  0.00000000000E+00 0.  1.
         21   -1    0    0  501  503 -0.00000000000E+00 -0.00000000000E+00 -0.58747022579E+03  0.58747022579E+03  0.00000000000E+00 0. -1.
          6    1    1    2  501    0 -0.65546645134E+02  0.78851090460E+02 -0.48985097847E+03  0.52952510636E+03  0.17300000000E+03 0.  1.
         -6    1    1    2    0  502  0.65546645134E+02 -0.78851090460E+02  0.52205351705E+02  0.20776971844E+03  0.17300000000E+03 0. -1.
</event>
<event>
 4    1  0.5904698E+000  0.1000000E+03  0.7546771E-02  0.1280296E+00
         21   -1    0    0  503  502  0.00000000000E+00  0.00000000000E+00  0.13261966002E+04  0.13261966002E+04  0.00000000000E+00 0.  1.
         21   -1    0    0  501  503 -0.00000000000E+00 -0.00000000000E+00 -0.57977002678E+02  0.57977002678E+02  0.00000000000E+00 0.  1.
          6    1    1    2  501    0 -0.17854958927E+03 -0.10261635855E+03  0.80246493234E+03  0.84633860866E+03  0.17300000000E+03 0.  1.
         -6    1    1    2    0  502  0.17854958927E+03  0.10261635855E+03  0.46575466519E+03  0.53783499422E+03  0.17300000000E+03 0.  1.
</event>
<event>
 4    1  0.5904698E+000  0.1000000E+03  0.7546771E-02  0.1280296E+00
         21   -1    0    0  503  502  0.00000000000E+00  0.00000000000E+00  0.28268375955E+03  0.28268375955E+03  0.00000000000E+00 0.  1.
         21   -1    0    0  501  503 -0.00000000000E+00 -0.00000000000E+00 -0.19309627578E+03  0.19309627578E+03  0.00000000000E+00 0.  1.
          6    1    1    2  501    0 -0.31671269979E+02 -0.51648911321E+02 -0.10270846554E+03  0.21011594008E+03  0.17300000000E+03 0.  1.
         -6    1    1    2    0  502  0.31671269979E+02  0.51648911321E+02  0.19229594931E+03  0.26566409525E+03  0.17300000000E+03 0.  1.
</event>
<event>
 4    1  0.5904698E+000  0.1000000E+03  0.7546771E-02  0.1280296E+00
         21   -1    0    0  501  502  0.00000000000E+00  0.00000000000E+00  0.14934718456E+03  0.14934718456E+03  0.00000000000E+00 0.  1.
         21   -1    0    0  502  503 -0.00000000000E+00 -0.00000000000E+00 -0.31248965497E+03  0.31248965497E+03  0.00000000000E+00 0.  1.
          6    1    1    2  501    0  0.49845095028E+02 -0.10613073520E+02  0.45549762958E+02  0.18601331063E+03  0.17300000000E+03 0.  1.
         -6    1    1    2    0  503 -0.49845095028E+02  0.10613073520E+02 -0.20869223337E+03  0.27582352890E+03  0.17300000000E+03 0.  1.
</event>
<event>
 4    1  0.5904698E+000  0.1000000E+03  0.7546771E-02  0.1280296E+00
         21   -1    0    0  503  502  0.00000000000E+00  0.00000000000E+00  0.11663583670E+04  0.11663583670E+04  0.00000000000E+00 0.  1.
         21   -1    0    0  501  503 -0.00000000000E+00 -0.00000000000E+00 -0.85084557382E+02  0.85084557382E+02  0.00000000000E+00 0.  1.
          6    1    1    2  501    0 -0.64718422730E+02 -0.17196071121E+03  0.16612437784E+03  0.30213452195E+03  0.17300000000E+03 0.  1.
         -6    1    1    2    0  502  0.64718422730E+02  0.17196071121E+03  0.91514943176E+03  0.94930840242E+03  0.17300000000E+03 0.  1.
</event>
<event>
 4    1  0.5904698E+000  0.1000000E+03  0.7546771E-02  0.1280296E+00
         21   -1    0    0  503  502  0.00000000000E+00  0.00000000000E+00  0.72096948668E+03  0.72096948668E+03  0.00000000000E+00 0. -1.
         21   -1    0    0  501  503 -0.00000000000E+00 -0.00000000000E+00 -0.84754907889E+02  0.84754907889E+02  0.00000000000E+00 0.  1.
          6    1    1    2  501    0 -0.16760245806E+03 -0.52703185114E+01  0.22797950654E+03  0.33169566715E+03  0.17300000000E+03 0.  1.
         -6    1    1    2    0  502  0.16760245806E+03  0.52703185114E+01  0.40823507225E+03  0.47402872742E+03  0.17300000000E+03 0.  1.
</event>
<event>
 4    1  0.5904698E+000  0.1000000E+03  0.7546771E-02  0.1280296E+00
         21   -1    0    0  503  502  0.00000000000E+00  0.00000000000E+00  0.71701109767E+03  0.71701109767E+03  0.00000000000E+00 0.  1.
         21   -1    0    0  501  503 -0.00000000000E+00 -0.00000000000E+00 -0.50432443485E+02  0.50432443485E+02  0.00000000000E+00 0.  1.
          6    1    1    2  501    0  0.14041679348E+02 -0.56437702083E+02  0.22557761927E+03  0.29016658197E+03  0.17300000000E+03 0.  1.
         -6    1    1    2    0  502 -0.14041679348E+02  0.56437702083E+02  0.44100103492E+03  0.47727695919E+03  0.17300000000E+03 0.  1.
</event>
<event>
 4    1  0.5904698E+000  0.1000000E+03  0.7546771E-02  0.1280296E+00
         21   -1    0    0  503  502  0.00000000000E+00  0.00000000000E+00  0.86293733958E+02  0.86293733958E+02  0.00000000000E+00 0.  1.
         21   -1    0    0  501  503 -0.00000000000E+00 -0.00000000000E+00 -0.68250983600E+03  0.68250983600E+03  0.00000000000E+00 0.  1.
          6    1    1    2  501    0  0.13065869932E+03  0.35751645076E+02 -0.46131977260E+03  0.51097437159E+03  0.17300000000E+03 0.  1.
         -6    1    1    2    0  502 -0.13065869932E+03 -0.35751645076E+02 -0.13489632944E+03  0.25782919837E+03  0.17300000000E+03 0.  1.
</event>
<event>
 4    1  0.5904698E+000  0.1000000E+03  0.7546771E-02  0.1280296E+00
         21   -1    0    0  503  502  0.00000000000E+00  0.00000000000E+00  0.26782827040E+03  0.26782827040E+03  0.00000000000E+00 0.  1.
         21   -1    0    0  501  503 -0.00000000000E+00 -0.00000000000E+00 -0.14400834239E+03  0.14400834239E+03  0.00000000000E+00 0.  1.
          6    1    1    2  501    0  0.10441520167E+02 -0.86474685570E+02  0.27875995491E+02  0.19568589043E+03  0.17300000000E+03 0.  1.
         -6    1    1    2    0  502 -0.10441520167E+02  0.86474685570E+02  0.95943932524E+02  0.21615072236E+03  0.17300000000E+03 0.  1.
</event>
<event>
 4    1  0.5904698E+000  0.1000000E+03  0.7546771E-02  0.1280296E+00
         21   -1    0    0  503  502  0.00000000000E+00  0.00000000000E+00  0.25486833486E+03  0.25486833486E+03  0.00000000000E+00 0.  1.
         21   -1    0    0  501  503 -0.00000000000E+00 -0.00000000000E+00 -0.16762271082E+03  0.16762271082E+03  0.00000000000E+00 0.  1.
          6    1    1    2  501    0 -0.59557583444E+02 -0.65905038262E+02 -0.27934836152E+02  0.19646866133E+03  0.17300000000E+03 0.  1.
         -6    1    1    2    0  502  0.59557583444E+02  0.65905038262E+02  0.11518046020E+03  0.22602238434E+03  0.17300000000E+03 0.  1.
</event>
<event>
 4    1  0.5904698E+000  0.1000000E+03  0.7546771E-02  0.1280296E+00
         21   -1    0    0  503  502  0.00000000000E+00  0.00000000000E+00  0.13999397998E+03  0.13999397998E+03  0.00000000000E+00 0. -1.
         21   -1    0    0  501  503 -0.00000000000E+00 -0.00000000000E+00 -0.83050275805E+03  0.83050275805E+03  0.00000000000E+00 0. -1.
          6    1    1    2  501    0  0.12851068191E+03  0.21325190802E+03 -0.56730086568E+03  0.64323451699E+03  0.17300000000E+03 0. -1.
         -6    1    1    2    0  502 -0.12851068191E+03 -0.21325190802E+03 -0.12320791239E+03  0.32726222103E+03  0.17300000000E+03 0. -1.
</event>
<event>
 4    1  0.5904698E+000  0.1000000E+03  0.7546771E-02  0.1280296E+00
         21   -1    0    0  503  502  0.00000000000E+00  0.00000000000E+00  0.49898396824E+03  0.49898396824E+03  0.00000000000E+00 0.  1.
         21   -1    0    0  501  503 -0.00000000000E+00 -0.00000000000E+00 -0.14419842843E+03  0.14419842843E+03  0.00000000000E+00 0.  1.
          6    1    1    2  501    0 -0.16929750394E+01 -0.17859195817E+03  0.56751971741E+02  0.25504458431E+03  0.17300000000E+03 0.  1.
         -6    1    1    2    0  502  0.16929750394E+01  0.17859195817E+03  0.29803356807E+03  0.38813781236E+03  0.17300000000E+03 0.  1.
</event>
<event>
 4    1  0.5904698E+000  0.1000000E+03  0.7546771E-02  0.1280296E+00
         21   -1    0    0  503  502  0.00000000000E+00  0.00000000000E+00  0.56337252344E+03  0.56337252344E+03  0.00000000000E+00 0.  1.
         21   -1    0    0  501  503 -0.00000000000E+00 -0.00000000000E+00 -0.97237074004E+02  0.97237074004E+02  0.00000000000E+00 0.  1.
          6    1    1    2  501    0 -0.15311994399E+03 -0.13882665625E+02  0.18391175370E+03  0.29561965226E+03  0.17300000000E+03 0.  1.
         -6    1    1    2    0  502  0.15311994399E+03  0.13882665625E+02  0.28222369573E+03  0.36498994518E+03  0.17300000000E+03 0.  1.
</event>
<event>
 4    1  0.5904698E+000  0.1000000E+03  0.7546771E-02  0.1280296E+00
         21   -1    0    0  501  502  0.00000000000E+00  0.00000000000E+00  0.12942631893E+03  0.12942631893E+03  0.00000000000E+00 0.  1.
         21   -1    0    0  502  503 -0.00000000000E+00 -0.00000000000E+00 -0.46361923574E+03  0.46361923574E+03  0.00000000000E+00 0. -1.
          6    1    1    2  501    0 -0.94940832927E+02 -0.59493884181E+01  0.84322792671E+01  0.19760885687E+03  0.17300000000E+03 0.  1.
         -6    1    1    2    0  503  0.94940832927E+02  0.59493884181E+01 -0.34262519608E+03  0.39543669780E+03  0.17300000000E+03 0. -1.
</event>
<event>
 4    1  0.5904698E+000  0.1000000E+03  0.7546771E-02  0.1280296E+00
         21   -1    0    0  501  502  0.00000000000E+00  0.00000000000E+00  0.67006034533E+03  0.67006034533E+03  0.00000000000E+00 0.  1.
         21   -1    0    0  502  503 -0.00000000000E+00 -0.00000000000E+00 -0.10602508944E+04  0.10602508944E+04  0.00000000000E+00 0. -1.
          6    1    1    2  501    0 -0.31069327494E+03  0.48263473971E+03  0.41305243437E+03  0.72801642605E+03  0.17300000000E+03 0.  1.
         -6    1    1    2    0  503  0.31069327494E+03 -0.48263473971E+03 -0.80324298340E+03  0.10022948136E+04  0.17300000000E+03 0. -1.
</event>
<event>
 4    1  0.5904698E+000  0.1000000E+03  0.7546771E-02  0.1280296E+00
         21   -1    0    0  501  502  0.00000000000E+00  0.00000000000E+00  0.90936050009E+03  0.90936050009E+03  0.00000000000E+00 0.  1.
         21   -1    0    0  502  503 -0.00000000000E+00 -0.00000000000E+00 -0.16669875431E+03  0.16669875431E+03  0.00000000000E+00 0. -1.
          6    1    1    2  501    0  0.20039996835E+03  0.11818770759E+03  0.73043969376E+03  0.78587507134E+03  0.17300000000E+03 0.  1.
         -6    1    1    2    0  503 -0.20039996835E+03 -0.11818770759E+03  0.12222052024E+02  0.29018418306E+03  0.17300000000E+03 0. -1.
</event>
<event>
 4    1  0.5904698E+000  0.1000000E+03  0.7546771E-02  0.1280296E+00
         21   -1    0    0  503  502  0.00000000000E+00  0.00000000000E+00  0.28167749593E+03  0.28167749593E+03  0.00000000000E+00 0.  1.
         21   -1    0    0  501  503 -0.00000000000E+00 -0.00000000000E+00 -0.16692231860E+03  0.16692231860E+03  0.00000000000E+00 0. -1.
          6    1    1    2  501    0  0.38917543572E+02  0.32771038205E+02 -0.67185958047E+02  0.19243562327E+03  0.17300000000E+03 0.  1.
         -6    1    1    2    0  502 -0.38917543572E+02 -0.32771038205E+02  0.18194113537E+03  0.25616419126E+03  0.17300000000E+03 0.  1.
</event>
<event>
 4    1  0.5904698E+000  0.1000000E+03  0.7546771E-02  0.1280296E+00
         21   -1    0    0  503  502  0.00000000000E+00  0.00000000000E+00  0.42283065455E+02  0.42283065455E+02  0.00000000000E+00 0. -1.
         21   -1    0    0  501  503 -0.00000000000E+00 -0.00000000000E+00 -0.83613460289E+03  0.83613460289E+03  0.00000000000E+00 0.  1.
          6    1    1    2  501    0  0.29394904274E+02 -0.14062261222E+02 -0.24262483739E+03  0.29976260492E+03  0.17300000000E+03 0. -1.
         -6    1    1    2    0  502 -0.29394904274E+02  0.14062261222E+02 -0.55122670004E+03  0.57865506342E+03  0.17300000000E+03 0.  1.
</event>
<event>
 4    1  0.5904698E+000  0.1000000E+03  0.7546771E-02  0.1280296E+00
         21   -1    0    0  503  502  0.00000000000E+00  0.00000000000E+00  0.25620895636E+03  0.25620895636E+03  0.00000000000E+00 0. -1.
         21   -1    0    0  501  503 -0.00000000000E+00 -0.00000000000E+00 -0.19604888971E+03  0.19604888971E+03  0.00000000000E+00 0.  1.
          6    1    1    2  501    0 -0.87057066583E+02 -0.92603861900E+02 -0.34887332407E+02  0.21748685947E+03  0.17300000000E+03 0. -1.
         -6    1    1    2    0  502  0.87057066583E+02  0.92603861900E+02  0.95047399055E+02  0.23477098660E+03  0.17300000000E+03 0.  1.
</event>
<event>
 4    1  0.5904698E+000  0.1000000E+03  0.7546771E-02  0.1280296E+00
         21   -1    0    0  503  502  0.00000000000E+00  0.00000000000E+00  0.15051361793E+04  0.15051361793E+04  0.00000000000E+00 0. -1.
         21   -1    0    0  501  503 -0.00000000000E+00 -0.00000000000E+00 -0.35557874865E+02  0.35557874865E+02  0.00000000000E+00 0.  1.
          6    1    1    2  501    0 -0.88869008251E+02 -0.12397554959E+03  0.67496153865E+03  0.71328095179E+03  0.17300000000E+03 0. -1.
         -6    1    1    2    0  502  0.88869008251E+02  0.12397554959E+03  0.79461676579E+03  0.82741310239E+03  0.17300000000E+03 0.  1.
</event>
<event>
 4    1  0.5904698E+000  0.1000000E+03  0.7546771E-02  0.1280296E+00
         21   -1    0    0  503  502  0.00000000000E+00  0.00000000000E+00  0.17843905901E+04  0.17843905901E+04  0.00000000000E+00 0. -1.
         21   -1    0    0  501  503 -0.00000000000E+00 -0.00000000000E+00 -0.49661266666E+02  0.49661266666E+02  0.00000000000E+00 0. -1.
          6    1    1    2  501    0 -0.21313847823E+03  0.37217608992E+02  0.53169907922E+03  0.59953821576E+03  0.17300000000E+03 0. -1.
         -6    1    1    2    0  502  0.21313847823E+03 -0.37217608992E+02  0.12030302442E+04  0.12345136410E+04  0.17300000000E+03 0. -1.
</event>
<event>
 4    1  0.5904698E+000  0.1000000E+03  0.7546771E-02  0.1280296E+00
         21   -1    0    0  503  502  0.00000000000E+00  0.00000000000E+00  0.33927298358E+03  0.33927298358E+03  0.00000000000E+00 0.  1.
         21   -1    0    0  501  503 -0.00000000000E+00 -0.00000000000E+00 -0.35868614299E+03  0.35868614299E+03  0.00000000000E+00 0. -1.
          6    1    1    2  501    0  0.92173949394E+02 -0.24898607914E+03 -0.15561711327E+03  0.35303794484E+03  0.17300000000E+03 0. -1.
         -6    1    1    2    0  502 -0.92173949394E+02  0.24898607914E+03  0.13620395387E+03  0.34492118173E+03  0.17300000000E+03 0.  1.
</event>
<event>
 4    1  0.5904698E+000  0.1000000E+03  0.7546771E-02  0.1280296E+00
         21   -1    0    0  503  502  0.00000000000E+00  0.00000000000E+00  0.16415452919E+03  0.16415452919E+03  0.00000000000E+00 0.  1.
         21   -1    0    0  501  503 -0.00000000000E+00 -0.00000000000E+00 -0.51776526621E+03  0.51776526621E+03  0.00000000000E+00 0. -1.
          6    1    1    2  501    0 -0.13274278407E+03  0.18612485539E+03 -0.11490426948E+03  0.30886097141E+03  0.17300000000E+03 0. -1.
         -6    1    1    2    0  502  0.13274278407E+03 -0.18612485539E+03 -0.23870646754E+03  0.37305882399E+03  0.17300000000E+03 0.  1.
</event>
<event>
 4    1  0.5904698E+000  0.1000000E+03  0.7546771E-02  0.1280296E+00
         21   -1    0    0  503  502  0.00000000000E+00  0.00000000000E+00  0.34203873706E+03  0.34203873706E+03  0.00000000000E+00 0.  1.
         21   -1    0    0  501  503 -0.00000000000E+00 -0.00000000000E+00 -0.11878035025E+04  0.11878035025E+04  0.00000000000E+00 0. -1.
          6    1    1    2  501    0  0.56842909008E+02 -0.43443381309E+03 -0.93818922927E+03  0.10498056412E+04  0.17300000000E+03 0. -1.
         -6    1    1    2    0  502 -0.56842909008E+02  0.43443381309E+03  0.92424463861E+02  0.48003659838E+03  0.17300000000E+03 0.  1.
</event>
<event>
 4    1  0.5904698E+000  0.1000000E+03  0.7546771E-02  0.1280296E+00
         21   -1    0    0  503  502  0.00000000000E+00  0.00000000000E+00  0.27457583918E+03  0.27457583918E+03  0.00000000000E+00 0.  1.
         21   -1    0    0  501  503 -0.00000000000E+00 -0.00000000000E+00 -0.26255516163E+03  0.26255516163E+03  0.00000000000E+00 0.  1.
          6    1    1    2  501    0 -0.11593419803E+03  0.16706097219E+03  0.34516550703E+02  0.26920345275E+03  0.17300000000E+03 0.  1.
         -6    1    1    2    0  502  0.11593419803E+03 -0.16706097219E+03 -0.22495873150E+02  0.26792754806E+03  0.17300000000E+03 0.  1.
</event>
<event>
 4    1  0.5904698E+000  0.1000000E+03  0.7546771E-02  0.1280296E+00
         21   -1    0    0  503  502  0.00000000000E+00  0.00000000000E+00  0.33963317703E+03  0.33963317703E+03  0.00000000000E+00 0.  1.
         21   -1    0    0  501  503 -0.00000000000E+00 -0.00000000000E+00 -0.23970442805E+03  0.23970442805E+03  0.00000000000E+00 0.  1.
          6    1    1    2  501    0 -0.64535702304E+02  0.21095316150E+03 -0.39137198627E+01  0.28037548113E+03  0.17300000000E+03 0.  1.
         -6    1    1    2    0  502  0.64535702304E+02 -0.21095316150E+03  0.10384246885E+03  0.29896212394E+03  0.17300000000E+03 0.  1.
</event>
<event>
 4    1  0.5904698E+000  0.1000000E+03  0.7546771E-02  0.1280296E+00
         21   -1    0    0  503  502  0.00000000000E+00  0.00000000000E+00  0.25942921819E+03  0.25942921819E+03  0.00000000000E+00 0.  1.
         21   -1    0    0  501  503 -0.00000000000E+00 -0.00000000000E+00 -0.31523818556E+03  0.31523818556E+03  0.00000000000E+00 0.  1.
          6    1    1    2  501    0  0.12600190886E+03 -0.37410759863E+02 -0.21473639482E+03  0.30547792924E+03  0.17300000000E+03 0.  1.
         -6    1    1    2    0  502 -0.12600190886E+03  0.37410759863E+02  0.15892742746E+03  0.26918947451E+03  0.17300000000E+03 0.  1.
</event>
<event>
 4    1  0.5904698E+000  0.1000000E+03  0.7546771E-02  0.1280296E+00
         21   -1    0    0  503  502  0.00000000000E+00  0.00000000000E+00  0.32259303737E+03  0.32259303737E+03  0.00000000000E+00 0.  1.
         21   -1    0    0  501  503 -0.00000000000E+00 -0.00000000000E+00 -0.11903718827E+03  0.11903718827E+03  0.00000000000E+00 0.  1.
          6    1    1    2  501    0 -0.18090773936E+02 -0.52380125784E+02  0.18968158887E+02  0.18264650210E+03  0.17300000000E+03 0.  1.
         -6    1    1    2    0  502  0.18090773936E+02  0.52380125784E+02  0.18458769021E+03  0.25898372354E+03  0.17300000000E+03 0.  1.
</event>
<event>
 4    1  0.5904698E+000  0.1000000E+03  0.7546771E-02  0.1280296E+00
         21   -1    0    0  503  502  0.00000000000E+00  0.00000000000E+00  0.19135771784E+03  0.19135771784E+03  0.00000000000E+00 0.  1.
         21   -1    0    0  501  503 -0.00000000000E+00 -0.00000000000E+00 -0.18914056074E+03  0.18914056074E+03  0.00000000000E+00 0. -1.
          6    1    1    2  501    0  0.65106280302E+02  0.32411413410E+02 -0.30119801365E+02  0.19006717204E+03  0.17300000000E+03 0. -1.
         -6    1    1    2    0  502 -0.65106280302E+02 -0.32411413410E+02  0.32336958466E+02  0.19043110654E+03  0.17300000000E+03 0. -1.
</event>
<event>
 4    1  0.5904698E+000  0.1000000E+03  0.7546771E-02  0.1280296E+00
         21   -1    0    0  503  502  0.00000000000E+00  0.00000000000E+00  0.42634380626E+02  0.42634380626E+02  0.00000000000E+00 0. -1.
         21   -1    0    0  501  503 -0.00000000000E+00 -0.00000000000E+00 -0.11918714745E+04  0.11918714745E+04  0.00000000000E+00 0.  1.
          6    1    1    2  501    0 -0.19339206035E+02 -0.29806421271E+02 -0.95819700191E+03  0.97433717065E+03  0.17300000000E+03 0. -1.
         -6    1    1    2    0  502  0.19339206035E+02  0.29806421271E+02 -0.19104009192E+03  0.26016868444E+03  0.17300000000E+03 0. -1.
</event>
<event>
 4    1  0.5904698E+000  0.1000000E+03  0.7546771E-02  0.1280296E+00
         21   -1    0    0  503  502  0.00000000000E+00  0.00000000000E+00  0.88067475598E+02  0.88067475598E+02  0.00000000000E+00 0. -1.
         21   -1    0    0  501  503 -0.00000000000E+00 -0.00000000000E+00 -0.58193155014E+03  0.58193155014E+03  0.00000000000E+00 0.  1.
          6    1    1    2  501    0 -0.14181398350E+02  0.13936286808E+03 -0.18597035798E+03  0.29006395003E+03  0.17300000000E+03 0. -1.
         -6    1    1    2    0  502  0.14181398350E+02 -0.13936286808E+03 -0.30789371655E+03  0.37993507571E+03  0.17300000000E+03 0. -1.
</event>
<event>
 4    1  0.5904698E+000  0.1000000E+03  0.7546771E-02  0.1280296E+00
         21   -1    0    0  501  502  0.00000000000E+00  0.00000000000E+00  0.51254236487E+02  0.51254236487E+02  0.00000000000E+00 0. -1.
         21   -1    0    0  502  503 -0.00000000000E+00 -0.00000000000E+00 -0.16149296421E+04  0.16149296421E+04  0.00000000000E+00 0. -1.
          6    1    1    2  501    0 -0.14468736326E+03 -0.30739407972E+02 -0.12913765033E+04  0.13112824325E+04  0.17300000000E+03 0. -1.
         -6    1    1    2    0  503  0.14468736326E+03  0.30739407972E+02 -0.27229890230E+03  0.35490144616E+03  0.17300000000E+03 0. -1.
</event>
<event>
 4    1  0.5904698E+000  0.1000000E+03  0.7546771E-02  0.1280296E+00
         21   -1    0    0  501  502  0.00000000000E+00  0.00000000000E+00  0.37927271098E+03  0.37927271098E+03  0.00000000000E+00 0. -1.
         21   -1    0    0  502  503 -0.00000000000E+00 -0.00000000000E+00 -0.16976788175E+03  0.16976788175E+03  0.00000000000E+00 0. -1.
          6    1    1    2  501    0 -0.89852745869E+02 -0.99322881611E+02  0.24380724871E+03  0.32758132620E+03  0.17300000000E+03 0. -1.
         -6    1    1    2    0  503  0.89852745869E+02  0.99322881611E+02 -0.34302419476E+02  0.22145926653E+03  0.17300000000E+03 0. -1.
</event>
<event>
 4    1  0.5904698E+000  0.1000000E+03  0.7546771E-02  0.1280296E+00
         21   -1    0    0  501  502  0.00000000000E+00  0.00000000000E+00  0.17416471946E+03  0.17416471946E+03  0.00000000000E+00 0. -1.
         21   -1    0    0  502  503 -0.00000000000E+00 -0.00000000000E+00 -0.46587350043E+03  0.46587350043E+03  0.00000000000E+00 0. -1.
          6    1    1    2  501    0 -0.13507194479E+03  0.17357801165E+03 -0.20568352464E+03  0.34728729995E+03  0.17300000000E+03 0. -1.
         -6    1    1    2    0  503  0.13507194479E+03 -0.17357801165E+03 -0.86025256340E+02  0.29275091994E+03  0.17300000000E+03 0. -1.
</event>
<event>
 4    1  0.5904698E+000  0.1000000E+03  0.7546771E-02  0.1280296E+00
         21   -1    0    0  501  502  0.00000000000E+00  0.00000000000E+00  0.40459119460E+03  0.40459119460E+03  0.00000000000E+00 0. -1.
         21   -1    0    0  502  503 -0.00000000000E+00 -0.00000000000E+00 -0.14060484008E+03  0.14060484008E+03  0.00000000000E+00 0. -1.
          6    1    1    2  501    0  0.65577477287E+02  0.19540067491E+02  0.30257607497E+03  0.35519501814E+03  0.17300000000E+03 0. -1.
         -6    1    1    2    0  503 -0.65577477287E+02 -0.19540067491E+02 -0.38589720450E+02  0.19000101655E+03  0.17300000000E+03 0. -1.
</event>
<event>
 4    1  0.5904698E+000  0.1000000E+03  0.7546771E-02  0.1280296E+00
         21   -1    0    0  501  502  0.00000000000E+00  0.00000000000E+00  0.56756433669E+03  0.56756433669E+03  0.00000000000E+00 0. -1.
         21   -1    0    0  502  503 -0.00000000000E+00 -0.00000000000E+00 -0.81759425256E+02  0.81759425256E+02  0.00000000000E+00 0. -1.
          6    1    1    2  501    0  0.76153870205E+02  0.10328103020E+03  0.24725776839E+03  0.32792039762E+03  0.17300000000E+03 0. -1.
         -6    1    1    2    0  503 -0.76153870205E+02 -0.10328103020E+03  0.23854714305E+03  0.32140336433E+03  0.17300000000E+03 0. -1.
</event>
<event>
 4    1  0.5904698E+000  0.1000000E+03  0.7546771E-02  0.1280296E+00
         21   -1    0    0  503  502  0.00000000000E+00  0.00000000000E+00  0.65219557677E+03  0.65219557677E+03  0.00000000000E+00 0. -1.
         21   -1    0    0  501  503 -0.00000000000E+00 -0.00000000000E+00 -0.21047567526E+03  0.21047567526E+03  0.00000000000E+00 0. -1.
          6    1    1    2  501    0 -0.47814574479E+02  0.11120733384E+03 -0.13357745372E+03  0.24985043681E+03  0.17300000000E+03 0. -1.
         -6    1    1    2    0  502  0.47814574479E+02 -0.11120733384E+03  0.57529735523E+03  0.61282081522E+03  0.17300000000E+03 0. -1.
</event>
<event>
 4    1  0.5904698E+000  0.1000000E+03  0.7546771E-02  0.1280296E+00
         21   -1    0    0  503  502  0.00000000000E+00  0.00000000000E+00  0.54200744744E+02  0.54200744744E+02  0.00000000000E+00 0.  1.
         21   -1    0    0  501  503 -0.00000000000E+00 -0.00000000000E+00 -0.72248148960E+03  0.72248148960E+03  0.00000000000E+00 0.  1.
          6    1    1    2  501    0 -0.30425037372E+02  0.14091709847E+02 -0.51082333589E+03  0.54036445079E+03  0.17300000000E+03 0. -1.
         -6    1    1    2    0  502  0.30425037372E+02 -0.14091709847E+02 -0.15745740896E+03  0.23631778355E+03  0.17300000000E+03 0. -1.
</event>
<event>
 4    1  0.5904698E+000  0.1000000E+03  0.7546771E-02  0.1280296E+00
         21   -1    0    0  503  502  0.00000000000E+00  0.00000000000E+00  0.40282457826E+03  0.40282457826E+03  0.00000000000E+00 0.  1.
         21   -1    0    0  501  503 -0.00000000000E+00 -0.00000000000E+00 -0.23847498008E+03  0.23847498008E+03  0.00000000000E+00 0.  1.
          6    1    1    2  501    0 -0.77986692760E+02 -0.19110648414E+03 -0.76523209113E+02  0.27997931006E+03  0.17300000000E+03 0. -1.
         -6    1    1    2    0  502  0.77986692760E+02  0.19110648414E+03  0.24087280729E+03  0.36132024828E+03  0.17300000000E+03 0. -1.
</event>
<event>
 4    1  0.5904698E+000  0.1000000E+03  0.7546771E-02  0.1280296E+00
         21   -1    0    0  503  502  0.00000000000E+00  0.00000000000E+00  0.32816244080E+03  0.32816244080E+03  0.00000000000E+00 0.  1.
         21   -1    0    0  501  503 -0.00000000000E+00 -0.00000000000E+00 -0.23978274445E+03  0.23978274445E+03  0.00000000000E+00 0.  1.
          6    1    1    2  501    0 -0.11401080842E+03 -0.47680478028E+02 -0.14106084404E+03  0.25514516288E+03  0.17300000000E+03 0. -1.
         -6    1    1    2    0  502  0.11401080842E+03  0.47680478028E+02  0.22944054039E+03  0.31280002237E+03  0.17300000000E+03 0. -1.
</event>
<event>
 4    1  0.5904698E+000  0.1000000E+03  0.7546771E-02  0.1280296E+00
         21   -1    0    0  503  502  0.00000000000E+00  0.00000000000E+00  0.23740080079E+04  0.23740080079E+04  0.00000000000E+00 0.  1.
         21   -1    0    0  501  503 -0.00000000000E+00 -0.00000000000E+00 -0.28375109847E+02  0.28375109847E+02  0.00000000000E+00 0.  1.
          6    1    1    2  501    0  0.13331168041E+03  0.12355332636E+03  0.86595203243E+03  0.90157603732E+03  0.17300000000E+03 0. -1.
         -6    1    1    2    0  502 -0.13331168041E+03 -0.12355332636E+03  0.14796808656E+04  0.15008070804E+04  0.17300000000E+03 0. -1.
</event>
<event>
 4    1  0.5904698E+000  0.1000000E+03  0.7546771E-02  0.1280296E+00
         21   -1    0    0  503  502  0.00000000000E+00  0.00000000000E+00  0.77179967694E+02  0.77179967694E+02  0.00000000000E+00 0. -1.
         21   -1    0    0  501  503 -0.00000000000E+00 -0.00000000000E+00 -0.73216312983E+03  0.73216312983E+03  0.00000000000E+00 0. -1.
          6    1    1    2  501    0 -0.12127075595E+03 -0.48817815609E+02 -0.49332394348E+03  0.53887594915E+03  0.17300000000E+03 0. -1.
         -6    1    1    2    0  502  0.12127075595E+03  0.48817815609E+02 -0.16165921865E+03  0.27046714837E+03  0.17300000000E+03 0. -1.
</event>
<event>
 4    1  0.5904698E+000  0.1000000E+03  0.7546771E-02  0.1280296E+00
         21   -1    0    0  503  502  0.00000000000E+00  0.00000000000E+00  0.27344421432E+03  0.27344421432E+03  0.00000000000E+00 0. -1.
         21   -1    0    0  501  503 -0.00000000000E+00 -0.00000000000E+00 -0.11804548670E+03  0.11804548670E+03  0.00000000000E+00 0. -1.
          6    1    1    2  501    0 -0.42447894772E+02  0.20539702182E+02  0.65462257193E+02  0.19088742822E+03  0.17300000000E+03 0. -1.
         -6    1    1    2    0  502  0.42447894772E+02 -0.20539702182E+02  0.89936470429E+02  0.20060227279E+03  0.17300000000E+03 0. -1.
</event>
<event>
 4    1  0.5904698E+000  0.1000000E+03  0.7546771E-02  0.1280296E+00
         21   -1    0    0  503  502  0.00000000000E+00  0.00000000000E+00  0.20943479146E+03  0.20943479146E+03  0.00000000000E+00 0. -1.
         21   -1    0    0  501  503 -0.00000000000E+00 -0.00000000000E+00 -0.15666149483E+03  0.15666149483E+03  0.00000000000E+00 0. -1.
          6    1    1    2  501    0  0.27391801841E+02  0.45912843507E+02  0.21533093120E+02  0.18234849631E+03  0.17300000000E+03 0. -1.
         -6    1    1    2    0  502 -0.27391801841E+02 -0.45912843507E+02  0.31240203503E+02  0.18374778998E+03  0.17300000000E+03 0. -1.
</event>
<event>
 4    1  0.5904698E+000  0.1000000E+03  0.7546771E-02  0.1280296E+00
         21   -1    0    0  503  502  0.00000000000E+00  0.00000000000E+00  0.60264542829E+03  0.60264542829E+03  0.00000000000E+00 0. -1.
         21   -1    0    0  501  503 -0.00000000000E+00 -0.00000000000E+00 -0.35806079342E+03  0.35806079342E+03  0.00000000000E+00 0. -1.
          6    1    1    2  501    0 -0.68022586138E+02  0.19713500037E+02 -0.31744907282E+03  0.36840006534E+03  0.17300000000E+03 0. -1.
         -6    1    1    2    0  502  0.68022586138E+02 -0.19713500037E+02  0.56203370769E+03  0.59230615638E+03  0.17300000000E+03 0. -1.
</event>
<event>
 4    1  0.5904698E+000  0.1000000E+03  0.7546771E-02  0.1280296E+00
         21   -1    0    0  503  502  0.00000000000E+00  0.00000000000E+00  0.44675497173E+03  0.44675497173E+03  0.00000000000E+00 0. -1.
         21   -1    0    0  501  503 -0.00000000000E+00 -0.00000000000E+00 -0.13863901212E+03  0.13863901212E+03  0.00000000000E+00 0. -1.
          6    1    1    2  501    0 -0.13866730503E+03 -0.57879134658E+02  0.39849622892E+02  0.23258462580E+03  0.17300000000E+03 0.  1.
         -6    1    1    2    0  502  0.13866730503E+03  0.57879134658E+02  0.26826633671E+03  0.35280935805E+03  0.17300000000E+03 0.  1.
</event>
<event>
 4    1  0.5904698E+000  0.1000000E+03  0.7546771E-02  0.1280296E+00
         21   -1    0    0  503  502  0.00000000000E+00  0.00000000000E+00  0.92839699041E+03  0.92839699041E+03  0.00000000000E+00 0. -1.
         21   -1    0    0  501  503 -0.00000000000E+00 -0.00000000000E+00 -0.72986470735E+02  0.72986470735E+02  0.00000000000E+00 0. -1.
          6    1    1    2  501    0 -0.73429244773E+02 -0.10313528571E+03  0.71171765959E+03  0.74330328139E+03  0.17300000000E+03 0.  1.
         -6    1    1    2    0  502  0.73429244773E+02  0.10313528571E+03  0.14369286008E+03  0.25808017976E+03  0.17300000000E+03 0.  1.
</event>
<event>
 4    1  0.5904698E+000  0.1000000E+03  0.7546771E-02  0.1280296E+00
         21   -1    0    0  501  502  0.00000000000E+00  0.00000000000E+00  0.19623793858E+03  0.19623793858E+03  0.00000000000E+00 0. -1.
         21   -1    0    0  502  503 -0.00000000000E+00 -0.00000000000E+00 -0.35739171944E+03  0.35739171944E+03  0.00000000000E+00 0.  1.
          6    1    1    2  501    0  0.60322760410E+02 -0.68741772267E+02  0.10593902077E+03  0.22252267929E+03  0.17300000000E+03 0.  1.
         -6    1    1    2    0  503 -0.60322760410E+02  0.68741772267E+02 -0.26709280163E+03  0.33110697873E+03  0.17300000000E+03 0. -1.
</event>
<event>
 4    1  0.5904698E+000  0.1000000E+03  0.7546771E-02  0.1280296E+00
         21   -1    0    0  501  502  0.00000000000E+00  0.00000000000E+00  0.11227706188E+03  0.11227706188E+03  0.00000000000E+00 0. -1.
         21   -1    0    0  502  503 -0.00000000000E+00 -0.00000000000E+00 -0.29410791729E+03  0.29410791729E+03  0.00000000000E+00 0.  1.
          6    1    1    2  501    0  0.49415075255E+02  0.58681157726E+01 -0.63156622777E+02  0.19077222923E+03  0.17300000000E+03 0.  1.
         -6    1    1    2    0  503 -0.49415075255E+02 -0.58681157726E+01 -0.11867423263E+03  0.21561274994E+03  0.17300000000E+03 0. -1.
</event>
<event>
 4    1  0.5904698E+000  0.1000000E+03  0.7546771E-02  0.1280296E+00
         21   -1    0    0  501  502  0.00000000000E+00  0.00000000000E+00  0.12970315339E+03  0.12970315339E+03  0.00000000000E+00 0. -1.
         21   -1    0    0  502  503 -0.00000000000E+00 -0.00000000000E+00 -0.28080542268E+03  0.28080542268E+03  0.00000000000E+00 0.  1.
          6    1    1    2  501    0 -0.46042904514E+02  0.48291349017E+02 -0.26970177287E+02  0.18737234030E+03  0.17300000000E+03 0.  1.
         -6    1    1    2    0  503  0.46042904514E+02 -0.48291349017E+02 -0.12413209200E+03  0.22313623576E+03  0.17300000000E+03 0. -1.
</event>
<event>
 4    1  0.5904698E+000  0.1000000E+03  0.7546771E-02  0.1280296E+00
         21   -1    0    0  501  502  0.00000000000E+00  0.00000000000E+00  0.25105128831E+03  0.25105128831E+03  0.00000000000E+00 0. -1.
         21   -1    0    0  502  503 -0.00000000000E+00 -0.00000000000E+00 -0.15410279181E+03  0.15410279181E+03  0.00000000000E+00 0.  1.
          6    1    1    2  501    0 -0.44106368817E+02 -0.82538472816E+02  0.49356110258E+02  0.20278805903E+03  0.17300000000E+03 0.  1.
         -6    1    1    2    0  503  0.44106368817E+02  0.82538472816E+02  0.47592386246E+02  0.20236602109E+03  0.17300000000E+03 0. -1.
</event>
<event>
 4    1  0.5904698E+000  0.1000000E+03  0.7546771E-02  0.1280296E+00
         21   -1    0    0  503  502  0.00000000000E+00  0.00000000000E+00  0.33816472317E+03  0.33816472317E+03  0.00000000000E+00 0.  1.
         21   -1    0    0  501  503 -0.00000000000E+00 -0.00000000000E+00 -0.22140860214E+03  0.22140860214E+03  0.00000000000E+00 0. -1.
          6    1    1    2  501    0  0.62522829449E+02 -0.56481185340E+02 -0.14053630034E+03  0.23828277364E+03  0.17300000000E+03 0. -1.
         -6    1    1    2    0  502 -0.62522829449E+02  0.56481185340E+02  0.25729242137E+03  0.32129055167E+03  0.17300000000E+03 0.  1.
</event>
<event>
 4    1  0.5904698E+000  0.1000000E+03  0.7546771E-02  0.1280296E+00
         21   -1    0    0  503  502  0.00000000000E+00  0.00000000000E+00  0.73014838038E+02  0.73014838038E+02  0.00000000000E+00 0.  1.
         21   -1    0    0  501  503 -0.00000000000E+00 -0.00000000000E+00 -0.70061718913E+03  0.70061718913E+03  0.00000000000E+00 0. -1.
          6    1    1    2  501    0  0.12105870930E+02 -0.12357156979E+03 -0.44416145083E+03  0.49256966957E+03  0.17300000000E+03 0. -1.
         -6    1    1    2    0  502 -0.12105870930E+02  0.12357156979E+03 -0.18344090025E+03  0.28106235760E+03  0.17300000000E+03 0.  1.
</event>
<event>
 4    1  0.5904698E+000  0.1000000E+03  0.7546771E-02  0.1280296E+00
         21   -1    0    0  503  502  0.00000000000E+00  0.00000000000E+00  0.11740392685E+03  0.11740392685E+03  0.00000000000E+00 0.  1.
         21   -1    0    0  501  503 -0.00000000000E+00 -0.00000000000E+00 -0.57990645966E+03  0.57990645966E+03  0.00000000000E+00 0. -1.
          6    1    1    2  501    0  0.16396488228E+03  0.59669186717E+02 -0.34857508091E+03  0.42647213449E+03  0.17300000000E+03 0. -1.
         -6    1    1    2    0  502 -0.16396488228E+03 -0.59669186717E+02 -0.11392745190E+03  0.27083825203E+03  0.17300000000E+03 0.  1.
</event>
<event>
 4    1  0.5904698E+000  0.1000000E+03  0.7546771E-02  0.1280296E+00
         21   -1    0    0  503  502  0.00000000000E+00  0.00000000000E+00  0.24692544635E+03  0.24692544635E+03  0.00000000000E+00 0. -1.
         21   -1    0    0  501  503 -0.00000000000E+00 -0.00000000000E+00 -0.18217805159E+03  0.18217805159E+03  0.00000000000E+00 0. -1.
          6    1    1    2  501    0  0.10643282724E+03 -0.48826462895E+02  0.69450994386E+02  0.22014633954E+03  0.17300000000E+03 0. -1.
         -6    1    1    2    0  502 -0.10643282724E+03  0.48826462895E+02 -0.47035996234E+01  0.20895715839E+03  0.17300000000E+03 0. -1.
</event>
<event>
 4    1  0.5904698E+000  0.1000000E+03  0.7546771E-02  0.1280296E+00
         21   -1    0    0  503  502  0.00000000000E+00  0.00000000000E+00  0.41618825601E+03  0.41618825601E+03  0.00000000000E+00 0. -1.
         21   -1    0    0  501  503 -0.00000000000E+00 -0.00000000000E+00 -0.29297358189E+03  0.29297358189E+03  0.00000000000E+00 0. -1.
          6    1    1    2  501    0  0.20568562184E+03 -0.36622038239E+02 -0.16168755032E+03  0.31578412348E+03  0.17300000000E+03 0. -1.
         -6    1    1    2    0  502 -0.20568562184E+03  0.36622038239E+02  0.28490222443E+03  0.39337771442E+03  0.17300000000E+03 0. -1.
</event>
<event>
 4    1  0.5904698E+000  0.1000000E+03  0.7546771E-02  0.1280296E+00
         21   -1    0    0  503  502  0.00000000000E+00  0.00000000000E+00  0.63441414889E+03  0.63441414889E+03  0.00000000000E+00 0. -1.
         21   -1    0    0  501  503 -0.00000000000E+00 -0.00000000000E+00 -0.19246813257E+03  0.19246813257E+03  0.00000000000E+00 0. -1.
          6    1    1    2  501    0  0.59907256816E+01  0.18155923090E+03 -0.66846446137E+02  0.25960949613E+03  0.17300000000E+03 0. -1.
         -6    1    1    2    0  502 -0.59907256816E+01 -0.18155923090E+03  0.50879246246E+03  0.56727278533E+03  0.17300000000E+03 0. -1.
</event>
<event>
 4    1  0.5904698E+000  0.1000000E+03  0.7546771E-02  0.1280296E+00
         21   -1    0    0  503  502  0.00000000000E+00  0.00000000000E+00  0.12683477317E+04  0.12683477317E+04  0.00000000000E+00 0.  1.
         21   -1    0    0  501  503 -0.00000000000E+00 -0.00000000000E+00 -0.68512765000E+02  0.68512765000E+02  0.00000000000E+00 0.  1.
          6    1    1    2  501    0 -0.14259468205E+03  0.16726975844E+03  0.38894553209E+03  0.47908250059E+03  0.17300000000E+03 0.  1.
         -6    1    1    2    0  502  0.14259468205E+03 -0.16726975844E+03  0.81088943457E+03  0.85777799607E+03  0.17300000000E+03 0.  1.
</event>
<event>
 4    1  0.5904698E+000  0.1000000E+03  0.7546771E-02  0.1280296E+00
         21   -1    0    0  503  502  0.00000000000E+00  0.00000000000E+00  0.22494621442E+04  0.22494621442E+04  0.00000000000E+00 0.  1.
         21   -1    0    0  501  503 -0.00000000000E+00 -0.00000000000E+00 -0.16897485221E+02  0.16897485221E+02  0.00000000000E+00 0.  1.
          6    1    1    2  501    0 -0.73687475477E+00 -0.21904146436E+01  0.59395319754E+03  0.61863942791E+03  0.17300000000E+03 0.  1.
         -6    1    1    2    0  502  0.73687475477E+00  0.21904146436E+01  0.16386114614E+04  0.16477202015E+04  0.17300000000E+03 0.  1.
</event>
<event>
 4    1  0.5904698E+000  0.1000000E+03  0.7546771E-02  0.1280296E+00
         21   -1    0    0  503  502  0.00000000000E+00  0.00000000000E+00  0.31138056847E+03  0.31138056847E+03  0.00000000000E+00 0.  1.
         21   -1    0    0  501  503 -0.00000000000E+00 -0.00000000000E+00 -0.24029808216E+03  0.24029808216E+03  0.00000000000E+00 0.  1.
          6    1    1    2  501    0  0.84136066958E+02 -0.79965330690E+01  0.23147405121E+03  0.30108480315E+03  0.17300000000E+03 0.  1.
         -6    1    1    2    0  502 -0.84136066958E+02  0.79965330690E+01 -0.16039156490E+03  0.25059384748E+03  0.17300000000E+03 0.  1.
</event>
<event>
 4    1  0.5904698E+000  0.1000000E+03  0.7546771E-02  0.1280296E+00
         21   -1    0    0  503  502  0.00000000000E+00  0.00000000000E+00  0.29523626455E+03  0.29523626455E+03  0.00000000000E+00 0.  1.
         21   -1    0    0  501  503 -0.00000000000E+00 -0.00000000000E+00 -0.20228890471E+03  0.20228890471E+03  0.00000000000E+00 0.  1.
          6    1    1    2  501    0  0.97259307294E+02  0.14228113316E+03  0.36777913109E+02  0.24695122717E+03  0.17300000000E+03 0.  1.
         -6    1    1    2    0  502 -0.97259307294E+02 -0.14228113316E+03  0.56169446726E+02  0.25057394209E+03  0.17300000000E+03 0.  1.
</event>
<event>
 4    1  0.5904698E+000  0.1000000E+03  0.7546771E-02  0.1280296E+00
         21   -1    0    0  501  502  0.00000000000E+00  0.00000000000E+00  0.69480608087E+02  0.69480608087E+02  0.00000000000E+00 0.  1.
         21   -1    0    0  502  503 -0.00000000000E+00 -0.00000000000E+00 -0.66783234956E+03  0.66783234956E+03  0.00000000000E+00 0.  1.
          6    1    1    2  501    0 -0.11555708873E+03  0.15274299540E+02 -0.39111034026E+03  0.44326407844E+03  0.17300000000E+03 0.  1.
         -6    1    1    2    0  503  0.11555708873E+03 -0.15274299540E+02 -0.20724140121E+03  0.29404887920E+03  0.17300000000E+03 0.  1.
</event>
<event>
 4    1  0.5904698E+000  0.1000000E+03  0.7546771E-02  0.1280296E+00
         21   -1    0    0  503  502  0.00000000000E+00  0.00000000000E+00  0.18478971601E+03  0.18478971601E+03  0.00000000000E+00 0. -1.
         21   -1    0    0  501  503 -0.00000000000E+00 -0.00000000000E+00 -0.63633400245E+03  0.63633400245E+03  0.00000000000E+00 0.  1.
          6    1    1    2  501    0 -0.15782936551E+02  0.35920040604E+01 -0.57972493346E+03  0.60520409951E+03  0.17300000000E+03 0.  1.
         -6    1    1    2    0  502  0.15782936551E+02 -0.35920040604E+01  0.12818064702E+03  0.21591961895E+03  0.17300000000E+03 0. -1.
</event>
<event>
 4    1  0.5904698E+000  0.1000000E+03  0.7546771E-02  0.1280296E+00
         21   -1    0    0  503  502  0.00000000000E+00  0.00000000000E+00  0.53602860095E+03  0.53602860095E+03  0.00000000000E+00 0. -1.
         21   -1    0    0  501  503 -0.00000000000E+00 -0.00000000000E+00 -0.11005277173E+03  0.11005277173E+03  0.00000000000E+00 0.  1.
          6    1    1    2  501    0  0.88490932458E+02  0.82158328824E+02  0.52931169790E+02  0.21751171200E+03  0.17300000000E+03 0.  1.
         -6    1    1    2    0  502 -0.88490932458E+02 -0.82158328824E+02  0.37304465943E+03  0.42856966068E+03  0.17300000000E+03 0. -1.
</event>
<event>
 4    1  0.5904698E+000  0.1000000E+03  0.7546771E-02  0.1280296E+00
         21   -1    0    0  503  502  0.00000000000E+00  0.00000000000E+00  0.98989384983E+03  0.98989384983E+03  0.00000000000E+00 0. -1.
         21   -1    0    0  501  503 -0.00000000000E+00 -0.00000000000E+00 -0.53918291240E+02  0.53918291240E+02  0.00000000000E+00 0.  1.
          6    1    1    2  501    0 -0.11401342153E+03 -0.62038540103E+02  0.28450799883E+03  0.35738164775E+03  0.17300000000E+03 0.  1.
         -6    1    1    2    0  502  0.11401342153E+03  0.62038540103E+02  0.65146755976E+03  0.68643049332E+03  0.17300000000E+03 0. -1.
</event>
<event>
 4    1  0.5904698E+000  0.1000000E+03  0.7546771E-02  0.1280296E+00
         21   -1    0    0  503  502  0.00000000000E+00  0.00000000000E+00  0.30800781472E+03  0.30800781472E+03  0.00000000000E+00 0. -1.
         21   -1    0    0  501  503 -0.00000000000E+00 -0.00000000000E+00 -0.10305376329E+03  0.10305376329E+03  0.00000000000E+00 0.  1.
          6    1    1    2  501    0  0.13323105656E+02  0.37955183994E+02  0.86398009750E+02  0.19751384059E+03  0.17300000000E+03 0.  1.
         -6    1    1    2    0  502 -0.13323105656E+02 -0.37955183994E+02  0.11855604168E+03  0.21354773742E+03  0.17300000000E+03 0. -1.
</event>
<event>
 4    1  0.5904698E+000  0.1000000E+03  0.7546771E-02  0.1280296E+00
         21   -1    0    0  503  502  0.00000000000E+00  0.00000000000E+00  0.20553347733E+04  0.20553347733E+04  0.00000000000E+00 0.  1.
         21   -1    0    0  501  503 -0.00000000000E+00 -0.00000000000E+00 -0.26574436132E+02  0.26574436132E+02  0.00000000000E+00 0.  1.
          6    1    1    2  501    0 -0.26160415386E+02  0.61985204554E+02  0.38190280387E+03  0.42462369755E+03  0.17300000000E+03 0.  1.
         -6    1    1    2    0  502  0.26160415386E+02 -0.61985204554E+02  0.16468575333E+04  0.16572855118E+04  0.17300000000E+03 0.  1.
</event>
<event>
 4    1  0.5904698E+000  0.1000000E+03  0.7546771E-02  0.1280296E+00
         21   -1    0    0  503  502  0.00000000000E+00  0.00000000000E+00  0.98044974707E+03  0.98044974707E+03  0.00000000000E+00 0.  1.
         21   -1    0    0  501  503 -0.00000000000E+00 -0.00000000000E+00 -0.23235460044E+03  0.23235460044E+03  0.00000000000E+00 0.  1.
          6    1    1    2  501    0 -0.68512783643E+02  0.40024868611E+03  0.14328595281E+03  0.46406128531E+03  0.17300000000E+03 0.  1.
         -6    1    1    2    0  502  0.68512783643E+02 -0.40024868611E+03  0.60480919382E+03  0.74874306220E+03  0.17300000000E+03 0.  1.
</event>
<event>
 4    1  0.5904698E+000  0.1000000E+03  0.7546771E-02  0.1280296E+00
         21   -1    0    0  503  502  0.00000000000E+00  0.00000000000E+00  0.16241756442E+03  0.16241756442E+03  0.00000000000E+00 0. -1.
         21   -1    0    0  501  503 -0.00000000000E+00 -0.00000000000E+00 -0.85038371185E+03  0.85038371185E+03  0.00000000000E+00 0. -1.
          6    1    1    2  501    0  0.55588658049E+02 -0.24207069526E+03 -0.63781327634E+03  0.70599086105E+03  0.17300000000E+03 0. -1.
         -6    1    1    2    0  502 -0.55588658049E+02  0.24207069526E+03 -0.50152871085E+02  0.30681041522E+03  0.17300000000E+03 0. -1.
</event>
<event>
 4    1  0.5904698E+000  0.1000000E+03  0.7546771E-02  0.1280296E+00
         21   -1    0    0  503  502  0.00000000000E+00  0.00000000000E+00  0.15163849070E+03  0.15163849070E+03  0.00000000000E+00 0. -1.
         21   -1    0    0  501  503 -0.00000000000E+00 -0.00000000000E+00 -0.45695307980E+03  0.45695307980E+03  0.00000000000E+00 0. -1.
          6    1    1    2  501    0 -0.11451523809E+02  0.13121728812E+03 -0.32417168303E+03  0.39034010065E+03  0.17300000000E+03 0. -1.
         -6    1    1    2    0  502  0.11451523809E+02 -0.13121728812E+03  0.18857093920E+02  0.21825146985E+03  0.17300000000E+03 0. -1.
</event>
<event>
 4    1  0.5904698E+000  0.1000000E+03  0.7546771E-02  0.1280296E+00
         21   -1    0    0  503  502  0.00000000000E+00  0.00000000000E+00  0.16163376994E+04  0.16163376994E+04  0.00000000000E+00 0.  1.
         21   -1    0    0  501  503 -0.00000000000E+00 -0.00000000000E+00 -0.23122224322E+02  0.23122224322E+02  0.00000000000E+00 0.  1.
          6    1    1    2  501    0  0.73930779207E+02 -0.10139974214E+02  0.61296375677E+03  0.64126604955E+03  0.17300000000E+03 0.  1.
         -6    1    1    2    0  502 -0.73930779207E+02  0.10139974214E+02  0.98025171831E+03  0.99819387418E+03  0.17300000000E+03 0.  1.
</event>
<event>
 4    1  0.5904698E+000  0.1000000E+03  0.7546771E-02  0.1280296E+00
         21   -1    0    0  503  502  0.00000000000E+00  0.00000000000E+00  0.24690618367E+03  0.24690618367E+03  0.00000000000E+00 0.  1.
         21   -1    0    0  501  503 -0.00000000000E+00 -0.00000000000E+00 -0.16335444014E+03  0.16335444014E+03  0.00000000000E+00 0.  1.
          6    1    1    2  501    0 -0.24936789926E+02 -0.12620740143E+02 -0.58421370345E+02  0.18472461419E+03  0.17300000000E+03 0.  1.
         -6    1    1    2    0  502  0.24936789926E+02  0.12620740143E+02  0.14197311388E+03  0.22553600963E+03  0.17300000000E+03 0.  1.
</event>
<event>
 4    1  0.5904698E+000  0.1000000E+03  0.7546771E-02  0.1280296E+00
         21   -1    0    0  503  502  0.00000000000E+00  0.00000000000E+00  0.52703218217E+03  0.52703218217E+03  0.00000000000E+00 0.  1.
         21   -1    0    0  501  503 -0.00000000000E+00 -0.00000000000E+00 -0.16250286017E+03  0.16250286017E+03  0.00000000000E+00 0.  1.
          6    1    1    2  501    0 -0.17153283656E+03  0.37937770740E+01  0.37323586827E+03  0.44572628387E+03  0.17300000000E+03 0.  1.
         -6    1    1    2    0  502  0.17153283656E+03 -0.37937770740E+01 -0.87065462699E+01  0.24380875848E+03  0.17300000000E+03 0.  1.
</event>
<event>
 4    1  0.5904698E+000  0.1000000E+03  0.7546771E-02  0.1280296E+00
         21   -1    0    0  503  502  0.00000000000E+00  0.00000000000E+00  0.17779120201E+04  0.17779120201E+04  0.00000000000E+00 0.  1.
         21   -1    0    0  501  503 -0.00000000000E+00 -0.00000000000E+00 -0.86355558417E+02  0.86355558417E+02  0.00000000000E+00 0. -1.
          6    1    1    2  501    0 -0.34107636874E+03  0.41699175609E+02  0.66884627099E+03  0.77159331567E+03  0.17300000000E+03 0. -1.
         -6    1    1    2    0  502  0.34107636874E+03 -0.41699175609E+02  0.10227101907E+04  0.10926742629E+04  0.17300000000E+03 0.  1.
</event>
<event>
 4    1  0.5904698E+000  0.1000000E+03  0.7546771E-02  0.1280296E+00
         21   -1    0    0  503  502  0.00000000000E+00  0.00000000000E+00  0.65424278460E+02  0.65424278460E+02  0.00000000000E+00 0.  1.
         21   -1    0    0  501  503 -0.00000000000E+00 -0.00000000000E+00 -0.65013015225E+03  0.65013015225E+03  0.00000000000E+00 0. -1.
          6    1    1    2  501    0  0.93955106116E+02 -0.75888519157E+01 -0.39816200744E+03  0.44423770304E+03  0.17300000000E+03 0. -1.
         -6    1    1    2    0  502 -0.93955106116E+02  0.75888519157E+01 -0.18654386636E+03  0.27131672767E+03  0.17300000000E+03 0.  1.
</event>
<event>
 4    1  0.5904698E+000  0.1000000E+03  0.7546771E-02  0.1280296E+00
         21   -1    0    0  503  502  0.00000000000E+00  0.00000000000E+00  0.14829593469E+04  0.14829593469E+04  0.00000000000E+00 0. -1.
         21   -1    0    0  501  503 -0.00000000000E+00 -0.00000000000E+00 -0.45256683962E+02  0.45256683962E+02  0.00000000000E+00 0. -1.
          6    1    1    2  501    0  0.56004039906E+02 -0.10191863813E+02  0.17543404461E+03  0.25287631479E+03  0.17300000000E+03 0. -1.
         -6    1    1    2    0  502 -0.56004039906E+02  0.10191863813E+02  0.12622686183E+04  0.12753397160E+04  0.17300000000E+03 0. -1.
</event>
<event>
 4    1  0.5904698E+000  0.1000000E+03  0.7546771E-02  0.1280296E+00
         21   -1    0    0  503  502  0.00000000000E+00  0.00000000000E+00  0.12676221345E+03  0.12676221345E+03  0.00000000000E+00 0. -1.
         21   -1    0    0  501  503 -0.00000000000E+00 -0.00000000000E+00 -0.71382366014E+03  0.71382366014E+03  0.00000000000E+00 0. -1.
          6    1    1    2  501    0  0.15733325049E+03  0.18038091062E+03 -0.37337785808E+03  0.47605782163E+03  0.17300000000E+03 0. -1.
         -6    1    1    2    0  502 -0.15733325049E+03 -0.18038091062E+03 -0.21368358861E+03  0.36452805196E+03  0.17300000000E+03 0. -1.
</event>
<event>
 4    1  0.5904698E+000  0.1000000E+03  0.7546771E-02  0.1280296E+00
         21   -1    0    0  503  502  0.00000000000E+00  0.00000000000E+00  0.16930761843E+03  0.16930761843E+03  0.00000000000E+00 0. -1.
         21   -1    0    0  501  503 -0.00000000000E+00 -0.00000000000E+00 -0.28292504004E+03  0.28292504004E+03  0.00000000000E+00 0.  1.
          6    1    1    2  501    0 -0.20423083301E+02 -0.13187765116E+02 -0.19301578876E+03  0.26033654025E+03  0.17300000000E+03 0.  1.
         -6    1    1    2    0  502  0.20423083301E+02  0.13187765116E+02  0.79398367152E+02  0.19189611822E+03  0.17300000000E+03 0. -1.
</event>
<event>
 4    1  0.5904698E+000  0.1000000E+03  0.7546771E-02  0.1280296E+00
         21   -1    0    0  503  502  0.00000000000E+00  0.00000000000E+00  0.80856224047E+03  0.80856224047E+03  0.00000000000E+00 0. -1.
         21   -1    0    0  501  503 -0.00000000000E+00 -0.00000000000E+00 -0.18053220213E+03  0.18053220213E+03  0.00000000000E+00 0.  1.
          6    1    1    2  501    0 -0.11479775581E+03  0.86073025364E+02 -0.85905806610E+02  0.24061566458E+03  0.17300000000E+03 0.  1.
         -6    1    1    2    0  502  0.11479775581E+03 -0.86073025364E+02  0.71393584495E+03  0.74847877802E+03  0.17300000000E+03 0. -1.
</event>
<event>
 4    1  0.5904698E+000  0.1000000E+03  0.7546771E-02  0.1280296E+00
         21   -1    0    0  503  502  0.00000000000E+00  0.00000000000E+00  0.30120417285E+02  0.30120417285E+02  0.00000000000E+00 0. -1.
         21   -1    0    0  501  503 -0.00000000000E+00 -0.00000000000E+00 -0.21325862758E+04  0.21325862758E+04  0.00000000000E+00 0.  1.
          6    1    1    2  501    0  0.24791800532E+02  0.44073749138E+02 -0.18114608121E+04  0.18204055599E+04  0.17300000000E+03 0.  1.
         -6    1    1    2    0  502 -0.24791800532E+02 -0.44073749138E+02 -0.29100504637E+03  0.34230113314E+03  0.17300000000E+03 0. -1.
</event>
<event>
 4    1  0.5904698E+000  0.1000000E+03  0.7546771E-02  0.1280296E+00
         21   -1    0    0  501  502  0.00000000000E+00  0.00000000000E+00  0.11901164537E+04  0.11901164537E+04  0.00000000000E+00 0.  1.
         21   -1    0    0  502  503 -0.00000000000E+00 -0.00000000000E+00 -0.37275535960E+02  0.37275535960E+02  0.00000000000E+00 0.  1.
          6    1    1    2  501    0  0.11174651791E+03 -0.35318779607E+02  0.65342894488E+03  0.68602703042E+03  0.17300000000E+03 0.  1.
         -6    1    1    2    0  503 -0.11174651791E+03  0.35318779607E+02  0.49941197285E+03  0.54136495924E+03  0.17300000000E+03 0.  1.
</event>
<event>
 4    1  0.5904698E+000  0.1000000E+03  0.7546771E-02  0.1280296E+00
         21   -1    0    0  501  502  0.00000000000E+00  0.00000000000E+00  0.13318276168E+03  0.13318276168E+03  0.00000000000E+00 0.  1.
         21   -1    0    0  502  503 -0.00000000000E+00 -0.00000000000E+00 -0.29439981902E+03  0.29439981902E+03  0.00000000000E+00 0.  1.
          6    1    1    2  501    0  0.42916056668E+02  0.38409714931E+02  0.27644876497E+01  0.18235607068E+03  0.17300000000E+03 0.  1.
         -6    1    1    2    0  503 -0.42916056668E+02 -0.38409714931E+02 -0.16398154499E+03  0.24522651002E+03  0.17300000000E+03 0.  1.
</event>
<event>
 4    1  0.5904698E+000  0.1000000E+03  0.7546771E-02  0.1280296E+00
         21   -1    0    0  501  502  0.00000000000E+00  0.00000000000E+00  0.41469063096E+03  0.41469063096E+03  0.00000000000E+00 0. -1.
         21   -1    0    0  502  503 -0.00000000000E+00 -0.00000000000E+00 -0.10584675839E+03  0.10584675839E+03  0.00000000000E+00 0. -1.
          6    1    1    2  501    0 -0.22579444798E+02 -0.97790108025E+02  0.23192219122E+03  0.30625094177E+03  0.17300000000E+03 0. -1.
         -6    1    1    2    0  503  0.22579444798E+02  0.97790108025E+02  0.76921681358E+02  0.21428644758E+03  0.17300000000E+03 0. -1.
</event>
<event>
 4    1  0.5904698E+000  0.1000000E+03  0.7546771E-02  0.1280296E+00
         21   -1    0    0  501  502  0.00000000000E+00  0.00000000000E+00  0.21234904271E+04  0.21234904271E+04  0.00000000000E+00 0. -1.
         21   -1    0    0  502  503 -0.00000000000E+00 -0.00000000000E+00 -0.63400205564E+02  0.63400205564E+02  0.00000000000E+00 0. -1.
          6    1    1    2  501    0  0.23295347195E+02  0.37561268029E+02  0.19852831218E+04  0.19932966652E+04  0.17300000000E+03 0. -1.
         -6    1    1    2    0  503 -0.23295347195E+02 -0.37561268029E+02  0.74807099798E+02  0.19359396746E+03  0.17300000000E+03 0. -1.
</event>
<event>
 4    1  0.5904698E+000  0.1000000E+03  0.7546771E-02  0.1280296E+00
         21   -1    0    0  501  502  0.00000000000E+00  0.00000000000E+00  0.11519210102E+04  0.11519210102E+04  0.00000000000E+00 0. -1.
         21   -1    0    0  502  503 -0.00000000000E+00 -0.00000000000E+00 -0.75697295302E+02  0.75697295302E+02  0.00000000000E+00 0. -1.
          6    1    1    2  501    0 -0.17969853577E+03  0.12825618493E+03  0.73005928987E+03  0.78208489274E+03  0.17300000000E+03 0. -1.
         -6    1    1    2    0  503  0.17969853577E+03 -0.12825618493E+03  0.34616442503E+03  0.44553341276E+03  0.17300000000E+03 0. -1.
</event>
<event>
 4    1  0.5904698E+000  0.1000000E+03  0.7546771E-02  0.1280296E+00
         21   -1    0    0  501  502  0.00000000000E+00  0.00000000000E+00  0.20074423111E+03  0.20074423111E+03  0.00000000000E+00 0. -1.
         21   -1    0    0  502  503 -0.00000000000E+00 -0.00000000000E+00 -0.28856696752E+03  0.28856696752E+03  0.00000000000E+00 0. -1.
          6    1    1    2  501    0  0.14147867883E+03 -0.50644498554E+02  0.30911217108E+02  0.23122626395E+03  0.17300000000E+03 0. -1.
         -6    1    1    2    0  503 -0.14147867883E+03  0.50644498554E+02 -0.11873395352E+03  0.25808493469E+03  0.17300000000E+03 0. -1.
</event>
<event>
 4    1  0.5904698E+000  0.1000000E+03  0.7546771E-02  0.1280296E+00
         21   -1    0    0  501  502  0.00000000000E+00  0.00000000000E+00  0.32641597817E+03  0.32641597817E+03  0.00000000000E+00 0.  1.
         21   -1    0    0  502  503 -0.00000000000E+00 -0.00000000000E+00 -0.17732570189E+03  0.17732570189E+03  0.00000000000E+00 0.  1.
          6    1    1    2  501    0  0.12777275710E+03  0.95194648354E+00  0.18742707876E+03  0.28528002648E+03  0.17300000000E+03 0.  1.
         -6    1    1    2    0  503 -0.12777275710E+03 -0.95194648354E+00 -0.38336802483E+02  0.21846165358E+03  0.17300000000E+03 0.  1.
</event>
<event>
 4    1  0.5904698E+000  0.1000000E+03  0.7546771E-02  0.1280296E+00
         21   -1    0    0  501  502  0.00000000000E+00  0.00000000000E+00  0.27261615499E+03  0.27261615499E+03  0.00000000000E+00 0.  1.
         21   -1    0    0  502  503 -0.00000000000E+00 -0.00000000000E+00 -0.25149189551E+03  0.25149189551E+03  0.00000000000E+00 0.  1.
          6    1    1    2  501    0  0.10536887259E+03 -0.83091988249E+01  0.17640782058E+03  0.26873846256E+03  0.17300000000E+03 0.  1.
         -6    1    1    2    0  503 -0.10536887259E+03  0.83091988249E+01 -0.15528356109E+03  0.25536958794E+03  0.17300000000E+03 0.  1.
</event>
<event>
 4    1  0.5904698E+000  0.1000000E+03  0.7546771E-02  0.1280296E+00
         21   -1    0    0  501  502  0.00000000000E+00  0.00000000000E+00  0.75475637522E+02  0.75475637522E+02  0.00000000000E+00 0.  1.
         21   -1    0    0  502  503 -0.00000000000E+00 -0.00000000000E+00 -0.89720291845E+03  0.89720291845E+03  0.00000000000E+00 0.  1.
          6    1    1    2  501    0  0.17560359867E+03  0.80898854634E+02 -0.37317286977E+03  0.45449778798E+03  0.17300000000E+03 0.  1.
         -6    1    1    2    0  503 -0.17560359867E+03 -0.80898854634E+02 -0.44855441116E+03  0.51818076799E+03  0.17300000000E+03 0.  1.
</event>
<event>
 4    1  0.5904698E+000  0.1000000E+03  0.7546771E-02  0.1280296E+00
         21   -1    0    0  501  502  0.00000000000E+00  0.00000000000E+00  0.26944844317E+04  0.26944844317E+04  0.00000000000E+00 0.  1.
         21   -1    0    0  502  503 -0.00000000000E+00 -0.00000000000E+00 -0.46793831829E+02  0.46793831829E+02  0.00000000000E+00 0.  1.
          6    1    1    2  501    0 -0.31221424061E+02 -0.17955963030E+03  0.22922429063E+04  0.23059754942E+04  0.17300000000E+03 0.  1.
         -6    1    1    2    0  503  0.31221424061E+02  0.17955963030E+03  0.35544769352E+03  0.43530276933E+03  0.17300000000E+03 0.  1.
</event>
<event>
 4    1  0.5904698E+000  0.1000000E+03  0.7546771E-02  0.1280296E+00
         21   -1    0    0  503  502  0.00000000000E+00  0.00000000000E+00  0.81309867229E+02  0.81309867229E+02  0.00000000000E+00 0. -1.
         21   -1    0    0  501  503 -0.00000000000E+00 -0.00000000000E+00 -0.53590122924E+03  0.53590122924E+03  0.00000000000E+00 0. -1.
          6    1    1    2  501    0 -0.19394632899E+02  0.86880376747E+01 -0.39710772409E+03  0.43367635204E+03  0.17300000000E+03 0. -1.
         -6    1    1    2    0  502  0.19394632899E+02 -0.86880376747E+01 -0.57483637915E+02  0.18353474443E+03  0.17300000000E+03 0. -1.
</event>
<event>
 4    1  0.5904698E+000  0.1000000E+03  0.7546771E-02  0.1280296E+00
         21   -1    0    0  501  502  0.00000000000E+00  0.00000000000E+00  0.16983579929E+04  0.16983579929E+04  0.00000000000E+00 0.  1.
         21   -1    0    0  502  503 -0.00000000000E+00 -0.00000000000E+00 -0.94277898758E+02  0.94277898758E+02  0.00000000000E+00 0. -1.
          6    1    1    2  501    0 -0.30288825947E+02 -0.16073372279E+03  0.15224473924E+04  0.15409502929E+04  0.17300000000E+03 0.  1.
         -6    1    1    2    0  503  0.30288825947E+02  0.16073372279E+03  0.81632701743E+02  0.25168559874E+03  0.17300000000E+03 0. -1.
</event>
<event>
 4    1  0.5904698E+000  0.1000000E+03  0.7546771E-02  0.1280296E+00
         21   -1    0    0  501  502  0.00000000000E+00  0.00000000000E+00  0.16197878051E+03  0.16197878051E+03  0.00000000000E+00 0.  1.
         21   -1    0    0  502  503 -0.00000000000E+00 -0.00000000000E+00 -0.15788303473E+04  0.15788303473E+04  0.00000000000E+00 0. -1.
          6    1    1    2  501    0  0.13895534898E+03 -0.20422553425E+03 -0.97244395343E+01  0.30172872348E+03  0.17300000000E+03 0.  1.
         -6    1    1    2    0  503 -0.13895534898E+03  0.20422553425E+03 -0.14071271273E+04  0.14390804044E+04  0.17300000000E+03 0. -1.
</event>
<event>
 4    1  0.5904698E+000  0.1000000E+03  0.7546771E-02  0.1280296E+00
         21   -1    0    0  501  502  0.00000000000E+00  0.00000000000E+00  0.22207859223E+03  0.22207859223E+03  0.00000000000E+00 0. -1.
         21   -1    0    0  502  503 -0.00000000000E+00 -0.00000000000E+00 -0.25997614992E+03  0.25997614992E+03  0.00000000000E+00 0. -1.
          6    1    1    2  501    0 -0.11202773777E+03 -0.80810013546E+02  0.74752502854E+02  0.23366088462E+03  0.17300000000E+03 0. -1.
         -6    1    1    2    0  503  0.11202773777E+03  0.80810013546E+02 -0.11265006054E+03  0.24839385753E+03  0.17300000000E+03 0. -1.
</event>
<event>
 4    1  0.5904698E+000  0.1000000E+03  0.7546771E-02  0.1280296E+00
         21   -1    0    0  501  502  0.00000000000E+00  0.00000000000E+00  0.75425139330E+03  0.75425139330E+03  0.00000000000E+00 0. -1.
         21   -1    0    0  502  503 -0.00000000000E+00 -0.00000000000E+00 -0.10481308547E+03  0.10481308547E+03  0.00000000000E+00 0. -1.
          6    1    1    2  501    0 -0.17600146954E+03 -0.12285873014E+03  0.40916540991E+03  0.49337218964E+03  0.17300000000E+03 0. -1.
         -6    1    1    2    0  503  0.17600146954E+03  0.12285873014E+03  0.24027289793E+03  0.36569228913E+03  0.17300000000E+03 0. -1.
</event>
<event>
 4    1  0.5904698E+000  0.1000000E+03  0.7546771E-02  0.1280296E+00
         21   -1    0    0  501  502  0.00000000000E+00  0.00000000000E+00  0.81275745067E+03  0.81275745067E+03  0.00000000000E+00 0. -1.
         21   -1    0    0  502  503 -0.00000000000E+00 -0.00000000000E+00 -0.59824958198E+02  0.59824958198E+02  0.00000000000E+00 0. -1.
          6    1    1    2  501    0 -0.28532300586E+02  0.21648266901E+02  0.63754536153E+03  0.66157072762E+03  0.17300000000E+03 0. -1.
         -6    1    1    2    0  503  0.28532300586E+02 -0.21648266901E+02  0.11538713094E+03  0.21101168125E+03  0.17300000000E+03 0. -1.
</event>
<event>
 4    1  0.5904698E+000  0.1000000E+03  0.7546771E-02  0.1280296E+00
         21   -1    0    0  503  502  0.00000000000E+00  0.00000000000E+00  0.26798843475E+03  0.26798843475E+03  0.00000000000E+00 0.  1.
         21   -1    0    0  501  503 -0.00000000000E+00 -0.00000000000E+00 -0.78196567593E+03  0.78196567593E+03  0.00000000000E+00 0.  1.
          6    1    1    2  501    0 -0.60983235085E+02  0.29889268924E+03 -0.59441543502E+03  0.69015542020E+03  0.17300000000E+03 0.  1.
         -6    1    1    2    0  502  0.60983235085E+02 -0.29889268924E+03  0.80438193837E+02  0.35979869048E+03  0.17300000000E+03 0.  1.
</event>
<event>
 4    1  0.5904698E+000  0.1000000E+03  0.7546771E-02  0.1280296E+00
         21   -1    0    0  503  502  0.00000000000E+00  0.00000000000E+00  0.46212392504E+02  0.46212392504E+02  0.00000000000E+00 0.  1.
         21   -1    0    0  501  503 -0.00000000000E+00 -0.00000000000E+00 -0.91025858293E+03  0.91025858293E+03  0.00000000000E+00 0.  1.
          6    1    1    2  501    0 -0.80848258007E+02  0.28269070948E+02 -0.59358166894E+03  0.62418248846E+03  0.17300000000E+03 0.  1.
         -6    1    1    2    0  502  0.80848258007E+02 -0.28269070948E+02 -0.27046452149E+03  0.33228848698E+03  0.17300000000E+03 0.  1.
</event>
<event>
 4    1  0.5904698E+000  0.1000000E+03  0.7546771E-02  0.1280296E+00
         21   -1    0    0  503  502  0.00000000000E+00  0.00000000000E+00  0.12207483899E+03  0.12207483899E+03  0.00000000000E+00 0.  1.
         21   -1    0    0  501  503 -0.00000000000E+00 -0.00000000000E+00 -0.48908618433E+03  0.48908618433E+03  0.00000000000E+00 0. -1.
          6    1    1    2  501    0 -0.71410465777E+02 -0.26797363751E+02 -0.37708111805E+03  0.42182546499E+03  0.17300000000E+03 0. -1.
         -6    1    1    2    0  502  0.71410465777E+02  0.26797363751E+02  0.10069772711E+02  0.18933555833E+03  0.17300000000E+03 0.  1.
</event>
<event>
 4    1  0.5904698E+000  0.1000000E+03  0.7546771E-02  0.1280296E+00
         21   -1    0    0  503  502  0.00000000000E+00  0.00000000000E+00  0.45713398270E+03  0.45713398270E+03  0.00000000000E+00 0.  1.
         21   -1    0    0  501  503 -0.00000000000E+00 -0.00000000000E+00 -0.10526345464E+04  0.10526345464E+04  0.00000000000E+00 0. -1.
          6    1    1    2  501    0 -0.52094376465E+03  0.34479464786E+03 -0.56652330661E+03  0.86089686493E+03  0.17300000000E+03 0. -1.
         -6    1    1    2    0  502  0.52094376465E+03 -0.34479464786E+03 -0.28977257068E+02  0.64887166415E+03  0.17300000000E+03 0.  1.
</event>
<event>
 4    1  0.5904698E+000  0.1000000E+03  0.7546771E-02  0.1280296E+00
         21   -1    0    0  503  502  0.00000000000E+00  0.00000000000E+00  0.10985441394E+04  0.10985441394E+04  0.00000000000E+00 0.  1.
         21   -1    0    0  501  503 -0.00000000000E+00 -0.00000000000E+00 -0.43812358387E+02  0.43812358387E+02  0.00000000000E+00 0. -1.
          6    1    1    2  501    0  0.96972797439E+01 -0.11646221271E+03  0.35187624107E+03  0.40914957320E+03  0.17300000000E+03 0. -1.
         -6    1    1    2    0  502 -0.96972797439E+01  0.11646221271E+03  0.70285553991E+03  0.73320692455E+03  0.17300000000E+03 0.  1.
</event>
<event>
 4    1  0.5904698E+000  0.1000000E+03  0.7546771E-02  0.1280296E+00
         21   -1    0    0  503  502  0.00000000000E+00  0.00000000000E+00  0.64303008182E+03  0.64303008182E+03  0.00000000000E+00 0. -1.
         21   -1    0    0  501  503 -0.00000000000E+00 -0.00000000000E+00 -0.34563044760E+03  0.34563044760E+03  0.00000000000E+00 0. -1.
          6    1    1    2  501    0 -0.26725454069E+03  0.34375410910E+03  0.20348571264E+03  0.51081044654E+03  0.17300000000E+03 0. -1.
         -6    1    1    2    0  502  0.26725454069E+03 -0.34375410910E+03  0.93913921578E+02  0.47785008288E+03  0.17300000000E+03 0. -1.
</event>
<event>
 4    1  0.5904698E+000  0.1000000E+03  0.7546771E-02  0.1280296E+00
         21   -1    0    0  501  502  0.00000000000E+00  0.00000000000E+00  0.96262570722E+02  0.96262570722E+02  0.00000000000E+00 0.  1.
         21   -1    0    0  502  503 -0.00000000000E+00 -0.00000000000E+00 -0.64657450870E+03  0.64657450870E+03  0.00000000000E+00 0. -1.
          6    1    1    2  501    0 -0.20206470241E+02 -0.57917790986E+02 -0.23607214796E+02  0.18506504949E+03  0.17300000000E+03 0. -1.
         -6    1    1    2    0  503  0.20206470241E+02  0.57917790986E+02 -0.52670472318E+03  0.55777202993E+03  0.17300000000E+03 0. -1.
</event>
<event>
 4    1  0.5904698E+000  0.1000000E+03  0.7546771E-02  0.1280296E+00
         21   -1    0    0  501  502  0.00000000000E+00  0.00000000000E+00  0.10497943290E+04  0.10497943290E+04  0.00000000000E+00 0.  1.
         21   -1    0    0  502  503 -0.00000000000E+00 -0.00000000000E+00 -0.81354659302E+02  0.81354659302E+02  0.00000000000E+00 0. -1.
          6    1    1    2  501    0  0.14645400869E+03 -0.14657532852E+03  0.70096870008E+03  0.75114527363E+03  0.17300000000E+03 0.  1.
         -6    1    1    2    0  503 -0.14645400869E+03  0.14657532852E+03  0.26747096965E+03  0.38000371471E+03  0.17300000000E+03 0. -1.
</event>
<event>
 4    1  0.5904698E+000  0.1000000E+03  0.7546771E-02  0.1280296E+00
         21   -1    0    0  503  502  0.00000000000E+00  0.00000000000E+00  0.15680510332E+03  0.15680510332E+03  0.00000000000E+00 0. -1.
         21   -1    0    0  501  503 -0.00000000000E+00 -0.00000000000E+00 -0.32964009136E+03  0.32964009136E+03  0.00000000000E+00 0.  1.
          6    1    1    2  501    0  0.91584163922E+02  0.43427593272E+02 -0.20107439455E+03  0.28396043225E+03  0.17300000000E+03 0.  1.
         -6    1    1    2    0  502 -0.91584163922E+02 -0.43427593272E+02  0.28239406507E+02  0.20248476244E+03  0.17300000000E+03 0. -1.
</event>
<event>
 4    1  0.5904698E+000  0.1000000E+03  0.7546771E-02  0.1280296E+00
         21   -1    0    0  501  502  0.00000000000E+00  0.00000000000E+00  0.18778756969E+02  0.18778756969E+02  0.00000000000E+00 0.  1.
         21   -1    0    0  502  503 -0.00000000000E+00 -0.00000000000E+00 -0.18027884029E+04  0.18027884029E+04  0.00000000000E+00 0. -1.
          6    1    1    2  501    0  0.11770832535E+02  0.40488253938E+02 -0.11213835481E+04  0.11354329188E+04  0.17300000000E+03 0.  1.
         -6    1    1    2    0  503 -0.11770832535E+02 -0.40488253938E+02 -0.66262609784E+03  0.68613424105E+03  0.17300000000E+03 0. -1.
</event>
<event>
 4    1  0.5904698E+000  0.1000000E+03  0.7546771E-02  0.1280296E+00
         21   -1    0    0  501  502  0.00000000000E+00  0.00000000000E+00  0.81442197411E+02  0.81442197411E+02  0.00000000000E+00 0.  1.
         21   -1    0    0  502  503 -0.00000000000E+00 -0.00000000000E+00 -0.46560243667E+03  0.46560243667E+03  0.00000000000E+00 0. -1.
          6    1    1    2  501    0  0.21656408045E+02  0.73914806857E+02 -0.25580563492E+03  0.31827334406E+03  0.17300000000E+03 0.  1.
         -6    1    1    2    0  503 -0.21656408045E+02 -0.73914806857E+02 -0.12835460433E+03  0.22877129002E+03  0.17300000000E+03 0. -1.
</event>
<event>
 4    1  0.5904698E+000  0.1000000E+03  0.7546771E-02  0.1280296E+00
         21   -1    0    0  503  502  0.00000000000E+00  0.00000000000E+00  0.13114070071E+04  0.13114070071E+04  0.00000000000E+00 0. -1.
         21   -1    0    0  501  503 -0.00000000000E+00 -0.00000000000E+00 -0.43113306189E+02  0.43113306189E+02  0.00000000000E+00 0. -1.
          6    1    1    2  501    0 -0.31069937971E+02 -0.82393659310E+02  0.24303019690E+03  0.31104136822E+03  0.17300000000E+03 0. -1.
         -6    1    1    2    0  502  0.31069937971E+02  0.82393659310E+02  0.10252635040E+04  0.10434789450E+04  0.17300000000E+03 0. -1.
</event>
<event>
 4    1  0.5904698E+000  0.1000000E+03  0.7546771E-02  0.1280296E+00
         21   -1    0    0  503  502  0.00000000000E+00  0.00000000000E+00  0.17905569652E+04  0.17905569652E+04  0.00000000000E+00 0. -1.
         21   -1    0    0  501  503 -0.00000000000E+00 -0.00000000000E+00 -0.98735412273E+02  0.98735412273E+02  0.00000000000E+00 0. -1.
          6    1    1    2  501    0  0.11124415317E+03  0.23377904827E+03  0.21111523061E+03  0.37620014038E+03  0.17300000000E+03 0. -1.
         -6    1    1    2    0  502 -0.11124415317E+03 -0.23377904827E+03  0.14807063224E+04  0.15130922371E+04  0.17300000000E+03 0. -1.
</event>
<event>
 4    1  0.5904698E+000  0.1000000E+03  0.7546771E-02  0.1280296E+00
         21   -1    0    0  503  502  0.00000000000E+00  0.00000000000E+00  0.32722132336E+03  0.32722132336E+03  0.00000000000E+00 0. -1.
         21   -1    0    0  501  503 -0.00000000000E+00 -0.00000000000E+00 -0.13507406734E+04  0.13507406734E+04  0.00000000000E+00 0. -1.
          6    1    1    2  501    0 -0.47169430214E+03 -0.38035410147E+03 -0.24436306188E+03  0.67587503519E+03  0.17300000000E+03 0.  1.
         -6    1    1    2    0  502  0.47169430214E+03  0.38035410147E+03 -0.77915628819E+03  0.10020869616E+04  0.17300000000E+03 0.  1.
</event>
<event>
 4    1  0.5904698E+000  0.1000000E+03  0.7546771E-02  0.1280296E+00
         21   -1    0    0  501  502  0.00000000000E+00  0.00000000000E+00  0.27481893949E+03  0.27481893949E+03  0.00000000000E+00 0.  1.
         21   -1    0    0  502  503 -0.00000000000E+00 -0.00000000000E+00 -0.91090254758E+03  0.91090254758E+03  0.00000000000E+00 0.  1.
          6    1    1    2  501    0  0.19054396888E+03  0.71357624488E+02  0.18329134386E+03  0.32391917415E+03  0.17300000000E+03 0.  1.
         -6    1    1    2    0  503 -0.19054396888E+03 -0.71357624488E+02 -0.81937495196E+03  0.86180231291E+03  0.17300000000E+03 0.  1.
</event>
<event>
 4    1  0.5904698E+000  0.1000000E+03  0.7546771E-02  0.1280296E+00
         21   -1    0    0  501  502  0.00000000000E+00  0.00000000000E+00  0.64628884346E+03  0.64628884346E+03  0.00000000000E+00 0. -1.
         21   -1    0    0  502  503 -0.00000000000E+00 -0.00000000000E+00 -0.34697800308E+03  0.34697800308E+03  0.00000000000E+00 0. -1.
          6    1    1    2  501    0  0.51798799584E+02 -0.14314803235E+03  0.58351896876E+03  0.62737378150E+03  0.17300000000E+03 0. -1.
         -6    1    1    2    0  503 -0.51798799584E+02  0.14314803235E+03 -0.28420812839E+03  0.36589306504E+03  0.17300000000E+03 0. -1.
</event>
<event>
 4    1  0.5904698E+000  0.1000000E+03  0.7546771E-02  0.1280296E+00
         21   -1    0    0  501  502  0.00000000000E+00  0.00000000000E+00  0.66089407633E+03  0.66089407633E+03  0.00000000000E+00 0. -1.
         21   -1    0    0  502  503 -0.00000000000E+00 -0.00000000000E+00 -0.66836849236E+02  0.66836849236E+02  0.00000000000E+00 0. -1.
          6    1    1    2  501    0 -0.43166122907E+02 -0.11092656299E+03  0.28202918674E+03  0.35162121483E+03  0.17300000000E+03 0.  1.
         -6    1    1    2    0  503  0.43166122907E+02  0.11092656299E+03  0.31202804035E+03  0.37610971073E+03  0.17300000000E+03 0.  1.
</event>
<event>
 4    1  0.5904698E+000  0.1000000E+03  0.7546771E-02  0.1280296E+00
         21   -1    0    0  503  502  0.00000000000E+00  0.00000000000E+00  0.30137033028E+03  0.30137033028E+03  0.00000000000E+00 0.  1.
         21   -1    0    0  501  503 -0.00000000000E+00 -0.00000000000E+00 -0.17825871746E+03  0.17825871746E+03  0.00000000000E+00 0.  1.
          6    1    1    2  501    0  0.65054518223E+02 -0.19043063240E+02 -0.81804740407E+02  0.20301661053E+03  0.17300000000E+03 0.  1.
         -6    1    1    2    0  502 -0.65054518223E+02  0.19043063240E+02  0.20491635323E+03  0.27661243721E+03  0.17300000000E+03 0.  1.
</event>
<event>
 4    1  0.5904698E+000  0.1000000E+03  0.7546771E-02  0.1280296E+00
         21   -1    0    0  503  502  0.00000000000E+00  0.00000000000E+00  0.14464869079E+03  0.14464869079E+03  0.00000000000E+00 0.  1.
         21   -1    0    0  501  503 -0.00000000000E+00 -0.00000000000E+00 -0.62359535933E+03  0.62359535933E+03  0.00000000000E+00 0.  1.
          6    1    1    2  501    0  0.31957036234E+02 -0.18122532759E+03 -0.44731835662E+03  0.51369892320E+03  0.17300000000E+03 0.  1.
         -6    1    1    2    0  502 -0.31957036234E+02  0.18122532759E+03 -0.31628311920E+02  0.25454512692E+03  0.17300000000E+03 0.  1.
</event>
<event>
 4    1  0.5904698E+000  0.1000000E+03  0.7546771E-02  0.1280296E+00
         21   -1    0    0  503  502  0.00000000000E+00  0.00000000000E+00  0.19515047363E+03  0.19515047363E+03  0.00000000000E+00 0.  1.
         21   -1    0    0  501  503 -0.00000000000E+00 -0.00000000000E+00 -0.15750269039E+04  0.15750269039E+04  0.00000000000E+00 0.  1.
          6    1    1    2  501    0  0.19941182464E+02  0.49126521501E+02 -0.15265611317E+04  0.15372472003E+04  0.17300000000E+03 0.  1.
         -6    1    1    2    0  502 -0.19941182464E+02 -0.49126521501E+02  0.14668470141E+03  0.23293017731E+03  0.17300000000E+03 0.  1.
</event>
<event>
 4    1  0.5904698E+000  0.1000000E+03  0.7546771E-02  0.1280296E+00
         21   -1    0    0  503  502  0.00000000000E+00  0.00000000000E+00  0.11087749762E+03  0.11087749762E+03  0.00000000000E+00 0. -1.
         21   -1    0    0  501  503 -0.00000000000E+00 -0.00000000000E+00 -0.59368929357E+03  0.59368929357E+03  0.00000000000E+00 0. -1.
          6    1    1    2  501    0  0.13293152426E+03 -0.13393583567E+03 -0.21809674176E+03  0.33631055141E+03  0.17300000000E+03 0. -1.
         -6    1    1    2    0  502 -0.13293152426E+03  0.13393583567E+03 -0.26471505419E+03  0.36825623978E+03  0.17300000000E+03 0. -1.
</event>
<event>
 4    1  0.5904698E+000  0.1000000E+03  0.7546771E-02  0.1280296E+00
         21   -1    0    0  503  502  0.00000000000E+00  0.00000000000E+00  0.34093941979E+03  0.34093941979E+03  0.00000000000E+00 0. -1.
         21   -1    0    0  501  503 -0.00000000000E+00 -0.00000000000E+00 -0.29810985840E+03  0.29810985840E+03  0.00000000000E+00 0. -1.
          6    1    1    2  501    0  0.12978751269E+03 -0.22622414454E+03  0.82266014281E+02  0.32360293436E+03  0.17300000000E+03 0. -1.
         -6    1    1    2    0  502 -0.12978751269E+03  0.22622414454E+03 -0.39436452889E+02  0.31544634383E+03  0.17300000000E+03 0. -1.
</event>
<event>
 4    1  0.5904698E+000  0.1000000E+03  0.7546771E-02  0.1280296E+00
         21   -1    0    0  503  502  0.00000000000E+00  0.00000000000E+00  0.19761887706E+03  0.19761887706E+03  0.00000000000E+00 0. -1.
         21   -1    0    0  501  503 -0.00000000000E+00 -0.00000000000E+00 -0.27074497440E+03  0.27074497440E+03  0.00000000000E+00 0. -1.
          6    1    1    2  501    0 -0.14403538375E+03  0.39991175786E+02 -0.72067420543E+02  0.23972525736E+03  0.17300000000E+03 0. -1.
         -6    1    1    2    0  502  0.14403538375E+03 -0.39991175786E+02 -0.10586767943E+01  0.22863859409E+03  0.17300000000E+03 0. -1.
</event>
<event>
 4    1  0.5904698E+000  0.1000000E+03  0.7546771E-02  0.1280296E+00
         21   -1    0    0  503  502  0.00000000000E+00  0.00000000000E+00  0.23147477520E+03  0.23147477520E+03  0.00000000000E+00 0. -1.
         21   -1    0    0  501  503 -0.00000000000E+00 -0.00000000000E+00 -0.19529234651E+03  0.19529234651E+03  0.00000000000E+00 0. -1.
          6    1    1    2  501    0  0.54404517570E+02 -0.32425074969E+02 -0.88429089791E+02  0.20435249189E+03  0.17300000000E+03 0. -1.
         -6    1    1    2    0  502 -0.54404517570E+02  0.32425074969E+02  0.12461151848E+03  0.22241462982E+03  0.17300000000E+03 0. -1.
</event>
<event>
 4    1  0.5904698E+000  0.1000000E+03  0.7546771E-02  0.1280296E+00
         21   -1    0    0  503  502  0.00000000000E+00  0.00000000000E+00  0.19669865015E+04  0.19669865015E+04  0.00000000000E+00 0. -1.
         21   -1    0    0  501  503 -0.00000000000E+00 -0.00000000000E+00 -0.29179741974E+02  0.29179741974E+02  0.00000000000E+00 0. -1.
          6    1    1    2  501    0 -0.16149822927E+03 -0.61938047025E+01  0.81599615500E+03  0.84964625948E+03  0.17300000000E+03 0.  1.
         -6    1    1    2    0  502  0.16149822927E+03  0.61938047025E+01  0.11218106045E+04  0.11465199840E+04  0.17300000000E+03 0.  1.
</event>
<event>
 4    1  0.5904698E+000  0.1000000E+03  0.7546771E-02  0.1280296E+00
         21   -1    0    0  503  502  0.00000000000E+00  0.00000000000E+00  0.96340055105E+02  0.96340055105E+02  0.00000000000E+00 0.  1.
         21   -1    0    0  501  503 -0.00000000000E+00 -0.00000000000E+00 -0.85320836922E+03  0.85320836922E+03  0.00000000000E+00 0.  1.
          6    1    1    2  501    0  0.18049621061E+03  0.17956012659E+02 -0.60889477779E+03  0.65847031130E+03  0.17300000000E+03 0.  1.
         -6    1    1    2    0  502 -0.18049621061E+03 -0.17956012659E+02 -0.14797353632E+03  0.29107811303E+03  0.17300000000E+03 0.  1.
</event>
<event>
 4    1  0.5904698E+000  0.1000000E+03  0.7546771E-02  0.1280296E+00
         21   -1    0    0  503  502  0.00000000000E+00  0.00000000000E+00  0.16429194383E+03  0.16429194383E+03  0.00000000000E+00 0.  1.
         21   -1    0    0  501  503 -0.00000000000E+00 -0.00000000000E+00 -0.25034844976E+03  0.25034844976E+03  0.00000000000E+00 0.  1.
          6    1    1    2  501    0  0.29893950431E+02 -0.97693037033E+02 -0.71277691515E+02  0.21318322416E+03  0.17300000000E+03 0.  1.
         -6    1    1    2    0  502 -0.29893950431E+02  0.97693037033E+02 -0.14778814411E+02  0.20145716942E+03  0.17300000000E+03 0.  1.
</event>
<event>
 4    1  0.5904698E+000  0.1000000E+03  0.7546771E-02  0.1280296E+00
         21   -1    0    0  501  502  0.00000000000E+00  0.00000000000E+00  0.74922236711E+02  0.74922236711E+02  0.00000000000E+00 0.  1.
         21   -1    0    0  502  503 -0.00000000000E+00 -0.00000000000E+00 -0.12251908719E+04  0.12251908719E+04  0.00000000000E+00 0.  1.
          6    1    1    2  501    0  0.14463294751E+03  0.18800950611E+03 -0.73567698284E+03  0.79209588244E+03  0.17300000000E+03 0.  1.
         -6    1    1    2    0  503 -0.14463294751E+03 -0.18800950611E+03 -0.41459165234E+03  0.50801722617E+03  0.17300000000E+03 0.  1.
</event>
<event>
 4    1  0.5904698E+000  0.1000000E+03  0.7546771E-02  0.1280296E+00
         21   -1    0    0  501  502  0.00000000000E+00  0.00000000000E+00  0.99518292401E+02  0.99518292401E+02  0.00000000000E+00 0.  1.
         21   -1    0    0  502  503 -0.00000000000E+00 -0.00000000000E+00 -0.10725207989E+04  0.10725207989E+04  0.00000000000E+00 0.  1.
          6    1    1    2  501    0 -0.15800384515E+02  0.11068291252E+02  0.94076089427E+01  0.17432630991E+03  0.17300000000E+03 0.  1.
         -6    1    1    2    0  503  0.15800384515E+02 -0.11068291252E+02 -0.98241011543E+03  0.99771278138E+03  0.17300000000E+03 0.  1.
</event>
<event>
 4    1  0.5904698E+000  0.1000000E+03  0.7546771E-02  0.1280296E+00
         21   -1    0    0  501  502  0.00000000000E+00  0.00000000000E+00  0.68271739371E+03  0.68271739371E+03  0.00000000000E+00 0.  1.
         21   -1    0    0  502  503 -0.00000000000E+00 -0.00000000000E+00 -0.95124005048E+02  0.95124005048E+02  0.00000000000E+00 0.  1.
          6    1    1    2  501    0  0.26600897301E+02  0.11289748646E+03  0.51788724357E+03  0.55820215625E+03  0.17300000000E+03 0.  1.
         -6    1    1    2    0  503 -0.26600897301E+02 -0.11289748646E+03  0.69706145092E+02  0.21963924251E+03  0.17300000000E+03 0.  1.
</event>
<event>
 4    1  0.5904698E+000  0.1000000E+03  0.7546771E-02  0.1280296E+00
         21   -1    0    0  503  502  0.00000000000E+00  0.00000000000E+00  0.13531325343E+04  0.13531325343E+04  0.00000000000E+00 0.  1.
         21   -1    0    0  501  503 -0.00000000000E+00 -0.00000000000E+00 -0.48762417625E+02  0.48762417625E+02  0.00000000000E+00 0. -1.
          6    1    1    2  501    0 -0.12740427091E+03 -0.92041662123E+02  0.36147435743E+03  0.43046048238E+03  0.17300000000E+03 0. -1.
         -6    1    1    2    0  502  0.12740427091E+03  0.92041662123E+02  0.94289575926E+03  0.97143446956E+03  0.17300000000E+03 0.  1.
</event>
<event>
 4    1  0.5904698E+000  0.1000000E+03  0.7546771E-02  0.1280296E+00
         21   -1    0    0  503  502  0.00000000000E+00  0.00000000000E+00  0.62014224626E+03  0.62014224626E+03  0.00000000000E+00 0.  1.
         21   -1    0    0  501  503 -0.00000000000E+00 -0.00000000000E+00 -0.90490039230E+02  0.90490039230E+02  0.00000000000E+00 0. -1.
          6    1    1    2  501    0 -0.13148691017E+03 -0.23576841469E+02  0.12782294964E+03  0.25320422875E+03  0.17300000000E+03 0. -1.
         -6    1    1    2    0  502  0.13148691017E+03  0.23576841469E+02  0.40182925738E+03  0.45742805674E+03  0.17300000000E+03 0.  1.
</event>
<event>
 4    1  0.5904698E+000  0.1000000E+03  0.7546771E-02  0.1280296E+00
         21   -1    0    0  503  502  0.00000000000E+00  0.00000000000E+00  0.23498125556E+03  0.23498125556E+03  0.00000000000E+00 0.  1.
         21   -1    0    0  501  503 -0.00000000000E+00 -0.00000000000E+00 -0.18031690553E+03  0.18031690553E+03  0.00000000000E+00 0. -1.
          6    1    1    2  501    0  0.66618751844E+02 -0.86332571827E+02  0.36587379549E+01  0.20453302281E+03  0.17300000000E+03 0. -1.
         -6    1    1    2    0  502 -0.66618751844E+02  0.86332571827E+02  0.51005612073E+02  0.21076513829E+03  0.17300000000E+03 0.  1.
</event>
<event>
 4    1  0.5904698E+000  0.1000000E+03  0.7546771E-02  0.1280296E+00
         21   -1    0    0  503  502  0.00000000000E+00  0.00000000000E+00  0.23469446664E+03  0.23469446664E+03  0.00000000000E+00 0.  1.
         21   -1    0    0  501  503 -0.00000000000E+00 -0.00000000000E+00 -0.17403300685E+03  0.17403300685E+03  0.00000000000E+00 0. -1.
          6    1    1    2  501    0 -0.89655160279E+01  0.54367588788E+02 -0.59429158685E+02  0.19104198515E+03  0.17300000000E+03 0.  1.
         -6    1    1    2    0  502  0.89655160279E+01 -0.54367588788E+02  0.12009061847E+03  0.21768548834E+03  0.17300000000E+03 0.  1.
</event>
<event>
 4    1  0.5904698E+000  0.1000000E+03  0.7546771E-02  0.1280296E+00
         21   -1    0    0  503  502  0.00000000000E+00  0.00000000000E+00  0.68072694849E+03  0.68072694849E+03  0.00000000000E+00 0. -1.
         21   -1    0    0  501  503 -0.00000000000E+00 -0.00000000000E+00 -0.52835249385E+02  0.52835249385E+02  0.00000000000E+00 0. -1.
          6    1    1    2  501    0  0.32467683987E+02  0.60979296611E+02  0.24516596409E+03  0.30790903700E+03  0.17300000000E+03 0. -1.
         -6    1    1    2    0  502 -0.32467683987E+02 -0.60979296611E+02  0.38272573501E+03  0.42565316087E+03  0.17300000000E+03 0. -1.
</event>
<event>
 4    1  0.5904698E+000  0.1000000E+03  0.7546771E-02  0.1280296E+00
         21   -1    0    0  501  502  0.00000000000E+00  0.00000000000E+00  0.47157539445E+02  0.47157539445E+02  0.00000000000E+00 0.  1.
         21   -1    0    0  502  503 -0.00000000000E+00 -0.00000000000E+00 -0.18829620898E+04  0.18829620898E+04  0.00000000000E+00 0. -1.
          6    1    1    2  501    0 -0.49515031789E+02 -0.75140654401E+02 -0.18818069233E+03  0.27099599496E+03  0.17300000000E+03 0.  1.
         -6    1    1    2    0  503  0.49515031789E+02  0.75140654401E+02 -0.16476238581E+04  0.16591236343E+04  0.17300000000E+03 0. -1.
</event>
<event>
 4    1  0.5904698E+000  0.1000000E+03  0.7546771E-02  0.1280296E+00
         21   -1    0    0  503  502  0.00000000000E+00  0.00000000000E+00  0.70712835215E+02  0.70712835215E+02  0.00000000000E+00 0. -1.
         21   -1    0    0  501  503 -0.00000000000E+00 -0.00000000000E+00 -0.51316343041E+03  0.51316343041E+03  0.00000000000E+00 0. -1.
          6    1    1    2  501    0  0.24512335260E+02 -0.72726602555E+02 -0.25438742974E+03  0.31706778094E+03  0.17300000000E+03 0. -1.
         -6    1    1    2    0  502 -0.24512335260E+02  0.72726602555E+02 -0.18806316545E+03  0.26680848468E+03  0.17300000000E+03 0. -1.
</event>
<event>
 4    1  0.5904698E+000  0.1000000E+03  0.7546771E-02  0.1280296E+00
         21   -1    0    0  501  502  0.00000000000E+00  0.00000000000E+00  0.35350354335E+03  0.35350354335E+03  0.00000000000E+00 0. -1.
         21   -1    0    0  502  503 -0.00000000000E+00 -0.00000000000E+00 -0.32552777929E+03  0.32552777929E+03  0.00000000000E+00 0. -1.
          6    1    1    2  501    0  0.26499919773E+02 -0.15613034735E+03  0.25928244767E+03  0.34962167951E+03  0.17300000000E+03 0. -1.
         -6    1    1    2    0  503 -0.26499919773E+02  0.15613034735E+03 -0.23130668361E+03  0.32940964314E+03  0.17300000000E+03 0. -1.
</event>
<event>
 4    1  0.5904698E+000  0.1000000E+03  0.7546771E-02  0.1280296E+00
         21   -1    0    0  501  502  0.00000000000E+00  0.00000000000E+00  0.53396037262E+03  0.53396037262E+03  0.00000000000E+00 0. -1.
         21   -1    0    0  502  503 -0.00000000000E+00 -0.00000000000E+00 -0.28681847390E+03  0.28681847390E+03  0.00000000000E+00 0. -1.
          6    1    1    2  501    0  0.18067377391E+02  0.20978953378E+02  0.49053611786E+03  0.52088504445E+03  0.17300000000E+03 0. -1.
         -6    1    1    2    0  503 -0.18067377391E+02 -0.20978953378E+02 -0.24339421914E+03  0.29989380207E+03  0.17300000000E+03 0. -1.
</event>
<event>
 4    1  0.5904698E+000  0.1000000E+03  0.7546771E-02  0.1280296E+00
         21   -1    0    0  503  502  0.00000000000E+00  0.00000000000E+00  0.37251473829E+03  0.37251473829E+03  0.00000000000E+00 0. -1.
         21   -1    0    0  501  503 -0.00000000000E+00 -0.00000000000E+00 -0.36045960163E+03  0.36045960163E+03  0.00000000000E+00 0. -1.
          6    1    1    2  501    0  0.30972753540E+03  0.22200466366E+02 -0.82998557961E+02  0.36502296847E+03  0.17300000000E+03 0. -1.
         -6    1    1    2    0  502 -0.30972753540E+03 -0.22200466366E+02  0.95053694614E+02  0.36795137145E+03  0.17300000000E+03 0. -1.
</event>
<event>
 4    1  0.5904698E+000  0.1000000E+03  0.7546771E-02  0.1280296E+00
         21   -1    0    0  503  502  0.00000000000E+00  0.00000000000E+00  0.42405304994E+03  0.42405304994E+03  0.00000000000E+00 0. -1.
         21   -1    0    0  501  503 -0.00000000000E+00 -0.00000000000E+00 -0.19926806241E+03  0.19926806241E+03  0.00000000000E+00 0. -1.
          6    1    1    2  501    0 -0.81186540455E+02 -0.25256370816E+02 -0.12088702717E+03  0.22753419953E+03  0.17300000000E+03 0. -1.
         -6    1    1    2    0  502  0.81186540455E+02  0.25256370816E+02  0.34567201470E+03  0.39578691282E+03  0.17300000000E+03 0. -1.
</event>
<event>
 4    1  0.5904698E+000  0.1000000E+03  0.7546771E-02  0.1280296E+00
         21   -1    0    0  501  502  0.00000000000E+00  0.00000000000E+00  0.74419431341E+02  0.74419431341E+02  0.00000000000E+00 0.  1.
         21   -1    0    0  502  503 -0.00000000000E+00 -0.00000000000E+00 -0.65785920541E+03  0.65785920541E+03  0.00000000000E+00 0. -1.
          6    1    1    2  501    0 -0.51598330588E+02  0.12785005562E+03 -0.29920915033E+03  0.37210635587E+03  0.17300000000E+03 0.  1.
         -6    1    1    2    0  503  0.51598330588E+02 -0.12785005562E+03 -0.28423062375E+03  0.36017228088E+03  0.17300000000E+03 0.  1.
</event>
<event>
 4    1  0.5904698E+000  0.1000000E+03  0.7546771E-02  0.1280296E+00
         21   -1    0    0  501  502  0.00000000000E+00  0.00000000000E+00  0.56318547895E+03  0.56318547895E+03  0.00000000000E+00 0. -1.
         21   -1    0    0  502  503 -0.00000000000E+00 -0.00000000000E+00 -0.22291688262E+03  0.22291688262E+03  0.00000000000E+00 0. -1.
          6    1    1    2  501    0  0.55706500977E+02 -0.66455559210E+01  0.50745709466E+03  0.53906315084E+03  0.17300000000E+03 0. -1.
         -6    1    1    2    0  503 -0.55706500977E+02  0.66455559210E+01 -0.16718849833E+03  0.24703921073E+03  0.17300000000E+03 0. -1.
</event>
<event>
 4    1  0.5904698E+000  0.1000000E+03  0.7546771E-02  0.1280296E+00
         21   -1    0    0  501  502  0.00000000000E+00  0.00000000000E+00  0.52632631643E+02  0.52632631643E+02  0.00000000000E+00 0. -1.
         21   -1    0    0  502  503 -0.00000000000E+00 -0.00000000000E+00 -0.12070746399E+04  0.12070746399E+04  0.00000000000E+00 0. -1.
          6    1    1    2  501    0  0.22785890449E+02  0.79836862151E+02 -0.16882917110E+03  0.25558836119E+03  0.17300000000E+03 0. -1.
         -6    1    1    2    0  503 -0.22785890449E+02 -0.79836862151E+02 -0.98561283717E+03  0.10041189104E+04  0.17300000000E+03 0. -1.
</event>
<event>
 4    1  0.5904698E+000  0.1000000E+03  0.7546771E-02  0.1280296E+00
         21   -1    0    0  503  502  0.00000000000E+00  0.00000000000E+00  0.72510416788E+03  0.72510416788E+03  0.00000000000E+00 0. -1.
         21   -1    0    0  501  503 -0.00000000000E+00 -0.00000000000E+00 -0.65928528212E+02  0.65928528212E+02  0.00000000000E+00 0.  1.
          6    1    1    2  501    0 -0.13092858916E+03 -0.25528967962E+02  0.34597128486E+03  0.40916885709E+03  0.17300000000E+03 0.  1.
         -6    1    1    2    0  502  0.13092858916E+03  0.25528967962E+02  0.31320435481E+03  0.38186383900E+03  0.17300000000E+03 0. -1.
</event>
<event>
 4    1  0.5904698E+000  0.1000000E+03  0.7546771E-02  0.1280296E+00
         21   -1    0    0  503  502  0.00000000000E+00  0.00000000000E+00  0.41847364961E+03  0.41847364961E+03  0.00000000000E+00 0. -1.
         21   -1    0    0  501  503 -0.00000000000E+00 -0.00000000000E+00 -0.10366093770E+03  0.10366093770E+03  0.00000000000E+00 0. -1.
          6    1    1    2  501    0 -0.42606652192E+02 -0.86552536797E+02  0.23809364519E+03  0.30971640627E+03  0.17300000000E+03 0. -1.
         -6    1    1    2    0  502  0.42606652192E+02  0.86552536797E+02  0.76719066719E+02  0.21241818104E+03  0.17300000000E+03 0. -1.
</event>
<event>
 4    1  0.5904698E+000  0.1000000E+03  0.7546771E-02  0.1280296E+00
         21   -1    0    0  503  502  0.00000000000E+00  0.00000000000E+00  0.97334226619E+02  0.97334226619E+02  0.00000000000E+00 0. -1.
         21   -1    0    0  501  503 -0.00000000000E+00 -0.00000000000E+00 -0.39032397099E+03  0.39032397099E+03  0.00000000000E+00 0. -1.
          6    1    1    2  501    0  0.51835891190E+02  0.72344828382E+02 -0.16140943628E+03  0.25278991264E+03  0.17300000000E+03 0. -1.
         -6    1    1    2    0  502 -0.51835891190E+02 -0.72344828382E+02 -0.13158030809E+03  0.23486828497E+03  0.17300000000E+03 0. -1.
</event>
<event>
 4    1  0.5904698E+000  0.1000000E+03  0.7546771E-02  0.1280296E+00
         21   -1    0    0  503  502  0.00000000000E+00  0.00000000000E+00  0.30081601549E+03  0.30081601549E+03  0.00000000000E+00 0. -1.
         21   -1    0    0  501  503 -0.00000000000E+00 -0.00000000000E+00 -0.16798234128E+03  0.16798234128E+03  0.00000000000E+00 0. -1.
          6    1    1    2  501    0 -0.67475919476E+02 -0.10498249210E+03 -0.75251446704E+01  0.21344777150E+03  0.17300000000E+03 0. -1.
         -6    1    1    2    0  502  0.67475919476E+02  0.10498249210E+03  0.14035881888E+03  0.25535058526E+03  0.17300000000E+03 0. -1.
</event>
<event>
 4    1  0.5904698E+000  0.1000000E+03  0.7546771E-02  0.1280296E+00
         21   -1    0    0  503  502  0.00000000000E+00  0.00000000000E+00  0.10624008673E+04  0.10624008673E+04  0.00000000000E+00 0. -1.
         21   -1    0    0  501  503 -0.00000000000E+00 -0.00000000000E+00 -0.66085432646E+02  0.66085432646E+02  0.00000000000E+00 0. -1.
          6    1    1    2  501    0  0.13720105397E+03 -0.12620420590E+03  0.33982290321E+03  0.42445286705E+03  0.17300000000E+03 0. -1.
         -6    1    1    2    0  502 -0.13720105397E+03  0.12620420590E+03  0.65649253142E+03  0.70403343287E+03  0.17300000000E+03 0. -1.
</event>
<event>
 4    1  0.5904698E+000  0.1000000E+03  0.7546771E-02  0.1280296E+00
         21   -1    0    0  503  502  0.00000000000E+00  0.00000000000E+00  0.85388775476E+03  0.85388775476E+03  0.00000000000E+00 0. -1.
         21   -1    0    0  501  503 -0.00000000000E+00 -0.00000000000E+00 -0.22306275276E+03  0.22306275276E+03  0.00000000000E+00 0.  1.
          6    1    1    2  501    0 -0.32375808099E+03  0.19219001990E+03  0.14630597485E+03  0.43942091101E+03  0.17300000000E+03 0.  1.
         -6    1    1    2    0  502  0.32375808099E+03 -0.19219001990E+03  0.48451902716E+03  0.63752959651E+03  0.17300000000E+03 0. -1.
</event>
<event>
 4    1  0.5904698E+000  0.1000000E+03  0.7546771E-02  0.1280296E+00
         21   -1    0    0  503  502  0.00000000000E+00  0.00000000000E+00  0.13645179683E+04  0.13645179683E+04  0.00000000000E+00 0.  1.
         21   -1    0    0  501  503 -0.00000000000E+00 -0.00000000000E+00 -0.43684455361E+02  0.43684455361E+02  0.00000000000E+00 0. -1.
          6    1    1    2  501    0  0.68236503284E+02 -0.14525248645E+02  0.20614778879E+03  0.27801639170E+03  0.17300000000E+03 0.  1.
         -6    1    1    2    0  502 -0.68236503284E+02  0.14525248645E+02  0.11146857241E+04  0.11301860320E+04  0.17300000000E+03 0. -1.
</event>
<event>
 4    1  0.5904698E+000  0.1000000E+03  0.7546771E-02  0.1280296E+00
         21   -1    0    0  503  502  0.00000000000E+00  0.00000000000E+00  0.29273549660E+03  0.29273549660E+03  0.00000000000E+00 0.  1.
         21   -1    0    0  501  503 -0.00000000000E+00 -0.00000000000E+00 -0.54464594501E+03  0.54464594501E+03  0.00000000000E+00 0. -1.
          6    1    1    2  501    0 -0.77279480042E+02 -0.16650431601E+03 -0.45052595634E+03  0.51633171762E+03  0.17300000000E+03 0.  1.
         -6    1    1    2    0  502  0.77279480042E+02  0.16650431601E+03  0.19861550793E+03  0.32104972399E+03  0.17300000000E+03 0. -1.
</event>
<event>
 4    1  0.5904698E+000  0.1000000E+03  0.7546771E-02  0.1280296E+00
         21   -1    0    0  503  502  0.00000000000E+00  0.00000000000E+00  0.24599911978E+03  0.24599911978E+03  0.00000000000E+00 0.  1.
         21   -1    0    0  501  503 -0.00000000000E+00 -0.00000000000E+00 -0.20162938299E+03  0.20162938299E+03  0.00000000000E+00 0. -1.
          6    1    1    2  501    0  0.85231281634E+02 -0.11037021509E+03  0.70873694685E+01  0.22231776032E+03  0.17300000000E+03 0.  1.
         -6    1    1    2    0  502 -0.85231281634E+02  0.11037021509E+03  0.37282367323E+02  0.22531074244E+03  0.17300000000E+03 0. -1.
</event>
<event>
 4    1  0.5904698E+000  0.1000000E+03  0.7546771E-02  0.1280296E+00
         21   -1    0    0  503  502  0.00000000000E+00  0.00000000000E+00  0.21521768172E+03  0.21521768172E+03  0.00000000000E+00 0.  1.
         21   -1    0    0  501  503 -0.00000000000E+00 -0.00000000000E+00 -0.20157660479E+03  0.20157660479E+03  0.00000000000E+00 0.  1.
          6    1    1    2  501    0 -0.37002731488E+02  0.10986753592E+03  0.31074866682E+01  0.20827562042E+03  0.17300000000E+03 0.  1.
         -6    1    1    2    0  502  0.37002731488E+02 -0.10986753592E+03  0.10533590255E+02  0.20851866610E+03  0.17300000000E+03 0.  1.
</event>
<event>
 4    1  0.5904698E+000  0.1000000E+03  0.7546771E-02  0.1280296E+00
         21   -1    0    0  503  502  0.00000000000E+00  0.00000000000E+00  0.37830078586E+02  0.37830078586E+02  0.00000000000E+00 0.  1.
         21   -1    0    0  501  503 -0.00000000000E+00 -0.00000000000E+00 -0.94286487128E+03  0.94286487128E+03  0.00000000000E+00 0.  1.
          6    1    1    2  501    0 -0.60266827409E+02 -0.61856906408E+01 -0.57062346390E+03  0.59934171456E+03  0.17300000000E+03 0.  1.
         -6    1    1    2    0  502  0.60266827409E+02  0.61856906408E+01 -0.33441132880E+03  0.38135323531E+03  0.17300000000E+03 0.  1.
</event>
<event>
 4    1  0.5904698E+000  0.1000000E+03  0.7546771E-02  0.1280296E+00
         21   -1    0    0  503  502  0.00000000000E+00  0.00000000000E+00  0.25413062612E+03  0.25413062612E+03  0.00000000000E+00 0.  1.
         21   -1    0    0  501  503 -0.00000000000E+00 -0.00000000000E+00 -0.14375607935E+03  0.14375607935E+03  0.00000000000E+00 0.  1.
          6    1    1    2  501    0 -0.15273887555E+02  0.34291401007E+01 -0.27812028535E+02  0.17591918478E+03  0.17300000000E+03 0.  1.
         -6    1    1    2    0  502  0.15273887555E+02 -0.34291401007E+01  0.13818657530E+03  0.22196752068E+03  0.17300000000E+03 0.  1.
</event>
<event>
 4    1  0.5904698E+000  0.1000000E+03  0.7546771E-02  0.1280296E+00
         21   -1    0    0  503  502  0.00000000000E+00  0.00000000000E+00  0.14896183715E+03  0.14896183715E+03  0.00000000000E+00 0.  1.
         21   -1    0    0  501  503 -0.00000000000E+00 -0.00000000000E+00 -0.29254764098E+03  0.29254764098E+03  0.00000000000E+00 0.  1.
          6    1    1    2  501    0 -0.57057154015E+02  0.87349423996E+02 -0.12738879653E+03  0.23883539557E+03  0.17300000000E+03 0.  1.
         -6    1    1    2    0  502  0.57057154015E+02 -0.87349423996E+02 -0.16197007298E+02  0.20267408256E+03  0.17300000000E+03 0.  1.
</event>
<event>
 4    1  0.5904698E+000  0.1000000E+03  0.7546771E-02  0.1280296E+00
         21   -1    0    0  503  502  0.00000000000E+00  0.00000000000E+00  0.20750994819E+04  0.20750994819E+04  0.00000000000E+00 0. -1.
         21   -1    0    0  501  503 -0.00000000000E+00 -0.00000000000E+00 -0.38436815406E+02  0.38436815406E+02  0.00000000000E+00 0. -1.
          6    1    1    2  501    0 -0.18435200825E+03 -0.60393728094E+02  0.60506165050E+03  0.65852992814E+03  0.17300000000E+03 0. -1.
         -6    1    1    2    0  502  0.18435200825E+03  0.60393728094E+02  0.14316010160E+04  0.14550063692E+04  0.17300000000E+03 0. -1.
</event>
<event>
 4    1  0.5904698E+000  0.1000000E+03  0.7546771E-02  0.1280296E+00
         21   -1    0    0  503  502  0.00000000000E+00  0.00000000000E+00  0.12170686433E+03  0.12170686433E+03  0.00000000000E+00 0. -1.
         21   -1    0    0  501  503 -0.00000000000E+00 -0.00000000000E+00 -0.33610829833E+03  0.33610829833E+03  0.00000000000E+00 0.  1.
          6    1    1    2  501    0  0.16944879473E+02 -0.89663703053E+02 -0.16547354881E+03  0.25619758769E+03  0.17300000000E+03 0.  1.
         -6    1    1    2    0  502 -0.16944879473E+02  0.89663703053E+02 -0.48927885190E+02  0.20161757496E+03  0.17300000000E+03 0. -1.
</event>
<event>
 4    1  0.5904698E+000  0.1000000E+03  0.7546771E-02  0.1280296E+00
         21   -1    0    0  503  502  0.00000000000E+00  0.00000000000E+00  0.16844082148E+03  0.16844082148E+03  0.00000000000E+00 0. -1.
         21   -1    0    0  501  503 -0.00000000000E+00 -0.00000000000E+00 -0.10921226803E+04  0.10921226803E+04  0.00000000000E+00 0.  1.
          6    1    1    2  501    0  0.37074778176E+02  0.34173084139E+03 -0.74017635170E+03  0.83423290438E+03  0.17300000000E+03 0.  1.
         -6    1    1    2    0  502 -0.37074778176E+02 -0.34173084139E+03 -0.18350550710E+03  0.42633059739E+03  0.17300000000E+03 0. -1.
</event>
<event>
 4    1  0.5904698E+000  0.1000000E+03  0.7546771E-02  0.1280296E+00
         21   -1    0    0  503  502  0.00000000000E+00  0.00000000000E+00  0.99568683142E+03  0.99568683142E+03  0.00000000000E+00 0. -1.
         21   -1    0    0  501  503 -0.00000000000E+00 -0.00000000000E+00 -0.86194084209E+02  0.86194084209E+02  0.00000000000E+00 0.  1.
          6    1    1    2  501    0  0.88588037396E+02  0.74894063228E+01  0.50243197590E+02  0.20089129021E+03  0.17300000000E+03 0.  1.
         -6    1    1    2    0  502 -0.88588037396E+02 -0.74894063228E+01  0.85924954963E+03  0.88098962543E+03  0.17300000000E+03 0. -1.
</event>
<event>
 4    1  0.5904698E+000  0.1000000E+03  0.7546771E-02  0.1280296E+00
         21   -1    0    0  503  502  0.00000000000E+00  0.00000000000E+00  0.25171939361E+03  0.25171939361E+03  0.00000000000E+00 0. -1.
         21   -1    0    0  501  503 -0.00000000000E+00 -0.00000000000E+00 -0.17370374441E+03  0.17370374441E+03  0.00000000000E+00 0.  1.
          6    1    1    2  501    0 -0.22551668160E+02  0.10980223915E+03  0.33243171736E+01  0.20616779706E+03  0.17300000000E+03 0.  1.
         -6    1    1    2    0  502  0.22551668160E+02 -0.10980223915E+03  0.74691332028E+02  0.21925534096E+03  0.17300000000E+03 0. -1.
</event>
<event>
 4    1  0.5904698E+000  0.1000000E+03  0.7546771E-02  0.1280296E+00
         21   -1    0    0  503  502  0.00000000000E+00  0.00000000000E+00  0.60654932276E+03  0.60654932276E+03  0.00000000000E+00 0. -1.
         21   -1    0    0  501  503 -0.00000000000E+00 -0.00000000000E+00 -0.10316705922E+03  0.10316705922E+03  0.00000000000E+00 0.  1.
          6    1    1    2  501    0 -0.11441170935E+03  0.65387877322E+02  0.76330805843E+02  0.23047994632E+03  0.17300000000E+03 0. -1.
         -6    1    1    2    0  502  0.11441170935E+03 -0.65387877322E+02  0.42705145770E+03  0.47923643566E+03  0.17300000000E+03 0. -1.
</event>
<event>
 4    1  0.5904698E+000  0.1000000E+03  0.7546771E-02  0.1280296E+00
         21   -1    0    0  501  502  0.00000000000E+00  0.00000000000E+00  0.25860575974E+03  0.25860575974E+03  0.00000000000E+00 0.  1.
         21   -1    0    0  502  503 -0.00000000000E+00 -0.00000000000E+00 -0.18002559074E+03  0.18002559074E+03  0.00000000000E+00 0.  1.
          6    1    1    2  501    0 -0.83512155721E+02 -0.15887923194E+02  0.13783771563E+03  0.23697034014E+03  0.17300000000E+03 0.  1.
         -6    1    1    2    0  503  0.83512155721E+02  0.15887923194E+02 -0.59257546632E+02  0.20166101034E+03  0.17300000000E+03 0.  1.
</event>
<event>
 4    1  0.5904698E+000  0.1000000E+03  0.7546771E-02  0.1280296E+00
         21   -1    0    0  501  502  0.00000000000E+00  0.00000000000E+00  0.13499703588E+04  0.13499703588E+04  0.00000000000E+00 0. -1.
         21   -1    0    0  502  503 -0.00000000000E+00 -0.00000000000E+00 -0.28926606362E+03  0.28926606362E+03  0.00000000000E+00 0.  1.
          6    1    1    2  501    0  0.10239361538E+03 -0.17445111747E+03  0.12719027455E+04  0.12994549776E+04  0.17300000000E+03 0. -1.
         -6    1    1    2    0  503 -0.10239361538E+03  0.17445111747E+03 -0.21119845028E+03  0.33978144484E+03  0.17300000000E+03 0.  1.
</event>
<event>
 4    1  0.5904698E+000  0.1000000E+03  0.7546771E-02  0.1280296E+00
         21   -1    0    0  501  502  0.00000000000E+00  0.00000000000E+00  0.84738842672E+02  0.84738842672E+02  0.00000000000E+00 0. -1.
         21   -1    0    0  502  503 -0.00000000000E+00 -0.00000000000E+00 -0.19059666179E+04  0.19059666179E+04  0.00000000000E+00 0.  1.
          6    1    1    2  501    0  0.56692150688E+02  0.18800582627E+03 -0.15523164416E+03  0.30427956555E+03  0.17300000000E+03 0. -1.
         -6    1    1    2    0  503 -0.56692150688E+02 -0.18800582627E+03 -0.16659961311E+04  0.16864258950E+04  0.17300000000E+03 0.  1.
</event>
<event>
 4    1  0.5904698E+000  0.1000000E+03  0.7546771E-02  0.1280296E+00
         21   -1    0    0  501  502  0.00000000000E+00  0.00000000000E+00  0.29399295189E+03  0.29399295189E+03  0.00000000000E+00 0. -1.
         21   -1    0    0  502  503 -0.00000000000E+00 -0.00000000000E+00 -0.14907167678E+04  0.14907167678E+04  0.00000000000E+00 0.  1.
          6    1    1    2  501    0  0.21110062856E+03  0.27710674948E+03  0.12373764513E+03  0.40815638033E+03  0.17300000000E+03 0. -1.
         -6    1    1    2    0  503 -0.21110062856E+03 -0.27710674948E+03 -0.13204614611E+04  0.13765533394E+04  0.17300000000E+03 0.  1.
</event>
<event>
 4    1  0.5904698E+000  0.1000000E+03  0.7546771E-02  0.1280296E+00
         21   -1    0    0  503  502  0.00000000000E+00  0.00000000000E+00  0.27398705218E+03  0.27398705218E+03  0.00000000000E+00 0.  1.
         21   -1    0    0  501  503 -0.00000000000E+00 -0.00000000000E+00 -0.28699015122E+03  0.28699015122E+03  0.00000000000E+00 0.  1.
          6    1    1    2  501    0  0.11946755246E+02 -0.37028582487E+02 -0.22378963481E+03  0.28552520297E+03  0.17300000000E+03 0.  1.
         -6    1    1    2    0  502 -0.11946755246E+02  0.37028582487E+02  0.21078653577E+03  0.27545200043E+03  0.17300000000E+03 0.  1.
</event>
<event>
 4    1  0.5904698E+000  0.1000000E+03  0.7546771E-02  0.1280296E+00
         21   -1    0    0  501  502  0.00000000000E+00  0.00000000000E+00  0.93667427853E+02  0.93667427853E+02  0.00000000000E+00 0.  1.
         21   -1    0    0  502  503 -0.00000000000E+00 -0.00000000000E+00 -0.82236900373E+03  0.82236900373E+03  0.00000000000E+00 0.  1.
          6    1    1    2  501    0 -0.19554757501E+03 -0.59104410648E+02 -0.24344098945E+03  0.36183518457E+03  0.17300000000E+03 0.  1.
         -6    1    1    2    0  503  0.19554757501E+03  0.59104410648E+02 -0.48526058643E+03  0.55420124701E+03  0.17300000000E+03 0.  1.
</event>
<event>
 4    1  0.5904698E+000  0.1000000E+03  0.7546771E-02  0.1280296E+00
         21   -1    0    0  501  502  0.00000000000E+00  0.00000000000E+00  0.96993849966E+03  0.96993849966E+03  0.00000000000E+00 0.  1.
         21   -1    0    0  502  503 -0.00000000000E+00 -0.00000000000E+00 -0.68436462219E+02  0.68436462219E+02  0.00000000000E+00 0.  1.
          6    1    1    2  501    0 -0.58674630287E+02 -0.11794670373E+03  0.17228013420E+03  0.27742310971E+03  0.17300000000E+03 0.  1.
         -6    1    1    2    0  503  0.58674630287E+02  0.11794670373E+03  0.72922190324E+03  0.76095185217E+03  0.17300000000E+03 0.  1.
</event>
<event>
 4    1  0.5904698E+000  0.1000000E+03  0.7546771E-02  0.1280296E+00
         21   -1    0    0  501  502  0.00000000000E+00  0.00000000000E+00  0.20286433313E+03  0.20286433313E+03  0.00000000000E+00 0.  1.
         21   -1    0    0  502  503 -0.00000000000E+00 -0.00000000000E+00 -0.33127902849E+03  0.33127902849E+03  0.00000000000E+00 0.  1.
          6    1    1    2  501    0 -0.85338194705E+02  0.11718437899E+03  0.67163947785E+02  0.23548839045E+03  0.17300000000E+03 0.  1.
         -6    1    1    2    0  503  0.85338194705E+02 -0.11718437899E+03 -0.19557864314E+03  0.29865497117E+03  0.17300000000E+03 0.  1.
</event>
<event>
 4    1  0.5904698E+000  0.1000000E+03  0.7546771E-02  0.1280296E+00
         21   -1    0    0  501  502  0.00000000000E+00  0.00000000000E+00  0.11077007820E+04  0.11077007820E+04  0.00000000000E+00 0. -1.
         21   -1    0    0  502  503 -0.00000000000E+00 -0.00000000000E+00 -0.11911935127E+03  0.11911935127E+03  0.00000000000E+00 0. -1.
          6    1    1    2  501    0  0.27412715827E+03  0.11321101569E+03  0.69450607334E+03  0.77474519611E+03  0.17300000000E+03 0. -1.
         -6    1    1    2    0  503 -0.27412715827E+03 -0.11321101569E+03  0.29407535735E+03  0.45207493713E+03  0.17300000000E+03 0. -1.
</event>
<event>
 4    1  0.5904698E+000  0.1000000E+03  0.7546771E-02  0.1280296E+00
         21   -1    0    0  503  502  0.00000000000E+00  0.00000000000E+00  0.18555941229E+03  0.18555941229E+03  0.00000000000E+00 0.  1.
         21   -1    0    0  501  503 -0.00000000000E+00 -0.00000000000E+00 -0.24904118771E+03  0.24904118771E+03  0.00000000000E+00 0. -1.
          6    1    1    2  501    0 -0.12717826672E+03  0.70411498565E+01 -0.23973364355E+02  0.21616570384E+03  0.17300000000E+03 0. -1.
         -6    1    1    2    0  502  0.12717826672E+03 -0.70411498565E+01 -0.39508411061E+02  0.21843489616E+03  0.17300000000E+03 0.  1.
</event>
<event>
 4    1  0.5904698E+000  0.1000000E+03  0.7546771E-02  0.1280296E+00
         21   -1    0    0  503  502  0.00000000000E+00  0.00000000000E+00  0.11539750789E+04  0.11539750789E+04  0.00000000000E+00 0.  1.
         21   -1    0    0  501  503 -0.00000000000E+00 -0.00000000000E+00 -0.36781356859E+02  0.36781356859E+02  0.00000000000E+00 0. -1.
          6    1    1    2  501    0 -0.51246112579E+02 -0.51447444342E+01  0.27159257618E+03  0.32610452295E+03  0.17300000000E+03 0. -1.
         -6    1    1    2    0  502  0.51246112579E+02  0.51447444342E+01  0.84560114585E+03  0.86465191280E+03  0.17300000000E+03 0.  1.
</event>
<event>
 4    1  0.5904698E+000  0.1000000E+03  0.7546771E-02  0.1280296E+00
         21   -1    0    0  503  502  0.00000000000E+00  0.00000000000E+00  0.66278841465E+02  0.66278841465E+02  0.00000000000E+00 0.  1.
         21   -1    0    0  501  503 -0.00000000000E+00 -0.00000000000E+00 -0.51393594415E+03  0.51393594415E+03  0.00000000000E+00 0. -1.
          6    1    1    2  501    0  0.26184709820E+02 -0.24291117856E+02 -0.30786679046E+03  0.35494599322E+03  0.17300000000E+03 0. -1.
         -6    1    1    2    0  502 -0.26184709820E+02  0.24291117856E+02 -0.13979031222E+03  0.22526879239E+03  0.17300000000E+03 0.  1.
</event>
<event>
 4    1  0.5904698E+000  0.1000000E+03  0.7546771E-02  0.1280296E+00
         21   -1    0    0  501  502  0.00000000000E+00  0.00000000000E+00  0.37891123717E+03  0.37891123717E+03  0.00000000000E+00 0. -1.
         21   -1    0    0  502  503 -0.00000000000E+00 -0.00000000000E+00 -0.15546710972E+03  0.15546710972E+03  0.00000000000E+00 0. -1.
          6    1    1    2  501    0 -0.56303135541E+02 -0.90584725135E+02  0.25778216243E+03  0.32826251502E+03  0.17300000000E+03 0. -1.
         -6    1    1    2    0  503  0.56303135541E+02  0.90584725135E+02 -0.34338034978E+02  0.20611583187E+03  0.17300000000E+03 0. -1.
</event>
<event>
 4    1  0.5904698E+000  0.1000000E+03  0.7546771E-02  0.1280296E+00
         21   -1    0    0  501  502  0.00000000000E+00  0.00000000000E+00  0.27442969114E+03  0.27442969114E+03  0.00000000000E+00 0. -1.
         21   -1    0    0  502  503 -0.00000000000E+00 -0.00000000000E+00 -0.20961910078E+03  0.20961910078E+03  0.00000000000E+00 0. -1.
          6    1    1    2  501    0  0.10094588566E+03 -0.65245744230E+02 -0.83308429170E+02  0.22653117521E+03  0.17300000000E+03 0. -1.
         -6    1    1    2    0  503 -0.10094588566E+03  0.65245744230E+02  0.14811901952E+03  0.25751761671E+03  0.17300000000E+03 0. -1.
</event>
<event>
 4    1  0.5904698E+000  0.1000000E+03  0.7546771E-02  0.1280296E+00
         21   -1    0    0  503  502  0.00000000000E+00  0.00000000000E+00  0.31887298968E+04  0.31887298968E+04  0.00000000000E+00 0. -1.
         21   -1    0    0  501  503 -0.00000000000E+00 -0.00000000000E+00 -0.24561824239E+02  0.24561824239E+02  0.00000000000E+00 0. -1.
          6    1    1    2  501    0 -0.86661810801E+02 -0.13551984315E+03  0.72063851492E+03  0.75836980855E+03  0.17300000000E+03 0. -1.
         -6    1    1    2    0  502  0.86661810801E+02  0.13551984315E+03  0.24435295577E+04  0.24549219125E+04  0.17300000000E+03 0. -1.
</event>
<event>
 4    1  0.5904698E+000  0.1000000E+03  0.7546771E-02  0.1280296E+00
         21   -1    0    0  501  502  0.00000000000E+00  0.00000000000E+00  0.13652558819E+03  0.13652558819E+03  0.00000000000E+00 0. -1.
         21   -1    0    0  502  503 -0.00000000000E+00 -0.00000000000E+00 -0.10371746596E+04  0.10371746596E+04  0.00000000000E+00 0. -1.
          6    1    1    2  501    0 -0.17285280437E+03 -0.21774944772E+03 -0.16116292705E+03  0.36495945393E+03  0.17300000000E+03 0. -1.
         -6    1    1    2    0  503  0.17285280437E+03  0.21774944772E+03 -0.73948614433E+03  0.80874079383E+03  0.17300000000E+03 0. -1.
</event>
<event>
 4    1  0.5904698E+000  0.1000000E+03  0.7546771E-02  0.1280296E+00
         21   -1    0    0  501  502  0.00000000000E+00  0.00000000000E+00  0.76942424487E+03  0.76942424487E+03  0.00000000000E+00 0. -1.
         21   -1    0    0  502  503 -0.00000000000E+00 -0.00000000000E+00 -0.79710339813E+03  0.79710339813E+03  0.00000000000E+00 0. -1.
          6    1    1    2  501    0 -0.26943554728E+02 -0.63029824761E+03  0.41678524537E+03  0.77565506305E+03  0.17300000000E+03 0. -1.
         -6    1    1    2    0  503  0.26943554728E+02  0.63029824761E+03 -0.44446439862E+03  0.79087257995E+03  0.17300000000E+03 0. -1.
</event>
<event>
 4    1  0.5904698E+000  0.1000000E+03  0.7546771E-02  0.1280296E+00
         21   -1    0    0  503  502  0.00000000000E+00  0.00000000000E+00  0.32532361166E+03  0.32532361166E+03  0.00000000000E+00 0.  1.
         21   -1    0    0  501  503 -0.00000000000E+00 -0.00000000000E+00 -0.17445125671E+03  0.17445125671E+03  0.00000000000E+00 0.  1.
          6    1    1    2  501    0  0.70796948015E+02  0.89982744948E+02 -0.47406040367E+02  0.21280374738E+03  0.17300000000E+03 0.  1.
         -6    1    1    2    0  502 -0.70796948015E+02 -0.89982744948E+02  0.19827839531E+03  0.28697112099E+03  0.17300000000E+03 0.  1.
</event>
<event>
 4    1  0.5904698E+000  0.1000000E+03  0.7546771E-02  0.1280296E+00
         21   -1    0    0  503  502  0.00000000000E+00  0.00000000000E+00  0.10871162339E+03  0.10871162339E+03  0.00000000000E+00 0.  1.
         21   -1    0    0  501  503 -0.00000000000E+00 -0.00000000000E+00 -0.32540723855E+03  0.32540723855E+03  0.00000000000E+00 0.  1.
          6    1    1    2  501    0 -0.65859329460E+02 -0.33301761932E+02 -0.10800055157E+03  0.21688609399E+03  0.17300000000E+03 0.  1.
         -6    1    1    2    0  502  0.65859329460E+02  0.33301761932E+02 -0.10869506358E+03  0.21723276795E+03  0.17300000000E+03 0.  1.
</event>
<event>
 4    1  0.5904698E+000  0.1000000E+03  0.7546771E-02  0.1280296E+00
         21   -1    0    0  503  502  0.00000000000E+00  0.00000000000E+00  0.28349609436E+02  0.28349609436E+02  0.00000000000E+00 0.  1.
         21   -1    0    0  501  503 -0.00000000000E+00 -0.00000000000E+00 -0.31684017284E+04  0.31684017284E+04  0.00000000000E+00 0.  1.
          6    1    1    2  501    0  0.24467660517E+03 -0.22486804126E+01 -0.15448673821E+04  0.15736632187E+04  0.17300000000E+03 0.  1.
         -6    1    1    2    0  502 -0.24467660517E+03  0.22486804126E+01 -0.15951847368E+04  0.16230881191E+04  0.17300000000E+03 0.  1.
</event>
<event>
 4    1  0.5904698E+000  0.1000000E+03  0.7546771E-02  0.1280296E+00
         21   -1    0    0  503  502  0.00000000000E+00  0.00000000000E+00  0.12082234126E+03  0.12082234126E+03  0.00000000000E+00 0.  1.
         21   -1    0    0  501  503 -0.00000000000E+00 -0.00000000000E+00 -0.71605142499E+03  0.71605142499E+03  0.00000000000E+00 0. -1.
          6    1    1    2  501    0 -0.21482495289E+03  0.82776665300E+02 -0.38278417255E+03  0.47901404933E+03  0.17300000000E+03 0. -1.
         -6    1    1    2    0  502  0.21482495289E+03 -0.82776665300E+02 -0.21244491119E+03  0.35785971692E+03  0.17300000000E+03 0.  1.
</event>
<event>
 4    1  0.5904698E+000  0.1000000E+03  0.7546771E-02  0.1280296E+00
         21   -1    0    0  503  502  0.00000000000E+00  0.00000000000E+00  0.48146800486E+03  0.48146800486E+03  0.00000000000E+00 0.  1.
         21   -1    0    0  501  503 -0.00000000000E+00 -0.00000000000E+00 -0.91762960393E+02  0.91762960393E+02  0.00000000000E+00 0. -1.
          6    1    1    2  501    0  0.63041947918E+02  0.19862268428E+02  0.59293155033E+02  0.19445687218E+03  0.17300000000E+03 0. -1.
         -6    1    1    2    0  502 -0.63041947918E+02 -0.19862268428E+02  0.33041188944E+03  0.37877409308E+03  0.17300000000E+03 0.  1.
</event>
<event>
 4    1  0.5904698E+000  0.1000000E+03  0.7546771E-02  0.1280296E+00
         21   -1    0    0  503  502  0.00000000000E+00  0.00000000000E+00  0.16637317455E+03  0.16637317455E+03  0.00000000000E+00 0.  1.
         21   -1    0    0  501  503 -0.00000000000E+00 -0.00000000000E+00 -0.24182626010E+03  0.24182626010E+03  0.00000000000E+00 0. -1.
          6    1    1    2  501    0 -0.15595376795E+02 -0.82710774870E+02 -0.95467593247E+02  0.21477278556E+03  0.17300000000E+03 0. -1.
         -6    1    1    2    0  502  0.15595376795E+02  0.82710774870E+02  0.20014507700E+02  0.19342664908E+03  0.17300000000E+03 0.  1.
</event>
<event>
 4    1  0.5904698E+000  0.1000000E+03  0.7546771E-02  0.1280296E+00
         21   -1    0    0  503  502  0.00000000000E+00  0.00000000000E+00  0.78656486535E+02  0.78656486535E+02  0.00000000000E+00 0.  1.
         21   -1    0    0  501  503 -0.00000000000E+00 -0.00000000000E+00 -0.69197909831E+03  0.69197909831E+03  0.00000000000E+00 0.  1.
          6    1    1    2  501    0 -0.10015716727E+03  0.11773214297E+03 -0.34736345191E+03  0.41771124400E+03  0.17300000000E+03 0.  1.
         -6    1    1    2    0  502  0.10015716727E+03 -0.11773214297E+03 -0.26595915986E+03  0.35292434084E+03  0.17300000000E+03 0.  1.
</event>
<event>
 4    1  0.5904698E+000  0.1000000E+03  0.7546771E-02  0.1280296E+00
         21   -1    0    0  503  502  0.00000000000E+00  0.00000000000E+00  0.23287665347E+04  0.23287665347E+04  0.00000000000E+00 0.  1.
         21   -1    0    0  501  503 -0.00000000000E+00 -0.00000000000E+00 -0.29273219558E+02  0.29273219558E+02  0.00000000000E+00 0.  1.
          6    1    1    2  501    0  0.15835119017E+03 -0.91888141627E+02  0.14600812776E+04  0.14816493739E+04  0.17300000000E+03 0.  1.
         -6    1    1    2    0  502 -0.15835119017E+03  0.91888141627E+02  0.83941203753E+03  0.87639038034E+03  0.17300000000E+03 0.  1.
</event>
<event>
 4    1  0.5904698E+000  0.1000000E+03  0.7546771E-02  0.1280296E+00
         21   -1    0    0  503  502  0.00000000000E+00  0.00000000000E+00  0.14014448698E+03  0.14014448698E+03  0.00000000000E+00 0.  1.
         21   -1    0    0  501  503 -0.00000000000E+00 -0.00000000000E+00 -0.58778885783E+03  0.58778885783E+03  0.00000000000E+00 0.  1.
          6    1    1    2  501    0 -0.18769729062E+02 -0.22815315632E+03 -0.21578157061E+03  0.35902207688E+03  0.17300000000E+03 0.  1.
         -6    1    1    2    0  502  0.18769729062E+02  0.22815315632E+03 -0.23186280024E+03  0.36891126793E+03  0.17300000000E+03 0.  1.
</event>
<event>
 4    1  0.5904698E+000  0.1000000E+03  0.7546771E-02  0.1280296E+00
         21   -1    0    0  503  502  0.00000000000E+00  0.00000000000E+00  0.24935098840E+03  0.24935098840E+03  0.00000000000E+00 0.  1.
         21   -1    0    0  501  503 -0.00000000000E+00 -0.00000000000E+00 -0.18511263830E+03  0.18511263830E+03  0.00000000000E+00 0.  1.
          6    1    1    2  501    0  0.65303913531E+02 -0.45143865041E+01 -0.78384174593E+02  0.20089315477E+03  0.17300000000E+03 0.  1.
         -6    1    1    2    0  502 -0.65303913531E+02  0.45143865041E+01  0.14262252469E+03  0.23357047193E+03  0.17300000000E+03 0.  1.
</event>
<event>
 4    1  0.5904698E+000  0.1000000E+03  0.7546771E-02  0.1280296E+00
         21   -1    0    0  503  502  0.00000000000E+00  0.00000000000E+00  0.39373169497E+03  0.39373169497E+03  0.00000000000E+00 0.  1.
         21   -1    0    0  501  503 -0.00000000000E+00 -0.00000000000E+00 -0.94330710115E+02  0.94330710115E+02  0.00000000000E+00 0.  1.
          6    1    1    2  501    0  0.19199962810E+02  0.78214783691E+02  0.11558694145E+03  0.22310430743E+03  0.17300000000E+03 0.  1.
         -6    1    1    2    0  502 -0.19199962810E+02 -0.78214783691E+02  0.18381404341E+03  0.26495809766E+03  0.17300000000E+03 0.  1.
</event>
<event>
 4    1  0.5904698E+000  0.1000000E+03  0.7546771E-02  0.1280296E+00
         21   -1    0    0  503  502  0.00000000000E+00  0.00000000000E+00  0.51049062716E+03  0.51049062716E+03  0.00000000000E+00 0.  1.
         21   -1    0    0  501  503 -0.00000000000E+00 -0.00000000000E+00 -0.13089416634E+03  0.13089416634E+03  0.00000000000E+00 0.  1.
          6    1    1    2  501    0  0.26924071654E+01 -0.74375158420E+02 -0.29871165036E+02  0.19068350675E+03  0.17300000000E+03 0.  1.
         -6    1    1    2    0  502 -0.26924071654E+01  0.74375158420E+02  0.40946762586E+03  0.45070128674E+03  0.17300000000E+03 0.  1.
</event>
<event>
 4    1  0.5904698E+000  0.1000000E+03  0.7546771E-02  0.1280296E+00
         21   -1    0    0  501  502  0.00000000000E+00  0.00000000000E+00  0.83771892748E+02  0.83771892748E+02  0.00000000000E+00 0. -1.
         21   -1    0    0  502  503 -0.00000000000E+00 -0.00000000000E+00 -0.87984579410E+03  0.87984579410E+03  0.00000000000E+00 0. -1.
          6    1    1    2  501    0 -0.82751707471E+02  0.15673210451E+03 -0.20069860808E+03  0.31878163209E+03  0.17300000000E+03 0. -1.
         -6    1    1    2    0  503  0.82751707471E+02 -0.15673210451E+03 -0.59537529327E+03  0.64483605476E+03  0.17300000000E+03 0. -1.
</event>
<event>
 4    1  0.5904698E+000  0.1000000E+03  0.7546771E-02  0.1280296E+00
         21   -1    0    0  501  502  0.00000000000E+00  0.00000000000E+00  0.76481211663E+03  0.76481211663E+03  0.00000000000E+00 0. -1.
         21   -1    0    0  502  503 -0.00000000000E+00 -0.00000000000E+00 -0.55101538561E+02  0.55101538561E+02  0.00000000000E+00 0. -1.
          6    1    1    2  501    0  0.70841188739E+01  0.67137964263E+02  0.52958608045E+03  0.56120237668E+03  0.17300000000E+03 0. -1.
         -6    1    1    2    0  503 -0.70841188739E+01 -0.67137964263E+02  0.18012449762E+03  0.25871127851E+03  0.17300000000E+03 0. -1.
</event>
<event>
 4    1  0.5904698E+000  0.1000000E+03  0.7546771E-02  0.1280296E+00
         21   -1    0    0  501  502  0.00000000000E+00  0.00000000000E+00  0.62303782447E+03  0.62303782447E+03  0.00000000000E+00 0. -1.
         21   -1    0    0  502  503 -0.00000000000E+00 -0.00000000000E+00 -0.12491204599E+03  0.12491204599E+03  0.00000000000E+00 0. -1.
          6    1    1    2  501    0  0.20886027198E+03 -0.41242532568E+02  0.31705363725E+03  0.41925597026E+03  0.17300000000E+03 0. -1.
         -6    1    1    2    0  503 -0.20886027198E+03  0.41242532568E+02  0.18107214123E+03  0.32869390021E+03  0.17300000000E+03 0. -1.
</event>
<event>
 4    1  0.5904698E+000  0.1000000E+03  0.7546771E-02  0.1280296E+00
         21   -1    0    0  501  502  0.00000000000E+00  0.00000000000E+00  0.20337074412E+04  0.20337074412E+04  0.00000000000E+00 0. -1.
         21   -1    0    0  502  503 -0.00000000000E+00 -0.00000000000E+00 -0.52226285111E+02  0.52226285111E+02  0.00000000000E+00 0. -1.
          6    1    1    2  501    0 -0.33206188075E+02  0.58869196171E+02  0.18477566779E+04  0.18570681123E+04  0.17300000000E+03 0. -1.
         -6    1    1    2    0  503  0.33206188075E+02 -0.58869196171E+02  0.13372447818E+03  0.22886561395E+03  0.17300000000E+03 0. -1.
</event>
<event>
 4    1  0.5904698E+000  0.1000000E+03  0.7546771E-02  0.1280296E+00
         21   -1    0    0  503  502  0.00000000000E+00  0.00000000000E+00  0.36887138558E+03  0.36887138558E+03  0.00000000000E+00 0.  1.
         21   -1    0    0  501  503 -0.00000000000E+00 -0.00000000000E+00 -0.17674852334E+03  0.17674852334E+03  0.00000000000E+00 0.  1.
          6    1    1    2  501    0 -0.10487633912E+03  0.30113684522E+02  0.25936863639E+03  0.33031344212E+03  0.17300000000E+03 0.  1.
         -6    1    1    2    0  502  0.10487633912E+03 -0.30113684522E+02 -0.67245774155E+02  0.21530646680E+03  0.17300000000E+03 0.  1.
</event>
<event>
 4    1  0.5904698E+000  0.1000000E+03  0.7546771E-02  0.1280296E+00
         21   -1    0    0  503  502  0.00000000000E+00  0.00000000000E+00  0.23445177927E+03  0.23445177927E+03  0.00000000000E+00 0. -1.
         21   -1    0    0  501  503 -0.00000000000E+00 -0.00000000000E+00 -0.21297214989E+03  0.21297214989E+03  0.00000000000E+00 0.  1.
          6    1    1    2  501    0 -0.10939015653E+03  0.87183477921E+02 -0.10153734681E+02  0.22270892101E+03  0.17300000000E+03 0.  1.
         -6    1    1    2    0  502  0.10939015653E+03 -0.87183477921E+02  0.31633364065E+02  0.22471500816E+03  0.17300000000E+03 0. -1.
</event>
<event>
 4    1  0.5904698E+000  0.1000000E+03  0.7546771E-02  0.1280296E+00
         21   -1    0    0  501  502  0.00000000000E+00  0.00000000000E+00  0.40768025953E+03  0.40768025953E+03  0.00000000000E+00 0.  1.
         21   -1    0    0  502  503 -0.00000000000E+00 -0.00000000000E+00 -0.99488030536E+02  0.99488030536E+02  0.00000000000E+00 0.  1.
          6    1    1    2  501    0 -0.35105967229E+02 -0.95222534138E+02  0.13120363149E+03  0.23967301237E+03  0.17300000000E+03 0.  1.
         -6    1    1    2    0  503  0.35105967229E+02  0.95222534138E+02  0.17698859750E+03  0.26749527769E+03  0.17300000000E+03 0.  1.
</event>
<event>
 4    1  0.5904698E+000  0.1000000E+03  0.7546771E-02  0.1280296E+00
         21   -1    0    0  503  502  0.00000000000E+00  0.00000000000E+00  0.38794826557E+02  0.38794826557E+02  0.00000000000E+00 0. -1.
         21   -1    0    0  501  503 -0.00000000000E+00 -0.00000000000E+00 -0.11777131150E+04  0.11777131150E+04  0.00000000000E+00 0. -1.
          6    1    1    2  501    0  0.82436525368E+02 -0.73556464482E+02 -0.73909878269E+03  0.76707388481E+03  0.17300000000E+03 0. -1.
         -6    1    1    2    0  502 -0.82436525368E+02  0.73556464482E+02 -0.39981950573E+03  0.44943405672E+03  0.17300000000E+03 0. -1.
</event>
<event>
 4    1  0.5904698E+000  0.1000000E+03  0.7546771E-02  0.1280296E+00
         21   -1    0    0  503  502  0.00000000000E+00  0.00000000000E+00  0.82295647039E+02  0.82295647039E+02  0.00000000000E+00 0. -1.
         21   -1    0    0  501  503 -0.00000000000E+00 -0.00000000000E+00 -0.23202211634E+04  0.23202211634E+04  0.00000000000E+00 0. -1.
          6    1    1    2  501    0  0.61893946036E+01  0.44135218218E+02 -0.22152423008E+04  0.22224341785E+04  0.17300000000E+03 0. -1.
         -6    1    1    2    0  502 -0.61893946036E+01 -0.44135218218E+02 -0.22683215564E+02  0.18008263204E+03  0.17300000000E+03 0. -1.
</event>
<event>
 4    1  0.5904698E+000  0.1000000E+03  0.7546771E-02  0.1280296E+00
         21   -1    0    0  503  502  0.00000000000E+00  0.00000000000E+00  0.51370876552E+03  0.51370876552E+03  0.00000000000E+00 0. -1.
         21   -1    0    0  501  503 -0.00000000000E+00 -0.00000000000E+00 -0.79020183103E+02  0.79020183103E+02  0.00000000000E+00 0. -1.
          6    1    1    2  501    0  0.24704831460E+01 -0.44425112827E+01  0.36906304860E+03  0.40763019152E+03  0.17300000000E+03 0. -1.
         -6    1    1    2    0  502 -0.24704831460E+01  0.44425112827E+01  0.65625533816E+02  0.18509875711E+03  0.17300000000E+03 0. -1.
</event>
<event>
 4    1  0.5904698E+000  0.1000000E+03  0.7546771E-02  0.1280296E+00
         21   -1    0    0  503  502  0.00000000000E+00  0.00000000000E+00  0.10291366663E+04  0.10291366663E+04  0.00000000000E+00 0. -1.
         21   -1    0    0  501  503 -0.00000000000E+00 -0.00000000000E+00 -0.32468100074E+02  0.32468100074E+02  0.00000000000E+00 0. -1.
          6    1    1    2  501    0 -0.16988622192E+02  0.34492227291E+02  0.36825194041E+03  0.40867691230E+03  0.17300000000E+03 0. -1.
         -6    1    1    2    0  502  0.16988622192E+02 -0.34492227291E+02  0.62841662577E+03  0.65292785403E+03  0.17300000000E+03 0. -1.
</event>
<event>
 4    1  0.5904698E+000  0.1000000E+03  0.7546771E-02  0.1280296E+00
         21   -1    0    0  503  502  0.00000000000E+00  0.00000000000E+00  0.55552577011E+03  0.55552577011E+03  0.00000000000E+00 0. -1.
         21   -1    0    0  501  503 -0.00000000000E+00 -0.00000000000E+00 -0.10319554615E+03  0.10319554615E+03  0.00000000000E+00 0. -1.
          6    1    1    2  501    0 -0.69138781036E+02  0.10820386170E+03  0.82479846999E+02  0.23069497587E+03  0.17300000000E+03 0. -1.
         -6    1    1    2    0  502  0.69138781036E+02 -0.10820386170E+03  0.36985037696E+03  0.42802634039E+03  0.17300000000E+03 0. -1.
</event>
<event>
 4    1  0.5904698E+000  0.1000000E+03  0.7546771E-02  0.1280296E+00
         21   -1    0    0  503  502  0.00000000000E+00  0.00000000000E+00  0.33008550210E+03  0.33008550210E+03  0.00000000000E+00 0. -1.
         21   -1    0    0  501  503 -0.00000000000E+00 -0.00000000000E+00 -0.11155849591E+03  0.11155849591E+03  0.00000000000E+00 0. -1.
          6    1    1    2  501    0  0.33702305146E+02 -0.55031929797E+01  0.22165887121E+02  0.17772579176E+03  0.17300000000E+03 0. -1.
         -6    1    1    2    0  502 -0.33702305146E+02  0.55031929797E+01  0.19636111908E+03  0.26391820625E+03  0.17300000000E+03 0. -1.
</event>
<event>
 4    1  0.5904698E+000  0.1000000E+03  0.7546771E-02  0.1280296E+00
         21   -1    0    0  503  502  0.00000000000E+00  0.00000000000E+00  0.14639100206E+04  0.14639100206E+04  0.00000000000E+00 0. -1.
         21   -1    0    0  501  503 -0.00000000000E+00 -0.00000000000E+00 -0.28313402943E+02  0.28313402943E+02  0.00000000000E+00 0.  1.
          6    1    1    2  501    0 -0.26616332525E+02 -0.10368494521E+03  0.68934535240E+03  0.71873848644E+03  0.17300000000E+03 0.  1.
         -6    1    1    2    0  502  0.26616332525E+02  0.10368494521E+03  0.74625126522E+03  0.77348493706E+03  0.17300000000E+03 0. -1.
</event>
<event>
 4    1  0.5904698E+000  0.1000000E+03  0.7546771E-02  0.1280296E+00
         21   -1    0    0  503  502  0.00000000000E+00  0.00000000000E+00  0.75510007961E+03  0.75510007961E+03  0.00000000000E+00 0. -1.
         21   -1    0    0  501  503 -0.00000000000E+00 -0.00000000000E+00 -0.64641461379E+02  0.64641461379E+02  0.00000000000E+00 0.  1.
          6    1    1    2  501    0  0.10496268513E+03  0.16799322896E+02  0.18368481166E+03  0.27380374825E+03  0.17300000000E+03 0.  1.
         -6    1    1    2    0  502 -0.10496268513E+03 -0.16799322896E+02  0.50677380657E+03  0.54593779274E+03  0.17300000000E+03 0. -1.
</event>
<event>
 4    1  0.5904698E+000  0.1000000E+03  0.7546771E-02  0.1280296E+00
         21   -1    0    0  503  502  0.00000000000E+00  0.00000000000E+00  0.17256897105E+04  0.17256897105E+04  0.00000000000E+00 0. -1.
         21   -1    0    0  501  503 -0.00000000000E+00 -0.00000000000E+00 -0.27504147093E+02  0.27504147093E+02  0.00000000000E+00 0.  1.
          6    1    1    2  501    0  0.12311228972E+03  0.33459498464E+02  0.70635549648E+03  0.73833817545E+03  0.17300000000E+03 0.  1.
         -6    1    1    2    0  502 -0.12311228972E+03 -0.33459498464E+02  0.99183006693E+03  0.10148556821E+04  0.17300000000E+03 0. -1.
</event>
<event>
 4    1  0.5904698E+000  0.1000000E+03  0.7546771E-02  0.1280296E+00
         21   -1    0    0  503  502  0.00000000000E+00  0.00000000000E+00  0.13355948087E+03  0.13355948087E+03  0.00000000000E+00 0. -1.
         21   -1    0    0  501  503 -0.00000000000E+00 -0.00000000000E+00 -0.19596420883E+04  0.19596420883E+04  0.00000000000E+00 0.  1.
          6    1    1    2  501    0 -0.42631369480E+03  0.19438301165E+03 -0.68641675902E+03  0.84889639454E+03  0.17300000000E+03 0.  1.
         -6    1    1    2    0  502  0.42631369480E+03 -0.19438301165E+03 -0.11396658484E+04  0.12443051746E+04  0.17300000000E+03 0. -1.
</event>
<event>
 4    1  0.5904698E+000  0.1000000E+03  0.7546771E-02  0.1280296E+00
         21   -1    0    0  503  502  0.00000000000E+00  0.00000000000E+00  0.36054869435E+02  0.36054869435E+02  0.00000000000E+00 0.  1.
         21   -1    0    0  501  503 -0.00000000000E+00 -0.00000000000E+00 -0.18836425612E+04  0.18836425612E+04  0.00000000000E+00 0. -1.
          6    1    1    2  501    0  0.15703199416E+03 -0.10779689197E+03 -0.10759345390E+04  0.11062745361E+04  0.17300000000E+03 0.  1.
         -6    1    1    2    0  502 -0.15703199416E+03  0.10779689197E+03 -0.77165315278E+03  0.81342289450E+03  0.17300000000E+03 0. -1.
</event>
<event>
 4    1  0.5904698E+000  0.1000000E+03  0.7546771E-02  0.1280296E+00
         21   -1    0    0  503  502  0.00000000000E+00  0.00000000000E+00  0.28274839356E+03  0.28274839356E+03  0.00000000000E+00 0.  1.
         21   -1    0    0  501  503 -0.00000000000E+00 -0.00000000000E+00 -0.22429971133E+03  0.22429971133E+03  0.00000000000E+00 0. -1.
          6    1    1    2  501    0  0.68589860181E+02  0.16148427514E+03 -0.23179217149E+02  0.24748336539E+03  0.17300000000E+03 0. -1.
         -6    1    1    2    0  502 -0.68589860181E+02 -0.16148427514E+03  0.81627899378E+02  0.25956473951E+03  0.17300000000E+03 0.  1.
</event>
<event>
 4    1  0.5904698E+000  0.1000000E+03  0.7546771E-02  0.1280296E+00
         21   -1    0    0  503  502  0.00000000000E+00  0.00000000000E+00  0.26737077058E+03  0.26737077058E+03  0.00000000000E+00 0.  1.
         21   -1    0    0  501  503 -0.00000000000E+00 -0.00000000000E+00 -0.23698786741E+03  0.23698786741E+03  0.00000000000E+00 0. -1.
          6    1    1    2  501    0  0.11745811763E+03  0.35522564633E+02 -0.12061464666E+03  0.24399826840E+03  0.17300000000E+03 0. -1.
         -6    1    1    2    0  502 -0.11745811763E+03 -0.35522564633E+02  0.15099754983E+03  0.26036036958E+03  0.17300000000E+03 0.  1.
</event>
<event>
 4    1  0.5904698E+000  0.1000000E+03  0.7546771E-02  0.1280296E+00
         21   -1    0    0  503  502  0.00000000000E+00  0.00000000000E+00  0.67470709007E+03  0.67470709007E+03  0.00000000000E+00 0. -1.
         21   -1    0    0  501  503 -0.00000000000E+00 -0.00000000000E+00 -0.64318922416E+02  0.64318922416E+02  0.00000000000E+00 0.  1.
          6    1    1    2  501    0 -0.87414131160E+02 -0.52566691888E+02  0.20702553947E+03  0.28843207418E+03  0.17300000000E+03 0.  1.
         -6    1    1    2    0  502  0.87414131160E+02  0.52566691888E+02  0.40336262818E+03  0.45059393830E+03  0.17300000000E+03 0. -1.
</event>
<event>
 4    1  0.5904698E+000  0.1000000E+03  0.7546771E-02  0.1280296E+00
         21   -1    0    0  503  502  0.00000000000E+00  0.00000000000E+00  0.53590695342E+03  0.53590695342E+03  0.00000000000E+00 0. -1.
         21   -1    0    0  501  503 -0.00000000000E+00 -0.00000000000E+00 -0.10434747210E+03  0.10434747210E+03  0.00000000000E+00 0.  1.
          6    1    1    2  501    0  0.41191311986E+02 -0.54525504938E+02  0.18106141278E+02  0.18688656245E+03  0.17300000000E+03 0.  1.
         -6    1    1    2    0  502 -0.41191311986E+02  0.54525504938E+02  0.41345334005E+03  0.45336786307E+03  0.17300000000E+03 0. -1.
</event>
<event>
 4    1  0.5904698E+000  0.1000000E+03  0.7546771E-02  0.1280296E+00
         21   -1    0    0  503  502  0.00000000000E+00  0.00000000000E+00  0.21537861673E+03  0.21537861673E+03  0.00000000000E+00 0. -1.
         21   -1    0    0  501  503 -0.00000000000E+00 -0.00000000000E+00 -0.18875740306E+03  0.18875740306E+03  0.00000000000E+00 0.  1.
          6    1    1    2  501    0 -0.88090712902E+02 -0.46444397146E+02 -0.15181059008E+02  0.20019120929E+03  0.17300000000E+03 0.  1.
         -6    1    1    2    0  502  0.88090712902E+02  0.46444397146E+02  0.41802272674E+02  0.20394481049E+03  0.17300000000E+03 0. -1.
</event>
<event>
 4    1  0.5904698E+000  0.1000000E+03  0.7546771E-02  0.1280296E+00
         21   -1    0    0  503  502  0.00000000000E+00  0.00000000000E+00  0.12510422345E+04  0.12510422345E+04  0.00000000000E+00 0. -1.
         21   -1    0    0  501  503 -0.00000000000E+00 -0.00000000000E+00 -0.61484664181E+02  0.61484664181E+02  0.00000000000E+00 0.  1.
          6    1    1    2  501    0  0.95746627248E+02  0.59645059346E+02  0.15676246482E+03  0.25928443862E+03  0.17300000000E+03 0.  1.
         -6    1    1    2    0  502 -0.95746627248E+02 -0.59645059346E+02  0.10327951055E+04  0.10532424600E+04  0.17300000000E+03 0. -1.
</event>
<event>
 4    1  0.5904698E+000  0.1000000E+03  0.7546771E-02  0.1280296E+00
         21   -1    0    0  503  502  0.00000000000E+00  0.00000000000E+00  0.25861757763E+03  0.25861757763E+03  0.00000000000E+00 0. -1.
         21   -1    0    0  501  503 -0.00000000000E+00 -0.00000000000E+00 -0.17900326261E+03  0.17900326261E+03  0.00000000000E+00 0. -1.
          6    1    1    2  501    0  0.29171171764E+02 -0.54872742223E+02 -0.73904623902E+02  0.19812336696E+03  0.17300000000E+03 0. -1.
         -6    1    1    2    0  502 -0.29171171764E+02  0.54872742223E+02  0.15351893892E+03  0.23949747328E+03  0.17300000000E+03 0. -1.
</event>
<event>
 4    1  0.5904698E+000  0.1000000E+03  0.7546771E-02  0.1280296E+00
         21   -1    0    0  501  502  0.00000000000E+00  0.00000000000E+00  0.65596373126E+02  0.65596373126E+02  0.00000000000E+00 0.  1.
         21   -1    0    0  502  503 -0.00000000000E+00 -0.00000000000E+00 -0.17116359250E+04  0.17116359250E+04  0.00000000000E+00 0. -1.
          6    1    1    2  501    0  0.22106979615E+03 -0.11469365606E+03 -0.44497107808E+03  0.53847446536E+03  0.17300000000E+03 0.  1.
         -6    1    1    2    0  503 -0.22106979615E+03  0.11469365606E+03 -0.12010684738E+04  0.12387578328E+04  0.17300000000E+03 0. -1.
</event>
<event>
 4    1  0.5904698E+000  0.1000000E+03  0.7546771E-02  0.1280296E+00
         21   -1    0    0  501  502  0.00000000000E+00  0.00000000000E+00  0.62772675187E+03  0.62772675187E+03  0.00000000000E+00 0.  1.
         21   -1    0    0  502  503 -0.00000000000E+00 -0.00000000000E+00 -0.84159704756E+02  0.84159704756E+02  0.00000000000E+00 0.  1.
          6    1    1    2  501    0 -0.23901919739E+02 -0.36550021289E+02  0.49616216914E+03  0.52726947941E+03  0.17300000000E+03 0.  1.
         -6    1    1    2    0  503  0.23901919739E+02  0.36550021289E+02  0.47404877975E+02  0.18461697722E+03  0.17300000000E+03 0.  1.
</event>
<event>
 4    1  0.5904698E+000  0.1000000E+03  0.7546771E-02  0.1280296E+00
         21   -1    0    0  501  502  0.00000000000E+00  0.00000000000E+00  0.33715912764E+03  0.33715912764E+03  0.00000000000E+00 0.  1.
         21   -1    0    0  502  503 -0.00000000000E+00 -0.00000000000E+00 -0.37085740776E+03  0.37085740776E+03  0.00000000000E+00 0.  1.
          6    1    1    2  501    0  0.28773929622E+03  0.86298081888E+02  0.52998912601E+02  0.35068382663E+03  0.17300000000E+03 0.  1.
         -6    1    1    2    0  503 -0.28773929622E+03 -0.86298081888E+02 -0.86697192720E+02  0.35733270876E+03  0.17300000000E+03 0.  1.
</event>
<event>
 4    1  0.5904698E+000  0.1000000E+03  0.7546771E-02  0.1280296E+00
         21   -1    0    0  503  502  0.00000000000E+00  0.00000000000E+00  0.30188178883E+02  0.30188178883E+02  0.00000000000E+00 0.  1.
         21   -1    0    0  501  503 -0.00000000000E+00 -0.00000000000E+00 -0.13484630125E+04  0.13484630125E+04  0.00000000000E+00 0. -1.
          6    1    1    2  501    0  0.56803234942E+02  0.76434377331E+02 -0.80041126147E+03  0.82441252357E+03  0.17300000000E+03 0. -1.
         -6    1    1    2    0  502 -0.56803234942E+02 -0.76434377331E+02 -0.51786357215E+03  0.55423866781E+03  0.17300000000E+03 0.  1.
</event>
<event>
 4    1  0.5904698E+000  0.1000000E+03  0.7546771E-02  0.1280296E+00
         21   -1    0    0  503  502  0.00000000000E+00  0.00000000000E+00  0.33861939183E+03  0.33861939183E+03  0.00000000000E+00 0.  1.
         21   -1    0    0  501  503 -0.00000000000E+00 -0.00000000000E+00 -0.34591006589E+03  0.34591006589E+03  0.00000000000E+00 0. -1.
          6    1    1    2  501    0  0.19824203215E+03 -0.74177330389E+02 -0.20957126254E+03  0.34445797093E+03  0.17300000000E+03 0. -1.
         -6    1    1    2    0  502 -0.19824203215E+03  0.74177330389E+02  0.20228058848E+03  0.34007148679E+03  0.17300000000E+03 0.  1.
</event>
<event>
 4    1  0.5904698E+000  0.1000000E+03  0.7546771E-02  0.1280296E+00
         21   -1    0    0  503  502  0.00000000000E+00  0.00000000000E+00  0.50512498695E+02  0.50512498695E+02  0.00000000000E+00 0.  1.
         21   -1    0    0  501  503 -0.00000000000E+00 -0.00000000000E+00 -0.29809049130E+04  0.29809049130E+04  0.00000000000E+00 0.  1.
          6    1    1    2  501    0  0.52797876027E+02  0.84381033345E+02 -0.27650276206E+04  0.27722219459E+04  0.17300000000E+03 0.  1.
         -6    1    1    2    0  502 -0.52797876027E+02 -0.84381033345E+02 -0.16536479368E+03  0.25919546580E+03  0.17300000000E+03 0.  1.
</event>
<event>
 4    1  0.5904698E+000  0.1000000E+03  0.7546771E-02  0.1280296E+00
         21   -1    0    0  503  502  0.00000000000E+00  0.00000000000E+00  0.20976918239E+03  0.20976918239E+03  0.00000000000E+00 0.  1.
         21   -1    0    0  501  503 -0.00000000000E+00 -0.00000000000E+00 -0.27355112907E+03  0.27355112907E+03  0.00000000000E+00 0. -1.
          6    1    1    2  501    0 -0.13535346806E+03 -0.92655521358E+02 -0.55506691857E+02  0.24477663245E+03  0.17300000000E+03 0. -1.
         -6    1    1    2    0  502  0.13535346806E+03  0.92655521358E+02 -0.82752548176E+01  0.23854367901E+03  0.17300000000E+03 0.  1.
</event>
<event>
 4    1  0.5904698E+000  0.1000000E+03  0.7546771E-02  0.1280296E+00
         21   -1    0    0  503  502  0.00000000000E+00  0.00000000000E+00  0.39243209952E+03  0.39243209952E+03  0.00000000000E+00 0.  1.
         21   -1    0    0  501  503 -0.00000000000E+00 -0.00000000000E+00 -0.10909117982E+04  0.10909117982E+04  0.00000000000E+00 0. -1.
          6    1    1    2  501    0 -0.23972963305E+03 -0.97090136582E+01 -0.10107961555E+04  0.10531867973E+04  0.17300000000E+03 0. -1.
         -6    1    1    2    0  502  0.23972963305E+03  0.97090136582E+01  0.31231645681E+03  0.43015710049E+03  0.17300000000E+03 0.  1.
</event>
<event>
 4    1  0.5904698E+000  0.1000000E+03  0.7546771E-02  0.1280296E+00
         21   -1    0    0  503  502  0.00000000000E+00  0.00000000000E+00  0.83240824030E+03  0.83240824030E+03  0.00000000000E+00 0.  1.
         21   -1    0    0  501  503 -0.00000000000E+00 -0.00000000000E+00 -0.63379818392E+02  0.63379818392E+02  0.00000000000E+00 0. -1.
          6    1    1    2  501    0 -0.26976148371E+02  0.29846029214E+02  0.10052236612E+03  0.20408881432E+03  0.17300000000E+03 0. -1.
         -6    1    1    2    0  502  0.26976148371E+02 -0.29846029214E+02  0.66850605579E+03  0.69169924437E+03  0.17300000000E+03 0.  1.
</event>
<event>
 4    1  0.5904698E+000  0.1000000E+03  0.7546771E-02  0.1280296E+00
         21   -1    0    0  501  502  0.00000000000E+00  0.00000000000E+00  0.18519493211E+03  0.18519493211E+03  0.00000000000E+00 0. -1.
         21   -1    0    0  502  503 -0.00000000000E+00 -0.00000000000E+00 -0.27566833113E+03  0.27566833113E+03  0.00000000000E+00 0.  1.
          6    1    1    2  501    0  0.68089558576E+02  0.11472782154E+03  0.13567919362E+02  0.21888752696E+03  0.17300000000E+03 0. -1.
         -6    1    1    2    0  503 -0.68089558576E+02 -0.11472782154E+03 -0.10404131838E+03  0.24197573629E+03  0.17300000000E+03 0.  1.
</event>
<event>
 4    1  0.5904698E+000  0.1000000E+03  0.7546771E-02  0.1280296E+00
         21   -1    0    0  501  502  0.00000000000E+00  0.00000000000E+00  0.36903856589E+03  0.36903856589E+03  0.00000000000E+00 0. -1.
         21   -1    0    0  502  503 -0.00000000000E+00 -0.00000000000E+00 -0.23243106819E+03  0.23243106819E+03  0.00000000000E+00 0.  1.
          6    1    1    2  501    0  0.95012998386E+02 -0.12235767810E+03  0.25155329014E+03  0.34235497519E+03  0.17300000000E+03 0. -1.
         -6    1    1    2    0  503 -0.95012998386E+02  0.12235767810E+03 -0.11494579245E+03  0.25911465890E+03  0.17300000000E+03 0.  1.
</event>
<event>
 4    1  0.5904698E+000  0.1000000E+03  0.7546771E-02  0.1280296E+00
         21   -1    0    0  501  502  0.00000000000E+00  0.00000000000E+00  0.49756695857E+03  0.49756695857E+03  0.00000000000E+00 0. -1.
         21   -1    0    0  502  503 -0.00000000000E+00 -0.00000000000E+00 -0.96223993830E+02  0.96223993830E+02  0.00000000000E+00 0. -1.
          6    1    1    2  501    0  0.10817011541E+03  0.57081063772E-01  0.30792467004E+03  0.36938784433E+03  0.17300000000E+03 0.  1.
         -6    1    1    2    0  503 -0.10817011541E+03 -0.57081063772E-01  0.93418294708E+02  0.22440310807E+03  0.17300000000E+03 0.  1.
</event>
<event>
 4    1  0.5904698E+000  0.1000000E+03  0.7546771E-02  0.1280296E+00
         21   -1    0    0  501  502  0.00000000000E+00  0.00000000000E+00  0.10279656110E+03  0.10279656110E+03  0.00000000000E+00 0. -1.
         21   -1    0    0  502  503 -0.00000000000E+00 -0.00000000000E+00 -0.24224905954E+04  0.24224905954E+04  0.00000000000E+00 0. -1.
          6    1    1    2  501    0  0.12511883037E+03  0.10501776203E+02 -0.18912197713E+02  0.21459655225E+03  0.17300000000E+03 0.  1.
         -6    1    1    2    0  503 -0.12511883037E+03 -0.10501776203E+02 -0.23007818365E+04  0.23106906042E+04  0.17300000000E+03 0.  1.
</event>
<event>
 4    1  0.5904698E+000  0.1000000E+03  0.7546771E-02  0.1280296E+00
         21   -1    0    0  501  502  0.00000000000E+00  0.00000000000E+00  0.63335912257E+03  0.63335912257E+03  0.00000000000E+00 0. -1.
         21   -1    0    0  502  503 -0.00000000000E+00 -0.00000000000E+00 -0.83024387076E+02  0.83024387076E+02  0.00000000000E+00 0. -1.
          6    1    1    2  501    0 -0.12259938682E+03 -0.78631053046E+02  0.33447906627E+03  0.40375574042E+03  0.17300000000E+03 0.  1.
         -6    1    1    2    0  503  0.12259938682E+03  0.78631053046E+02  0.21585566922E+03  0.31262776922E+03  0.17300000000E+03 0.  1.
</event>
<event>
 4    1  0.5904698E+000  0.1000000E+03  0.7546771E-02  0.1280296E+00
         21   -1    0    0  503  502  0.00000000000E+00  0.00000000000E+00  0.18744130246E+04  0.18744130246E+04  0.00000000000E+00 0. -1.
         21   -1    0    0  501  503 -0.00000000000E+00 -0.00000000000E+00 -0.26560648356E+02  0.26560648356E+02  0.00000000000E+00 0.  1.
          6    1    1    2  501    0  0.30765500162E+02  0.13645363353E+03  0.99653318774E+03  0.10210648874E+04  0.17300000000E+03 0.  1.
         -6    1    1    2    0  502 -0.30765500162E+02 -0.13645363353E+03  0.85131918848E+03  0.87990878548E+03  0.17300000000E+03 0. -1.
</event>
<event>
 4    1  0.5904698E+000  0.1000000E+03  0.7546771E-02  0.1280296E+00
         21   -1    0    0  503  502  0.00000000000E+00  0.00000000000E+00  0.85876712653E+03  0.85876712653E+03  0.00000000000E+00 0. -1.
         21   -1    0    0  501  503 -0.00000000000E+00 -0.00000000000E+00 -0.19043810865E+03  0.19043810865E+03  0.00000000000E+00 0.  1.
          6    1    1    2  501    0 -0.10874021620E+03 -0.13586560329E+03 -0.82826913225E+02  0.25898493070E+03  0.17300000000E+03 0.  1.
         -6    1    1    2    0  502  0.10874021620E+03  0.13586560329E+03  0.75115593110E+03  0.79022030448E+03  0.17300000000E+03 0. -1.
</event>
<event>
 4    1  0.5904698E+000  0.1000000E+03  0.7546771E-02  0.1280296E+00
         21   -1    0    0  503  502  0.00000000000E+00  0.00000000000E+00  0.21507738602E+03  0.21507738602E+03  0.00000000000E+00 0. -1.
         21   -1    0    0  501  503 -0.00000000000E+00 -0.00000000000E+00 -0.18010426983E+03  0.18010426983E+03  0.00000000000E+00 0.  1.
          6    1    1    2  501    0 -0.52698814438E+02  0.73561470127E+02 -0.74891532170E+01  0.19538050657E+03  0.17300000000E+03 0.  1.
         -6    1    1    2    0  502  0.52698814438E+02 -0.73561470127E+02  0.42462269413E+02  0.19980114928E+03  0.17300000000E+03 0. -1.
</event>
<event>
 4    1  0.5904698E+000  0.1000000E+03  0.7546771E-02  0.1280296E+00
         21   -1    0    0  503  502  0.00000000000E+00  0.00000000000E+00  0.12550702322E+03  0.12550702322E+03  0.00000000000E+00 0. -1.
         21   -1    0    0  501  503 -0.00000000000E+00 -0.00000000000E+00 -0.32050330692E+03  0.32050330692E+03  0.00000000000E+00 0.  1.
          6    1    1    2  501    0 -0.79305085000E+02  0.54641389422E+01 -0.16762054424E+03  0.25366276860E+03  0.17300000000E+03 0.  1.
         -6    1    1    2    0  502  0.79305085000E+02 -0.54641389422E+01 -0.27375739460E+02  0.19234756154E+03  0.17300000000E+03 0. -1.
</event>
<event>
 4    1  0.5904698E+000  0.1000000E+03  0.7546771E-02  0.1280296E+00
         21   -1    0    0  503  502  0.00000000000E+00  0.00000000000E+00  0.15897069183E+03  0.15897069183E+03  0.00000000000E+00 0. -1.
         21   -1    0    0  501  503 -0.00000000000E+00 -0.00000000000E+00 -0.38587206147E+03  0.38587206147E+03  0.00000000000E+00 0.  1.
          6    1    1    2  501    0  0.58746614505E+02  0.98163181954E+02 -0.26235143343E+03  0.33443153205E+03  0.17300000000E+03 0.  1.
         -6    1    1    2    0  502 -0.58746614505E+02 -0.98163181954E+02  0.35450063794E+02  0.21041122126E+03  0.17300000000E+03 0. -1.
</event>
<event>
 4    1  0.5904698E+000  0.1000000E+03  0.7546771E-02  0.1280296E+00
         21   -1    0    0  501  502  0.00000000000E+00  0.00000000000E+00  0.14598675826E+03  0.14598675826E+03  0.00000000000E+00 0. -1.
         21   -1    0    0  502  503 -0.00000000000E+00 -0.00000000000E+00 -0.32503982413E+03  0.32503982413E+03  0.00000000000E+00 0. -1.
          6    1    1    2  501    0  0.59817045793E+02  0.18930436539E+02 -0.21554590849E+03  0.28341749957E+03  0.17300000000E+03 0. -1.
         -6    1    1    2    0  503 -0.59817045793E+02 -0.18930436539E+02  0.36492842627E+02  0.18760908282E+03  0.17300000000E+03 0. -1.
</event>
<event>
 4    1  0.5904698E+000  0.1000000E+03  0.7546771E-02  0.1280296E+00
         21   -1    0    0  501  502  0.00000000000E+00  0.00000000000E+00  0.64631537574E+03  0.64631537574E+03  0.00000000000E+00 0. -1.
         21   -1    0    0  502  503 -0.00000000000E+00 -0.00000000000E+00 -0.19855309171E+03  0.19855309171E+03  0.00000000000E+00 0. -1.
          6    1    1    2  501    0  0.19268412528E+03 -0.15074220494E+03  0.45540857391E+03  0.54513883890E+03  0.17300000000E+03 0.  1.
         -6    1    1    2    0  503 -0.19268412528E+03  0.15074220494E+03 -0.76462898757E+01  0.29972962855E+03  0.17300000000E+03 0.  1.
</event>
<event>
 4    1  0.5904698E+000  0.1000000E+03  0.7546771E-02  0.1280296E+00
         21   -1    0    0  501  502  0.00000000000E+00  0.00000000000E+00  0.61854025439E+03  0.61854025439E+03  0.00000000000E+00 0. -1.
         21   -1    0    0  502  503 -0.00000000000E+00 -0.00000000000E+00 -0.96493057040E+02  0.96493057040E+02  0.00000000000E+00 0. -1.
          6    1    1    2  501    0  0.15346745064E+03  0.41922931938E+02  0.35860148466E+03  0.42875845814E+03  0.17300000000E+03 0.  1.
         -6    1    1    2    0  503 -0.15346745064E+03 -0.41922931938E+02  0.16344571268E+03  0.28627485328E+03  0.17300000000E+03 0.  1.
</event>
<event>
 4    1  0.5904698E+000  0.1000000E+03  0.7546771E-02  0.1280296E+00
         21   -1    0    0  501  502  0.00000000000E+00  0.00000000000E+00  0.53461273410E+03  0.53461273410E+03  0.00000000000E+00 0. -1.
         21   -1    0    0  502  503 -0.00000000000E+00 -0.00000000000E+00 -0.12577015930E+03  0.12577015930E+03  0.00000000000E+00 0. -1.
          6    1    1    2  501    0 -0.16125463714E+03  0.86237231216E+02  0.28363124434E+03  0.37923027413E+03  0.17300000000E+03 0. -1.
         -6    1    1    2    0  503  0.16125463714E+03 -0.86237231216E+02  0.12521133047E+03  0.28115261927E+03  0.17300000000E+03 0. -1.
</event>
<event>
 4    1  0.5904698E+000  0.1000000E+03  0.7546771E-02  0.1280296E+00
         21   -1    0    0  501  502  0.00000000000E+00  0.00000000000E+00  0.69401593484E+03  0.69401593484E+03  0.00000000000E+00 0. -1.
         21   -1    0    0  502  503 -0.00000000000E+00 -0.00000000000E+00 -0.17445139049E+03  0.17445139049E+03  0.00000000000E+00 0. -1.
          6    1    1    2  501    0  0.35603744812E+02  0.63650623830E+02  0.62538208625E+03  0.65295542142E+03  0.17300000000E+03 0. -1.
         -6    1    1    2    0  503 -0.35603744812E+02 -0.63650623830E+02 -0.10581754190E+03  0.21551190392E+03  0.17300000000E+03 0. -1.
</event>
<event>
 4    1  0.5904698E+000  0.1000000E+03  0.7546771E-02  0.1280296E+00
         21   -1    0    0  501  502  0.00000000000E+00  0.00000000000E+00  0.78329141405E+03  0.78329141405E+03  0.00000000000E+00 0.  1.
         21   -1    0    0  502  503 -0.00000000000E+00 -0.00000000000E+00 -0.66769520253E+02  0.66769520253E+02  0.00000000000E+00 0. -1.
          6    1    1    2  501    0  0.63601243101E+02 -0.13478484229E+03  0.38169021195E+03  0.44477914714E+03  0.17300000000E+03 0. -1.
         -6    1    1    2    0  503 -0.63601243101E+02  0.13478484229E+03  0.33483168185E+03  0.40528178717E+03  0.17300000000E+03 0.  1.
</event>
<event>
 4    1  0.5904698E+000  0.1000000E+03  0.7546771E-02  0.1280296E+00
         21   -1    0    0  501  502  0.00000000000E+00  0.00000000000E+00  0.17274918813E+03  0.17274918813E+03  0.00000000000E+00 0.  1.
         21   -1    0    0  502  503 -0.00000000000E+00 -0.00000000000E+00 -0.55581323871E+03  0.55581323871E+03  0.00000000000E+00 0. -1.
          6    1    1    2  501    0 -0.25543051993E+03 -0.21859772127E+02 -0.21398240166E+03  0.37608518765E+03  0.17300000000E+03 0. -1.
         -6    1    1    2    0  503  0.25543051993E+03  0.21859772127E+02 -0.16908164891E+03  0.35247723919E+03  0.17300000000E+03 0.  1.
</event>
<event>
 4    1  0.5904698E+000  0.1000000E+03  0.7546771E-02  0.1280296E+00
         21   -1    0    0  501  502  0.00000000000E+00  0.00000000000E+00  0.45406682102E+03  0.45406682102E+03  0.00000000000E+00 0.  1.
         21   -1    0    0  502  503 -0.00000000000E+00 -0.00000000000E+00 -0.15609102269E+03  0.15609102269E+03  0.00000000000E+00 0. -1.
          6    1    1    2  501    0  0.12645989700E+03 -0.13222582999E+02 -0.31402060274E+02  0.21698394327E+03  0.17300000000E+03 0. -1.
         -6    1    1    2    0  503 -0.12645989700E+03  0.13222582999E+02  0.32937785860E+03  0.39317390043E+03  0.17300000000E+03 0.  1.
</event>
<event>
 4    1  0.5904698E+000  0.1000000E+03  0.7546771E-02  0.1280296E+00
         21   -1    0    0  503  502  0.00000000000E+00  0.00000000000E+00  0.66189450019E+02  0.66189450019E+02  0.00000000000E+00 0.  1.
         21   -1    0    0  501  503 -0.00000000000E+00 -0.00000000000E+00 -0.11207552795E+04  0.11207552795E+04  0.00000000000E+00 0.  1.
          6    1    1    2  501    0 -0.39064349075E+02 -0.16928379935E+03 -0.78574690346E+03  0.82311009250E+03  0.17300000000E+03 0.  1.
         -6    1    1    2    0  502  0.39064349075E+02  0.16928379935E+03 -0.26881892598E+03  0.36383463697E+03  0.17300000000E+03 0.  1.
</event>
<event>
 4    1  0.5904698E+000  0.1000000E+03  0.7546771E-02  0.1280296E+00
         21   -1    0    0  503  502  0.00000000000E+00  0.00000000000E+00  0.88055523905E+02  0.88055523905E+02  0.00000000000E+00 0. -1.
         21   -1    0    0  501  503 -0.00000000000E+00 -0.00000000000E+00 -0.55656457560E+03  0.55656457560E+03  0.00000000000E+00 0.  1.
          6    1    1    2  501    0 -0.24483270924E+01  0.17457981091E+02 -0.43371467144E+03  0.46727742470E+03  0.17300000000E+03 0.  1.
         -6    1    1    2    0  502  0.24483270924E+01 -0.17457981091E+02 -0.34794380251E+02  0.17734267480E+03  0.17300000000E+03 0. -1.
</event>
<event>
 4    1  0.5904698E+000  0.1000000E+03  0.7546771E-02  0.1280296E+00
         21   -1    0    0  503  502  0.00000000000E+00  0.00000000000E+00  0.12699586409E+03  0.12699586409E+03  0.00000000000E+00 0. -1.
         21   -1    0    0  501  503 -0.00000000000E+00 -0.00000000000E+00 -0.40143842804E+03  0.40143842804E+03  0.00000000000E+00 0.  1.
          6    1    1    2  501    0 -0.11166226875E+03  0.88298469570E+02 -0.10439459823E+03  0.24716859455E+03  0.17300000000E+03 0.  1.
         -6    1    1    2    0  502  0.11166226875E+03 -0.88298469570E+02 -0.17004796572E+03  0.28126569758E+03  0.17300000000E+03 0. -1.
</event>
